Protein in water
79358
    1DC     O5'    1   3.007   4.334   3.333  0.2240 -0.0090  0.0057
    1DC     H5T    2   3.036   4.304   3.419  0.1194 -1.4990 -0.4539
    1DC     C5'    3   2.879   4.281   3.308  0.1526  0.0817  0.1814
    1DC    H5'1    4   2.834   4.339   3.228 -0.8958  0.1592  0.8026
    1DC    H5'2    5   2.827   4.300   3.402  0.6797 -1.7668  0.9034
    1DC     C4'    6   2.885   4.133   3.271 -0.7531 -0.0127  0.3979
    1DC     H4'    7   2.787   4.095   3.241 -0.6412  0.7002 -0.9586
    1DC     O4'    8   2.969   4.127   3.158  0.0116  0.3990  0.9357
    1DC     C1'    9   3.038   4.004   3.159  0.1702  0.4698 -0.1979
    1DC     H1'   10   2.992   3.946   3.079 -1.9062  0.4023  0.9638
    1DC      N1   11   3.182   4.026   3.138  0.2682  0.3039  0.2935
    1DC      C6   12   3.238   4.149   3.162  0.2735  0.3921 -0.1614
    1DC      H6   13   3.179   4.226   3.211 -0.7800 -0.0891 -0.6295
    1DC      C5   14   3.367   4.170   3.130  0.3981  0.0056  0.0744
    1DC      H5   15   3.409   4.268   3.147  1.8026 -0.6374  0.4277
    1DC      C4   16   3.441   4.064   3.069  0.1861 -0.3271  0.3866
    1DC      N4   17   3.570   4.090   3.041 -0.0501  0.2304 -0.2224
    1DC     H41   18   3.610   4.177   3.073  2.7615 -1.0027 -0.1488
    1DC     H42   19   3.627   4.022   2.993 -0.2785 -0.4157  0.4135
    1DC      N3   20   3.387   3.947   3.033  0.1164 -0.2187  0.1284
    1DC      C2   21   3.259   3.931   3.073  0.0904  0.2086  0.2223
    1DC      O2   22   3.210   3.820   3.051  0.5446  0.1076 -0.2872
    1DC     C3'   23   2.955   4.047   3.376  0.0261  0.1456  0.0131
    1DC     H3'   24   3.033   4.103   3.428 -0.7787 -0.1688  1.6146
    1DC     C2'   25   3.016   3.934   3.293 -0.2674  0.2677 -0.3725
    1DC    H2'1   26   3.106   3.891   3.336 -1.0602 -2.2121 -1.0645
    1DC    H2'2   27   2.945   3.853   3.279  2.1048 -2.1122  0.6728
    1DC     O3'   28   2.863   3.990   3.466  0.0602  0.3054  0.1490
    2DG       P   29   2.924   3.928   3.602  0.0092 -0.3988 -0.1469
    2DG     O1P   30   2.804   3.880   3.675  0.2750 -0.1314  0.4726
    2DG     O2P   31   3.015   4.029   3.660 -0.4912  0.0916 -0.2116
    2DG     O5'   32   2.999   3.792   3.558  0.0412 -0.3698 -0.1823
    2DG     C5'   33   2.934   3.667   3.550 -0.0545 -0.3167 -0.2439
    2DG    H5'1   34   2.850   3.680   3.482 -2.7039  0.5488  2.9067
    2DG    H5'2   35   2.897   3.651   3.652 -2.1139  0.3670 -0.8426
    2DG     C4'   36   3.029   3.554   3.514  0.4201 -0.0418  0.1325
    2DG     H4'   37   2.979   3.458   3.499 -0.7113  0.1367  2.3928
    2DG     O4'   38   3.104   3.586   3.399  0.0096 -0.0966 -0.1517
    2DG     C1'   39   3.232   3.531   3.421  0.1010  0.2757  0.2741
    2DG     H1'   40   3.258   3.451   3.352  0.3823  1.2697 -0.8170
    2DG      N9   41   3.341   3.628   3.399  0.2381  0.0302 -0.1456
    2DG      C8   42   3.334   3.763   3.424  0.0428  0.0257 -0.1781
    2DG      H8   43   3.246   3.807   3.470  0.4222  3.1320 -2.1649
    2DG      N7   44   3.445   3.823   3.394  0.2707 -0.0252  0.5587
    2DG      C5   45   3.529   3.725   3.343 -0.3145 -0.1551 -0.1672
    2DG      C6   46   3.662   3.733   3.295 -0.2076 -0.4578  0.0782
    2DG      O6   47   3.729   3.834   3.275 -0.5330 -0.1055  0.7441
    2DG      N1   48   3.715   3.609   3.263  0.6574 -0.0878  0.0370
    2DG      H1   49   3.812   3.605   3.233  0.7946  0.8404  0.3475
    2DG      C2   50   3.651   3.490   3.293  0.2740  0.1449  0.1465
    2DG      N2   51   3.708   3.371   3.271 -0.0877  0.0132 -0.0810
    2DG     H21   52   3.804   3.353   3.244 -0.4617 -2.2765 -0.1238
    2DG     H22   53   3.646   3.293   3.287  0.2085 -0.0884  0.5888
    2DG      N3   54   3.521   3.482   3.322  0.3004 -0.3812  0.1272
    2DG      C4   55   3.467   3.603   3.351 -0.0842 -0.3168 -0.8198
    2DG     C3'   56   3.124   3.537   3.633  0.1760 -0.1385  0.3145
    2DG     H3'   57   3.145   3.634   3.677 -0.7182  0.1055  0.2262
    2DG     C2'   58   3.243   3.474   3.561  0.2082  0.0710  0.1819
    2DG    H2'1   59   3.328   3.520   3.612 -1.5449  0.5959  2.8052
    2DG    H2'2   60   3.246   3.365   3.560 -0.4395  0.0335  0.8725
    2DG     O3'   61   3.080   3.458   3.741 -0.1966 -0.4369 -0.0486
    3DA       P   62   3.168   3.448   3.876  0.0665 -0.0236 -0.1878
    3DA     O1P   63   3.090   3.363   3.968 -0.2863  0.5529  0.0547
    3DA     O2P   64   3.198   3.587   3.918 -0.1645 -0.0642  0.1171
    3DA     O5'   65   3.307   3.373   3.844 -0.0487 -0.4071  0.2119
    3DA     C5'   66   3.310   3.239   3.799  0.5741 -0.3272  0.0071
    3DA    H5'1   67   3.239   3.237   3.716  0.5655 -0.4578  0.0174
    3DA    H5'2   68   3.272   3.162   3.865  1.1753 -0.3914  0.2760
    3DA     C4'   69   3.447   3.203   3.744  0.6541 -0.0498  0.0231
    3DA     H4'   70   3.446   3.100   3.710  1.7885 -0.1565  0.2456
    3DA     O4'   71   3.497   3.278   3.636  0.3275  0.0172 -0.0822
    3DA     C1'   72   3.637   3.300   3.637  0.2933  0.2431 -0.1684
    3DA     H1'   73   3.680   3.261   3.544  0.5038 -0.8786  0.3747
    3DA      N9   74   3.672   3.442   3.651  0.2820  0.2412 -0.1277
    3DA      C8   75   3.598   3.551   3.691  0.1342  0.1118 -0.0504
    3DA      H8   76   3.497   3.541   3.728 -0.5134  0.8871 -1.5439
    3DA      N7   77   3.649   3.664   3.654 -0.2611  0.2432 -0.2002
    3DA      C5   78   3.771   3.630   3.596 -0.4330  0.2866 -0.5942
    3DA      C6   79   3.881   3.696   3.538 -0.0216  0.4541  0.3468
    3DA      N6   80   3.876   3.827   3.510  0.5375  0.4494  0.2280
    3DA     H61   81   3.790   3.880   3.518  0.9398  0.9545  1.6066
    3DA     H62   82   3.966   3.865   3.485  1.2012 -0.5985  0.9092
    3DA      N1   83   3.987   3.629   3.491 -0.4192  0.0290  0.0339
    3DA      C2   84   3.994   3.498   3.506  0.5347  0.1126  0.4098
    3DA      H2   85   4.081   3.452   3.462 -1.4697 -3.3730 -0.3032
    3DA      N3   86   3.895   3.426   3.556 -0.0650  0.3541 -0.4086
    3DA      C4   87   3.791   3.495   3.607  0.3362  0.4578  0.2741
    3DA     C3'   88   3.563   3.212   3.843  0.2705 -0.2513  0.4956
    3DA     H3'   89   3.533   3.300   3.900  0.4473 -0.0553  0.2889
    3DA     C2'   90   3.690   3.225   3.759 -0.0770  0.3465  0.0585
    3DA    H2'1   91   3.773   3.284   3.799 -1.6446  2.4334  0.4055
    3DA    H2'2   92   3.717   3.126   3.723  1.1979  1.1193 -1.2341
    3DA     O3'   93   3.559   3.096   3.924 -0.7290 -0.3403  0.3309
    4DC       P   94   3.619   3.101   4.073 -0.2874 -0.0379  0.1493
    4DC     O1P   95   3.609   2.962   4.122 -0.0574  0.0353  0.4051
    4DC     O2P   96   3.540   3.201   4.149  0.4640  0.6878 -0.0185
    4DC     O5'   97   3.774   3.143   4.069 -0.3435  0.1294 -0.3896
    4DC     C5'   98   3.863   3.038   4.039  0.3803  0.2778  1.1123
    4DC    H5'1   99   3.829   2.985   3.949  0.3074 -0.6378  1.6628
    4DC    H5'2  100   3.874   2.968   4.122 -0.5031 -0.2762  0.7900
    4DC     C4'  101   4.003   3.086   4.002  0.1832 -0.0521 -0.1156
    4DC     H4'  102   4.066   3.002   3.974  0.6590  0.7641 -1.6047
    4DC     O4'  103   4.013   3.175   3.893  0.4331  0.1879  0.1009
    4DC     C1'  104   4.102   3.282   3.916  0.1979  0.3383  0.3202
    4DC     H1'  105   4.183   3.270   3.844  1.3073  1.1483  1.4111
    4DC      N1  106   4.043   3.416   3.906  0.0236  0.2813  0.5667
    4DC      C6  107   3.924   3.452   3.962  0.1768  0.3160  0.8674
    4DC      H6  108   3.867   3.371   4.004  0.9073 -1.6088 -1.5979
    4DC      C5  109   3.879   3.578   3.943 -0.0816  0.1117  0.0888
    4DC      H5  110   3.778   3.606   3.967 -0.2885  0.0728 -0.7251
    4DC      C4  111   3.969   3.675   3.886 -0.1783  0.5949  0.7405
    4DC      N4  112   3.942   3.806   3.876 -0.6285  0.4393 -0.2048
    4DC     H41  113   3.845   3.830   3.894 -0.8975 -0.5627 -0.2361
    4DC     H42  114   4.013   3.868   3.842 -2.2764  1.2573 -2.4294
    4DC      N3  115   4.095   3.641   3.860 -0.4852 -0.1754  0.2079
    4DC      C2  116   4.133   3.510   3.860  0.2177  0.0242  0.4192
    4DC      O2  117   4.243   3.479   3.815  0.0850 -0.0946  0.1764
    4DC     C3'  118   4.065   3.162   4.119  0.3075 -0.4877  0.1039
    4DC     H3'  119   3.991   3.223   4.170  0.7175  0.5612 -0.5150
    4DC     C2'  120   4.161   3.262   4.055  0.3254 -0.4690  0.1608
    4DC    H2'1  121   4.159   3.350   4.121 -0.5750  0.1884 -0.7091
    4DC    H2'2  122   4.258   3.213   4.058 -0.2497 -1.6228  0.1303
    4DC     O3'  123   4.134   3.083   4.212  0.2010 -0.5599  0.1218
    5DT       P  124   4.172   3.136   4.359 -0.1852  0.2096 -0.0538
    5DT     O1P  125   4.214   3.016   4.435  0.4793  0.3968 -0.1118
    5DT     O2P  126   4.062   3.218   4.415 -0.2595  0.3469 -0.3961
    5DT     O5'  127   4.301   3.233   4.353  0.0361 -0.0791 -0.0080
    5DT     C5'  128   4.426   3.181   4.316 -0.0278  0.0937 -0.4724
    5DT    H5'1  129   4.411   3.110   4.236 -1.7606 -0.4493  0.2954
    5DT    H5'2  130   4.458   3.119   4.399  1.8295  1.7749  0.1659
    5DT     C4'  131   4.529   3.288   4.277  0.4113 -0.0094  0.3781
    5DT     H4'  132   4.620   3.235   4.249 -0.2344 -0.0740 -1.7124
    5DT     O4'  133   4.474   3.363   4.171  0.4129 -0.1151  0.3031
    5DT     C1'  134   4.522   3.495   4.171  0.0556  0.0155 -0.0607
    5DT     H1'  135   4.590   3.519   4.090  1.6462  0.0808  1.2455
    5DT      N1  136   4.410   3.592   4.169  0.3480  0.3589  0.0934
    5DT      C6  137   4.286   3.564   4.218  0.0585  0.1766 -0.7437
    5DT      H6  138   4.270   3.468   4.265  1.2944  2.1328  4.2621
    5DT      C5  139   4.186   3.654   4.214  0.0299  0.1596 -0.4549
    5DT      C7  140   4.049   3.613   4.264  0.3080 -0.2489 -0.0210
    5DT     H71  141   4.054   3.514   4.310  0.2127  0.0970  0.7493
    5DT     H72  142   4.017   3.690   4.334  1.6886  0.6282 -0.3211
    5DT     H73  143   3.969   3.616   4.190 -1.4331  0.6331  1.8067
    5DT      C4  144   4.207   3.786   4.158  0.0255  0.4119  0.1329
    5DT      O4  145   4.122   3.873   4.143  0.4610  0.7835 -0.2031
    5DT      N3  146   4.336   3.811   4.115 -0.0274 -0.1125 -0.3416
    5DT      H3  147   4.362   3.908   4.101  0.6937 -0.2266  0.1264
    5DT      C2  148   4.441   3.721   4.128  0.2938  0.2733 -0.2214
    5DT      O2  149   4.556   3.758   4.109  0.6366 -0.5512  0.1653
    5DT     C3'  150   4.559   3.391   4.385 -0.3177  0.7483 -0.1265
    5DT     H3'  151   4.472   3.429   4.438 -2.1811 -0.3569 -2.2766
    5DT     C2'  152   4.611   3.502   4.295  0.2827  0.3797 -0.2433
    5DT    H2'1  153   4.598   3.600   4.341  0.8314  0.5124 -0.3690
    5DT    H2'2  154   4.717   3.493   4.272 -0.0441 -0.7083 -1.4421
    5DT     O3'  155   4.667   3.357   4.470 -0.5777 -0.4296 -0.2469
    6DC       P  156   4.673   3.425   4.617  0.2104 -0.2575 -0.3545
    6DC     O1P  157   4.785   3.360   4.688  0.1660 -0.0283 -0.0744
    6DC     O2P  158   4.539   3.425   4.681  0.4005  0.0105  0.0422
    6DC     O5'  159   4.719   3.577   4.590  0.0446 -0.1303  0.0735
    6DC     C5'  160   4.852   3.615   4.566 -0.1466  0.1610 -0.5422
    6DC    H5'1  161   4.886   3.562   4.476  0.6823  2.2829 -1.5524
    6DC    H5'2  162   4.907   3.586   4.655 -1.4186 -0.2068  0.1491
    6DC     C4'  163   4.866   3.766   4.552  0.7692  0.1029 -0.3271
    6DC     H4'  164   4.973   3.788   4.546  1.3923 -2.3008  0.8628
    6DC     O4'  165   4.794   3.817   4.442 -0.3824 -0.6223  0.0803
    6DC     C1'  166   4.740   3.944   4.470  0.2349 -0.2331 -0.4677
    6DC     H1'  167   4.798   4.019   4.417  0.5946 -0.3786 -0.2785
    6DC      N1  168   4.598   3.960   4.432  0.0635 -0.0354  0.2533
    6DC      C6  169   4.511   3.860   4.464  0.0427 -0.0838  0.0477
    6DC      H6  170   4.557   3.767   4.494 -0.2440  0.3344  1.9426
    6DC      C5  171   4.379   3.879   4.449  0.1286  0.2162 -0.3392
    6DC      H5  172   4.304   3.804   4.471  1.7315 -1.1070  0.9169
    6DC      C4  173   4.341   4.002   4.386  0.3255  0.1977 -0.4948
    6DC      N4  174   4.214   4.044   4.390  0.3079  0.1122 -0.1530
    6DC     H41  175   4.142   3.989   4.435  1.0209 -1.7049 -1.1843
    6DC     H42  176   4.190   4.133   4.349 -0.3440  0.1012  0.1851
    6DC      N3  177   4.421   4.107   4.364  0.1491  0.3972 -0.1945
    6DC      C2  178   4.553   4.083   4.386  0.0422 -0.2213 -0.2221
    6DC      O2  179   4.633   4.174   4.368 -0.0679 -0.0682  0.0648
    6DC     C3'  180   4.816   3.835   4.678 -0.1931 -0.4205 -0.4164
    6DC     H3'  181   4.728   3.789   4.724 -0.8812 -0.0777 -1.3543
    6DC     C2'  182   4.761   3.964   4.619 -0.0767 -0.3657 -0.4037
    6DC    H2'1  183   4.672   4.005   4.667 -0.8257 -0.6391 -1.5248
    6DC    H2'2  184   4.835   4.044   4.621 -0.4569  0.0765 -2.4016
    6DC     O3'  185   4.924   3.862   4.765 -0.1758 -0.5636 -0.3935
    7DT       P  186   4.896   3.936   4.904 -0.1052 -0.1622 -0.5900
    7DT     O1P  187   5.017   3.924   4.988 -0.7394 -0.1960  0.3482
    7DT     O2P  188   4.772   3.881   4.965  0.0050  0.1016 -0.1208
    7DT     O5'  189   4.859   4.090   4.876  0.0511  0.0003  0.0654
    7DT     C5'  190   4.956   4.183   4.834 -0.5556  0.3260 -0.6434
    7DT    H5'1  191   5.014   4.148   4.749  0.8720 -1.8635  1.1008
    7DT    H5'2  192   5.023   4.201   4.919 -0.3101  1.1583 -0.9990
    7DT     C4'  193   4.896   4.322   4.809 -0.2614  0.4494 -0.6716
    7DT     H4'  194   4.966   4.401   4.783 -3.0552  2.1544 -3.7222
    7DT     O4'  195   4.798   4.315   4.708 -0.3305  0.4535 -0.6054
    7DT     C1'  196   4.688   4.399   4.734 -0.4020  0.2166 -0.1289
    7DT     H1'  197   4.695   4.487   4.670  0.2914  0.2658  0.0152
    7DT      N1  198   4.558   4.331   4.716 -0.3290  0.1386 -0.3645
    7DT      C6  199   4.538   4.212   4.778  0.1268  0.3056  0.1112
    7DT      H6  200   4.624   4.178   4.834 -1.0502  0.6941  2.2711
    7DT      C5  201   4.423   4.140   4.769  0.2144  0.2108 -0.2686
    7DT      C7  202   4.417   3.997   4.816  0.0212  0.1983 -0.3318
    7DT     H71  203   4.360   4.000   4.909 -0.3729 -0.5325 -0.5467
    7DT     H72  204   4.354   3.937   4.752 -3.0382  2.3300  0.4662
    7DT     H73  205   4.515   3.951   4.831 -0.9189 -1.7534  0.2078
    7DT      C4  206   4.311   4.211   4.711  0.2024  0.1612 -0.3068
    7DT      O4  207   4.200   4.163   4.693  0.2303 -0.0645  0.0876
    7DT      N3  208   4.332   4.338   4.658 -0.3154  0.4677  0.2108
    7DT      H3  209   4.254   4.394   4.627  0.7760  0.6536 -2.4852
    7DT      C2  210   4.456   4.400   4.652 -0.2314  0.2439 -0.4074
    7DT      O2  211   4.462   4.516   4.612  0.1551  0.5427  0.5011
    7DT     C3'  212   4.832   4.369   4.939 -0.1331 -0.0126 -0.4372
    7DT     H3'  213   4.794   4.287   5.000  1.5016 -0.5305 -0.0653
    7DT     C2'  214   4.711   4.441   4.879 -0.4095 -0.1268 -0.0286
    7DT    H2'1  215   4.619   4.427   4.935 -0.3149 -1.4589 -0.1752
    7DT    H2'2  216   4.719   4.549   4.877 -0.8158 -0.1045 -0.8340
    7DT     O3'  217   4.920   4.459   5.003 -0.5341  0.2538 -0.2535
    8DA       P  218   4.885   4.530   5.143 -0.0104  0.1042 -0.0471
    8DA     O1P  219   4.998   4.617   5.184  0.2131  0.1428 -0.7329
    8DA     O2P  220   4.853   4.417   5.233  0.7043  0.0497  0.1468
    8DA     O5'  221   4.753   4.619   5.118 -0.3670 -0.2823  0.4402
    8DA     C5'  222   4.760   4.753   5.075 -0.2723 -0.4848 -0.1811
    8DA    H5'1  223   4.807   4.749   4.976  0.9294 -1.1828  0.3934
    8DA    H5'2  224   4.810   4.815   5.149  1.6499 -1.6883 -0.3830
    8DA     C4'  225   4.616   4.800   5.062  0.0882  0.6559 -0.1775
    8DA     H4'  226   4.607   4.901   5.023  0.4512  0.3703 -1.0265
    8DA     O4'  227   4.536   4.727   4.972  0.4486  0.3957 -0.2894
    8DA     C1'  228   4.401   4.740   5.012  0.6127  0.3534  0.2864
    8DA     H1'  229   4.357   4.811   4.942 -0.7074 -0.7610 -0.0499
    8DA      N9  230   4.325   4.616   4.990  0.1594  0.7045 -0.1402
    8DA      C8  231   4.363   4.492   5.033 -0.4170  0.6025  0.0876
    8DA      H8  232   4.457   4.462   5.078 -0.6853  1.2358  1.0894
    8DA      N7  233   4.276   4.398   5.008  0.4964 -0.2430 -0.0308
    8DA      C5  234   4.169   4.474   4.960  0.1158 -0.3376  0.6639
    8DA      C6  235   4.039   4.443   4.916  0.0826  0.0651  0.4775
    8DA      N6  236   3.996   4.317   4.903  0.3287 -0.0552  0.8163
    8DA     H61  237   4.062   4.240   4.913 -0.4496 -0.9274 -0.4117
    8DA     H62  238   3.903   4.295   4.871  0.5991  1.5616 -1.3247
    8DA      N1  239   3.949   4.536   4.882  0.1653  0.0476  0.2071
    8DA      C2  240   3.986   4.663   4.891  0.0498  0.0842  0.1696
    8DA      H2  241   3.908   4.736   4.878 -1.7114 -0.9986  3.4577
    8DA      N3  242   4.108   4.708   4.916  0.1510 -0.2910  0.3538
    8DA      C4  243   4.194   4.608   4.950  0.1749 -0.3970 -0.0092
    8DA     C3'  244   4.539   4.805   5.195 -0.5800  0.0328 -0.5329
    8DA     H3'  245   4.563   4.727   5.267 -1.0811  1.0739  0.7925
    8DA     C2'  246   4.392   4.791   5.156 -0.8139  0.5758  0.1378
    8DA    H2'1  247   4.344   4.715   5.218 -0.3389 -1.6337 -2.0201
    8DA    H2'2  248   4.340   4.886   5.159 -3.2141 -0.6721  0.9381
    8DA     O3'  249   4.562   4.928   5.260 -0.0694 -0.3404  0.0076
    9DC       P  250   4.518   4.952   5.413  0.2728  0.3266  0.0055
    9DC     O1P  251   4.551   5.091   5.451 -0.2961  0.5297 -0.2266
    9DC     O2P  252   4.573   4.840   5.494 -0.4925  0.4668  0.7346
    9DC     O5'  253   4.358   4.945   5.429  0.2735 -0.0543 -0.1404
    9DC     C5'  254   4.277   5.055   5.395  0.0739 -0.0494  0.3446
    9DC    H5'1  255   4.312   5.097   5.302  0.6250 -2.2470 -0.5110
    9DC    H5'2  256   4.290   5.133   5.470  0.4153  0.0277  0.2019
    9DC     C4'  257   4.131   5.009   5.391  0.0390  0.1062 -0.1427
    9DC     H4'  258   4.068   5.091   5.357 -0.7783 -0.4752 -0.0464
    9DC     O4'  259   4.115   4.898   5.306 -0.3519 -0.0685  0.1565
    9DC     C1'  260   3.998   4.831   5.346 -0.5872  0.3736  0.2046
    9DC     H1'  261   3.919   4.885   5.292 -0.0167  1.5489  0.5097
    9DC      N1  262   4.004   4.690   5.304  0.4337  0.3441  0.4489
    9DC      C6  263   4.108   4.612   5.347 -0.0377 -0.3973  0.2651
    9DC      H6  264   4.186   4.641   5.416 -0.9440  1.6126  0.5081
    9DC      C5  265   4.108   4.483   5.309 -0.1933 -0.1294 -0.6669
    9DC      H5  266   4.188   4.427   5.355 -1.9570 -0.5951  2.0771
    9DC      C4  267   3.997   4.426   5.238 -0.5056 -0.4957  0.0993
    9DC      N4  268   3.988   4.296   5.206  0.0453 -0.7155  0.8168
    9DC     H41  269   4.055   4.237   5.252 -0.4306 -1.4630  0.5611
    9DC     H42  270   3.898   4.265   5.172  0.0523  0.7818 -0.6749
    9DC      N3  271   3.893   4.504   5.205  0.1408  0.3142 -0.0450
    9DC      C2  272   3.896   4.637   5.236  0.4918  0.1843  0.4821
    9DC      O2  273   3.801   4.705   5.201  0.3522 -0.3154 -0.1338
    9DC     C3'  274   4.072   4.973   5.527 -0.3377  0.2510 -0.2649
    9DC     H3'  275   4.157   4.940   5.587 -0.4525 -2.2032 -1.3132
    9DC     C2'  276   3.987   4.850   5.497 -0.0466 -0.0939  0.3025
    9DC    H2'1  277   4.035   4.769   5.552  1.3722 -0.1808 -1.0091
    9DC    H2'2  278   3.884   4.873   5.524 -0.1658 -0.3864  0.1053
    9DC     O3'  279   3.999   5.081   5.578 -0.0356  0.2155  0.2517
   10DG       P  280   3.947   5.089   5.730 -0.1330 -0.2754  0.2435
   10DG     O1P  281   3.912   5.225   5.776  0.0498 -0.3233  0.5283
   10DG     O2P  282   4.040   5.013   5.817 -0.0820  0.3247  0.7247
   10DG     O5'  283   3.806   5.012   5.729 -0.4262  0.2621  0.1274
   10DG     C5'  284   3.691   5.070   5.671 -0.1624 -0.1872 -0.8587
   10DG    H5'1  285   3.705   5.119   5.574  0.4986  1.0749 -0.1587
   10DG    H5'2  286   3.657   5.147   5.741  0.4978  1.0094 -1.8056
   10DG     C4'  287   3.572   4.976   5.659 -0.4661  0.0547  0.1522
   10DG     H4'  288   3.483   5.037   5.648 -0.9523 -0.7217 -0.3508
   10DG     O4'  289   3.587   4.895   5.544  0.7114 -0.0091  0.3386
   10DG     C1'  290   3.513   4.778   5.573  0.8204 -0.1688 -0.0241
   10DG     H1'  291   3.434   4.767   5.499 -1.5035  3.5009  1.6584
   10DG      N9  292   3.604   4.662   5.560  0.2700 -0.5786 -0.2180
   10DG      C8  293   3.737   4.649   5.588  0.1264 -0.2282  0.6872
   10DG      H8  294   3.803   4.725   5.626 -0.6768  0.7021  0.2660
   10DG      N7  295   3.779   4.530   5.552  0.1234  0.0344 -0.2299
   10DG      C5  296   3.667   4.457   5.513  0.1681  0.0492 -0.3825
   10DG      C6  297   3.656   4.321   5.475  0.2641 -0.0696  0.0139
   10DG      O6  298   3.737   4.229   5.469  0.4629  0.1040  0.0578
   10DG      N1  299   3.525   4.285   5.446  0.2091  0.4431 -0.3843
   10DG      H1  300   3.509   4.187   5.427  0.1151  0.4087 -0.1345
   10DG      C2  301   3.418   4.370   5.470  0.1505  0.3908 -0.4583
   10DG      N2  302   3.294   4.322   5.461  0.1209  0.4146 -0.1801
   10DG     H21  303   3.274   4.230   5.426 -0.2016  0.7393 -0.8597
   10DG     H22  304   3.218   4.386   5.483  1.8941  1.7022  2.9289
   10DG      N3  305   3.430   4.500   5.501 -0.3645  0.3017  0.1205
   10DG      C4  306   3.558   4.540   5.514 -0.0937 -0.2863 -0.6436
   10DG     C3'  307   3.544   4.889   5.781  0.0289 -0.2700  0.0371
   10DG     H3'  308   3.630   4.831   5.815 -0.4192 -0.5058  0.7910
   10DG     C2'  309   3.450   4.790   5.712  0.1393 -0.1152 -0.3374
   10DG    H2'1  310   3.443   4.703   5.777 -0.5174  0.5286  0.4627
   10DG    H2'2  311   3.350   4.831   5.698  0.0816 -0.4942 -1.1193
   10DG     O3'  312   3.469   4.956   5.880 -0.1397 -0.0469 -0.2397
   11DG       P  313   3.448   4.898   6.028 -0.1721  0.0776 -0.1962
   11DG     O1P  314   3.371   4.999   6.105 -0.2071  0.2183 -0.4172
   11DG     O2P  315   3.587   4.866   6.069 -0.2487  0.1169  0.1027
   11DG     O5'  316   3.363   4.762   6.024  0.0021 -0.0274 -0.3101
   11DG     C5'  317   3.226   4.761   5.991 -0.1357 -0.5233  0.2568
   11DG    H5'1  318   3.222   4.805   5.891  1.7132  0.8711  0.7253
   11DG    H5'2  319   3.172   4.821   6.063  0.0293 -1.8635  1.5523
   11DG     C4'  320   3.168   4.624   5.958 -0.5196 -0.2913 -0.0397
   11DG     H4'  321   3.062   4.635   5.936 -0.1767  1.7042 -0.9353
   11DG     O4'  322   3.228   4.561   5.846 -0.4750  0.0416 -0.2036
   11DG     C1'  323   3.229   4.421   5.859 -0.4372  0.0630  0.0333
   11DG     H1'  324   3.149   4.378   5.798  0.5394 -1.9698  0.0819
   11DG      N9  325   3.365   4.368   5.834 -0.4314  0.1551 -0.1275
   11DG      C8  326   3.485   4.432   5.853 -0.2970 -0.1364  0.0033
   11DG      H8  327   3.496   4.528   5.899 -1.2834  0.3978 -0.8155
   11DG      N7  328   3.586   4.357   5.818 -0.1021 -0.0668  0.4235
   11DG      C5  329   3.528   4.243   5.764 -0.1202 -0.0363  0.3797
   11DG      C6  330   3.586   4.118   5.733  0.1623  0.0867  0.4181
   11DG      O6  331   3.704   4.082   5.730 -0.1752 -1.0100 -0.1428
   11DG      N1  332   3.492   4.019   5.711  0.1383  0.2404 -0.1856
   11DG      H1  333   3.534   3.930   5.689  1.1210  0.1840  1.7175
   11DG      C2  334   3.356   4.042   5.715  0.1130  0.0984 -0.2335
   11DG      N2  335   3.284   3.929   5.699  0.2542 -0.0145 -0.0671
   11DG     H21  336   3.327   3.838   5.692 -0.3064 -0.2603 -0.3020
   11DG     H22  337   3.185   3.935   5.713 -0.0027  0.2040 -1.7844
   11DG      N3  338   3.295   4.156   5.749 -0.0101  0.0093 -0.1571
   11DG      C4  339   3.391   4.248   5.772 -0.1263  0.0372  0.2256
   11DG     C3'  340   3.181   4.523   6.072 -0.0669 -0.5003 -0.2738
   11DG     H3'  341   3.281   4.528   6.115  0.3052 -0.1311 -1.1393
   11DG     C2'  342   3.179   4.388   5.999 -0.6233 -0.5486 -0.1725
   11DG    H2'1  343   3.249   4.325   6.054  0.0544  0.7127  0.4546
   11DG    H2'2  344   3.082   4.339   5.991  0.6028 -2.8291 -2.1527
   11DG     O3'  345   3.077   4.529   6.166  0.1748 -0.2390 -0.0236
   12DA       P  346   3.084   4.445   6.304  0.3880 -0.3753 -0.1168
   12DA     O1P  347   2.955   4.484   6.366  0.2247 -0.1804 -0.5709
   12DA     O2P  348   3.209   4.486   6.372 -0.0744 -0.4358  0.7884
   12DA     O5'  349   3.083   4.287   6.275  0.1411 -0.3445 -0.2791
   12DA     C5'  350   2.966   4.213   6.246 -0.2993  0.3068 -0.1738
   12DA    H5'1  351   2.916   4.254   6.158 -1.1305 -1.6216 -0.6336
   12DA    H5'2  352   2.907   4.214   6.338  0.0035 -0.9506  0.0464
   12DA     C4'  353   3.002   4.067   6.221  0.3502  0.4053  0.1721
   12DA     H4'  354   2.905   4.025   6.194  0.3568  0.1007  0.6039
   12DA     O4'  355   3.085   4.062   6.107  0.0128  0.4190 -0.0753
   12DA     C1'  356   3.166   3.947   6.121 -0.2154  0.1928 -0.6002
   12DA     H1'  357   3.142   3.888   6.032  1.7256 -1.1456 -0.2988
   12DA      N9  358   3.308   3.985   6.120 -0.1144 -0.1495  0.2876
   12DA      C8  359   3.377   4.102   6.139  0.3579 -0.3751 -0.0027
   12DA      H8  360   3.332   4.190   6.184  0.7964  1.3137 -2.6101
   12DA      N7  361   3.502   4.103   6.103  0.1795 -0.0660 -0.6339
   12DA      C5  362   3.517   3.973   6.056  0.0246  0.0254 -0.9376
   12DA      C6  363   3.632   3.900   6.023  0.1526  0.1187 -0.7048
   12DA      N6  364   3.753   3.952   6.000  0.4379  0.0601  0.6014
   12DA     H61  365   3.764   4.052   6.002  1.0297  0.1642 -2.3413
   12DA     H62  366   3.819   3.895   5.947  1.6168  1.1433  0.8557
   12DA      N1  367   3.621   3.770   5.989  0.3457 -0.1788  0.3465
   12DA      C2  368   3.505   3.710   6.008  0.0283  0.0706 -0.7394
   12DA      H2  369   3.503   3.603   5.993  1.8026 -0.2083  0.7132
   12DA      N3  370   3.397   3.763   6.062  0.1073  0.2905 -0.7969
   12DA      C4  371   3.405   3.897   6.077 -0.0018  0.2428 -0.2606
   12DA     C3'  372   3.075   3.984   6.326 -0.3697 -0.3738  0.0681
   12DA     H3'  373   3.153   4.047   6.368 -2.4005  0.9257  2.0756
   12DA     C2'  374   3.132   3.867   6.246 -0.2526  0.1546 -0.6342
   12DA    H2'1  375   3.227   3.842   6.293  0.0926 -1.2470 -1.9866
   12DA    H2'2  376   3.069   3.785   6.211  0.3426 -1.1764  1.2246
   12DA     O3'  377   2.995   3.926   6.426 -0.3629 -0.5642 -0.0359
   13DA       P  378   3.066   3.884   6.565 -0.0623 -0.0727 -0.0377
   13DA     O1P  379   2.956   3.869   6.663 -0.2723  0.2524 -0.2216
   13DA     O2P  380   3.169   3.982   6.605 -0.4882  0.4442 -0.1933
   13DA     O5'  381   3.134   3.739   6.544 -0.3966 -0.1702 -0.4818
   13DA     C5'  382   3.058   3.626   6.511 -0.6132  0.1006 -0.9187
   13DA    H5'1  383   3.000   3.655   6.423  0.4099 -0.7808 -1.9254
   13DA    H5'2  384   2.984   3.609   6.589 -0.5936  1.7588 -0.5150
   13DA     C4'  385   3.156   3.518   6.465  0.0444  0.2897  0.0230
   13DA     H4'  386   3.096   3.429   6.446 -1.8973  1.3217  1.0617
   13DA     O4'  387   3.235   3.566   6.359  0.9650  0.5518  0.8085
   13DA     C1'  388   3.361   3.502   6.362  0.6552 -0.1458 -0.3232
   13DA     H1'  389   3.376   3.442   6.273 -0.2620 -1.1172  0.1544
   13DA      N9  390   3.472   3.599   6.370  0.2617  0.2795  0.1098
   13DA      C8  391   3.466   3.733   6.398  0.0314  0.3245 -0.1580
   13DA      H8  392   3.374   3.776   6.435  0.2929  0.1649  0.6879
   13DA      N7  393   3.567   3.802   6.355  0.2586  0.2228  0.2155
   13DA      C5  394   3.655   3.702   6.315  0.0122 -0.1390  0.5764
   13DA      C6  395   3.786   3.702   6.264 -0.1531  0.1873  0.1490
   13DA      N6  396   3.861   3.811   6.243  0.4977 -0.4251 -0.7406
   13DA     H61  397   3.825   3.905   6.241  1.6049  0.0162 -0.8220
   13DA     H62  398   3.959   3.789   6.228  0.7856 -1.8327  2.4687
   13DA      N1  399   3.845   3.588   6.225 -0.5530  0.0280  0.0018
   13DA      C2  400   3.769   3.480   6.233 -0.3694 -0.1177 -0.2301
   13DA      H2  401   3.818   3.393   6.193  0.6341 -0.0592  0.8143
   13DA      N3  402   3.650   3.457   6.285 -0.5031 -0.3167 -0.6207
   13DA      C4  403   3.598   3.577   6.319  0.0407 -0.1852 -0.2509
   13DA     C3'  404   3.264   3.479   6.566 -0.2528  0.4909  0.4190
   13DA     H3'  405   3.315   3.566   6.607 -1.0374  1.1402  0.0541
   13DA     C2'  406   3.364   3.404   6.479 -0.7458  0.2492  0.0614
   13DA    H2'1  407   3.464   3.396   6.520 -0.6909  1.9282  0.3283
   13DA    H2'2  408   3.328   3.305   6.448 -2.6190  0.7400  0.5338
   13DA     O3'  409   3.216   3.396   6.670 -0.3795  0.6072  0.4538
   14DG       P  410   3.286   3.391   6.814  0.1370 -0.0776  0.1840
   14DG     O1P  411   3.207   3.294   6.893 -0.4319  0.2545  0.0271
   14DG     O2P  412   3.296   3.531   6.863 -0.3570 -0.0741  0.2798
   14DG     O5'  413   3.433   3.333   6.785  0.1315 -0.4347  0.8436
   14DG     C5'  414   3.445   3.194   6.761 -0.3940 -0.3640  0.1317
   14DG    H5'1  415   3.376   3.168   6.681 -0.6892 -0.6502  0.4766
   14DG    H5'2  416   3.399   3.136   6.841 -0.6592 -0.7854 -0.3201
   14DG     C4'  417   3.587   3.149   6.729 -0.1927  0.3414  0.0201
   14DG     H4'  418   3.592   3.042   6.711 -0.5260  0.5616 -1.5139
   14DG     O4'  419   3.620   3.214   6.608 -0.2447 -0.4056 -0.4065
   14DG     C1'  420   3.759   3.240   6.611 -0.2844 -0.2200 -0.0773
   14DG     H1'  421   3.798   3.202   6.517  1.0679  1.9871 -0.4698
   14DG      N9  422   3.789   3.384   6.615 -0.1574 -0.2409 -0.2642
   14DG      C8  423   3.704   3.488   6.643  0.1094  0.0996 -0.7220
   14DG      H8  424   3.604   3.474   6.680 -0.0736  0.8350 -0.9255
   14DG      N7  425   3.756   3.606   6.620  0.1824  0.3017  0.4121
   14DG      C5  426   3.888   3.578   6.583 -0.0304  0.2109 -0.3014
   14DG      C6  427   4.000   3.659   6.549  0.5582 -0.0834  0.8966
   14DG      O6  428   4.011   3.781   6.547  0.6126 -0.1031 -0.2249
   14DG      N1  429   4.112   3.591   6.503  0.4447  0.0344  0.4492
   14DG      H1  430   4.197   3.643   6.491  0.4822 -0.1871 -0.3002
   14DG      C2  431   4.117   3.453   6.506 -0.1229 -0.0044 -0.1497
   14DG      N2  432   4.242   3.404   6.505 -0.1465 -0.0632 -0.1501
   14DG     H21  433   4.318   3.469   6.499 -2.1919  2.3999 -1.1239
   14DG     H22  434   4.249   3.304   6.520 -0.7280 -0.3766 -1.7856
   14DG      N3  435   4.017   3.372   6.544 -0.1263  0.2018  0.2818
   14DG      C4  436   3.909   3.443   6.583 -0.3598  0.1601 -0.2869
   14DG     C3'  437   3.695   3.180   6.832 -0.2271  0.4301  0.0295
   14DG     H3'  438   3.667   3.279   6.868 -1.2490  0.1555  0.0205
   14DG     C2'  439   3.810   3.163   6.734 -0.1325  0.2673  0.1663
   14DG    H2'1  440   3.905   3.205   6.765 -0.4346  2.7333 -1.8518
   14DG    H2'2  441   3.823   3.062   6.695 -0.8857  0.5892 -1.0128
   14DG     O3'  442   3.708   3.089   6.939 -0.2611  0.7212  0.2830
   15DG       P  443   3.784   3.122   7.078  0.2560  0.4583  0.0644
   15DG     O1P  444   3.782   2.996   7.156  0.1158  0.1312 -0.4549
   15DG     O2P  445   3.726   3.247   7.129 -0.1592  0.1776  0.2851
   15DG     O5'  446   3.940   3.142   7.045  0.2143  0.3616 -0.2004
   15DG     C5'  447   4.023   3.036   7.002 -0.4202 -0.0460 -0.4303
   15DG    H5'1  448   3.990   2.993   6.907 -0.1168 -0.2012 -0.4657
   15DG    H5'2  449   4.027   2.950   7.069 -0.1763  1.2029  1.2211
   15DG     C4'  450   4.165   3.079   6.967 -0.4497  0.1773 -0.2788
   15DG     H4'  451   4.227   2.999   6.926  0.0950  1.7990 -2.8695
   15DG     O4'  452   4.152   3.171   6.861  0.0166  0.0464 -0.4520
   15DG     C1'  453   4.263   3.258   6.858 -0.1889  0.3396  0.3930
   15DG     H1'  454   4.329   3.231   6.776  0.4284 -2.9428  1.8021
   15DG      N9  455   4.211   3.395   6.841 -0.1776  0.3241  0.2326
   15DG      C8  456   4.085   3.442   6.869 -0.1128  0.6226  0.0321
   15DG      H8  457   4.001   3.377   6.890 -1.0727  1.7049 -0.3666
   15DG      N7  458   4.064   3.570   6.860 -0.3566  0.6202  0.5263
   15DG      C5  459   4.193   3.615   6.833 -0.1176 -0.4013 -0.1154
   15DG      C6  460   4.246   3.743   6.804 -0.1496 -0.2248  0.5730
   15DG      O6  461   4.191   3.853   6.792 -0.0351 -0.2021  0.2406
   15DG      N1  462   4.382   3.750   6.777 -0.3817  0.3935 -0.5323
   15DG      H1  463   4.431   3.838   6.775  2.9624 -1.2941 -0.5466
   15DG      C2  464   4.462   3.637   6.775 -0.3019  0.4551 -0.8702
   15DG      N2  465   4.593   3.643   6.746 -0.0566  0.2320  0.1577
   15DG     H21  466   4.631   3.735   6.730  1.3004 -0.4860 -0.8481
   15DG     H22  467   4.645   3.562   6.717 -0.4736 -0.2075  0.5923
   15DG      N3  468   4.413   3.514   6.795  0.2033  0.4307  0.2965
   15DG      C4  469   4.283   3.512   6.833  0.3997  0.0301  0.9679
   15DG     C3'  470   4.251   3.148   7.073  0.2299 -0.0655 -0.6655
   15DG     H3'  471   4.174   3.208   7.122 -0.2836 -0.6107 -0.7912
   15DG     C2'  472   4.342   3.236   6.987  0.4082  0.4577  0.0493
   15DG    H2'1  473   4.365   3.328   7.040  0.3411  1.0931 -0.9906
   15DG    H2'2  474   4.429   3.174   6.964 -0.3759 -0.3899 -0.7189
   15DG     O3'  475   4.311   3.064   7.168 -0.2422  0.0002 -0.3069
   16DG       P  476   4.366   3.127   7.306 -0.0413 -0.2388 -0.2763
   16DG     O1P  477   4.411   3.012   7.388  0.4469  0.2118  0.0948
   16DG     O2P  478   4.256   3.210   7.362  0.0735 -0.3599  0.1329
   16DG     O5'  479   4.494   3.223   7.295  0.1531 -0.3854  0.6272
   16DG     C5'  480   4.619   3.172   7.255 -0.0049 -0.1161 -0.2355
   16DG    H5'1  481   4.614   3.109   7.166  1.1088 -1.9134  0.8889
   16DG    H5'2  482   4.648   3.116   7.344  0.6008 -0.4750 -0.6475
   16DG     C4'  483   4.710   3.289   7.220 -0.4670  0.2512 -0.2098
   16DG     H4'  484   4.806   3.262   7.178 -1.0828  1.8343 -2.8917
   16DG     O4'  485   4.652   3.360   7.113  0.1918  0.4244 -0.4553
   16DG     C1'  486   4.692   3.495   7.115  0.3482  0.3722  0.0234
   16DG     H1'  487   4.745   3.528   7.026  1.9705 -1.2580  0.3356
   16DG      N9  488   4.578   3.587   7.131 -0.0745 -0.1447 -0.0169
   16DG      C8  489   4.451   3.559   7.176  0.1025 -0.0059  0.5767
   16DG      H8  490   4.418   3.463   7.212  0.2586  0.2189  1.3228
   16DG      N7  491   4.367   3.656   7.158  0.0880 -0.1055  0.0730
   16DG      C5  492   4.450   3.756   7.109  0.0711 -0.1364 -0.0183
   16DG      C6  493   4.423   3.893   7.083 -0.3102 -0.0881  0.6082
   16DG      O6  494   4.322   3.962   7.094  0.0259  0.5503 -0.2701
   16DG      N1  495   4.528   3.968   7.032 -0.3624 -0.4421 -0.0292
   16DG      H1  496   4.510   4.066   7.014 -0.6731  0.1083  2.8658
   16DG      C2  497   4.658   3.924   7.024 -0.2320 -0.0653 -0.0186
   16DG      N2  498   4.759   4.009   7.003 -0.5399  0.4321  0.5094
   16DG     H21  499   4.744   4.109   6.992 -0.8980  0.2832 -0.5338
   16DG     H22  500   4.850   3.971   6.984 -0.4257  1.4612 -1.2393
   16DG      N3  501   4.686   3.797   7.057 -0.0004  0.0568  0.2591
   16DG      C4  502   4.582   3.721   7.098  0.1256 -0.0570  0.3650
   16DG     C3'  503   4.733   3.393   7.329  0.1370  0.1607 -0.2495
   16DG     H3'  504   4.637   3.418   7.373  0.5590  0.8077  0.3299
   16DG     C2'  505   4.782   3.506   7.239  0.2478  0.3911  0.0947
   16DG    H2'1  506   4.776   3.604   7.286 -0.9526  0.8797 -1.0020
   16DG    H2'2  507   4.884   3.482   7.212 -0.7415 -3.4472 -0.8018
   16DG     O3'  508   4.828   3.356   7.426 -0.0339 -0.3212 -0.2663
   17DC       P  509   4.827   3.419   7.574  0.3764 -0.2572 -0.2875
   17DC     O1P  510   4.926   3.345   7.656  0.4794  0.5631  0.3465
   17DC     O2P  511   4.686   3.418   7.620  0.3963  0.5312 -0.1955
   17DC     O5'  512   4.873   3.573   7.565  0.2390 -0.1752  0.3563
   17DC     C5'  513   5.003   3.611   7.529  0.1955 -0.3650 -0.0018
   17DC    H5'1  514   5.047   3.562   7.442  0.2741 -0.5264  0.1287
   17DC    H5'2  515   5.073   3.612   7.613 -1.0073  1.6998  1.0472
   17DC     C4'  516   5.016   3.758   7.488  0.1274 -0.3737 -0.0545
   17DC     H4'  517   5.121   3.775   7.465 -0.0022  0.1545 -0.2519
   17DC     O4'  518   4.928   3.802   7.387 -0.5878 -0.2579  0.6072
   17DC     C1'  519   4.883   3.935   7.403  0.2554  0.1526 -0.3202
   17DC     H1'  520   4.924   3.994   7.321  1.4175 -0.3411 -0.1114
   17DC      N1  521   4.737   3.951   7.406  0.2411 -0.0339  0.2335
   17DC      C6  522   4.657   3.845   7.438 -0.3813  0.4523  0.3090
   17DC      H6  523   4.704   3.752   7.463 -0.0063  1.0037  1.7520
   17DC      C5  524   4.522   3.857   7.433 -0.4099  0.0302  0.0054
   17DC      H5  525   4.457   3.776   7.460 -1.0378  0.4893 -0.1167
   17DC      C4  526   4.470   3.987   7.403 -0.0295  0.1505 -0.1433
   17DC      N4  527   4.338   4.007   7.398  0.0492  0.6813 -0.1546
   17DC     H41  528   4.284   3.922   7.395 -0.0639  0.7675 -0.5554
   17DC     H42  529   4.297   4.097   7.377  0.8244  0.5049 -2.6069
   17DC      N3  530   4.551   4.087   7.367 -0.0526  0.2616  0.1134
   17DC      C2  531   4.686   4.074   7.366 -0.0987 -0.2036  0.1416
   17DC      O2  532   4.757   4.166   7.327 -0.1139 -0.2211  0.0726
   17DC     C3'  533   4.990   3.856   7.602  0.5805  0.0658 -0.3302
   17DC     H3'  534   4.910   3.812   7.661 -0.0692  1.2686 -0.2912
   17DC     C2'  535   4.947   3.985   7.533 -0.3199 -0.0356  0.0366
   17DC    H2'1  536   4.879   4.047   7.591  0.0544  0.8938 -0.4991
   17DC    H2'2  537   5.034   4.044   7.506 -0.5363 -0.0433 -0.6919
   17DC     O3'  538   5.104   3.878   7.682  0.2091  0.4106  0.1111
   18DA       P  539   5.091   3.938   7.831 -0.1312 -0.1533  0.3135
   18DA     O1P  540   5.225   3.960   7.891  0.0907  0.5572 -0.4183
   18DA     O2P  541   4.997   3.848   7.900 -0.5035 -0.0664 -0.0804
   18DA     O5'  542   5.013   4.078   7.823  0.2375  0.0701  0.5616
   18DA     C5'  543   5.074   4.198   7.780  0.0147 -0.2449 -0.6819
   18DA    H5'1  544   5.126   4.182   7.686  0.7422 -1.5749 -0.0739
   18DA    H5'2  545   5.152   4.220   7.853  0.4584  4.0677 -2.2089
   18DA     C4'  546   4.992   4.326   7.764  0.2966  0.0548  0.1901
   18DA     H4'  547   5.063   4.403   7.733  0.2500 -0.3635 -1.0272
   18DA     O4'  548   4.892   4.310   7.666  0.0223  0.1037  0.4604
   18DA     C1'  549   4.788   4.402   7.687 -0.1088  0.0819 -0.0749
   18DA     H1'  550   4.797   4.482   7.613  1.4073 -0.2416 -0.2824
   18DA      N9  551   4.662   4.325   7.680 -0.0268  0.0007 -0.7243
   18DA      C8  552   4.638   4.191   7.693  0.4912 -0.0219  0.0739
   18DA      H8  553   4.718   4.122   7.718 -1.5019 -2.3390  0.4127
   18DA      N7  554   4.513   4.157   7.680  0.4238  0.0446  0.5629
   18DA      C5  555   4.450   4.278   7.655  0.1841  0.0194  1.0294
   18DA      C6  556   4.319   4.316   7.622  0.3368  0.0180  0.4165
   18DA      N6  557   4.211   4.238   7.611  0.4553 -0.1918  0.7261
   18DA     H61  558   4.220   4.140   7.630 -0.8005 -0.6154 -0.6637
   18DA     H62  559   4.128   4.293   7.594 -0.5450 -1.1262  2.3822
   18DA      N1  560   4.287   4.444   7.596  0.3659  0.0274  0.4279
   18DA      C2  561   4.383   4.534   7.606  0.2720  0.1948 -0.1739
   18DA      H2  562   4.363   4.635   7.572  1.5390  0.5437  0.0510
   18DA      N3  563   4.512   4.512   7.629  0.2975  0.2995 -0.2154
   18DA      C4  564   4.540   4.381   7.649 -0.1428  0.2597  0.1625
   18DA     C3'  565   4.921   4.364   7.893  0.5768  0.5894  0.1914
   18DA     H3'  566   4.881   4.273   7.939  2.4881  0.9624  2.8361
   18DA     C2'  567   4.809   4.446   7.831 -0.0925 -0.3931  0.0708
   18DA    H2'1  568   4.714   4.431   7.884 -0.8950  2.4501 -0.4009
   18DA    H2'2  569   4.839   4.551   7.835 -0.1732 -0.3848  0.5362
   18DA     O3'  570   5.008   4.438   7.976  0.7162  0.3652  0.2461
   19DT       P  571   4.960   4.462   8.128 -0.0043 -0.0212  0.0841
   19DT     O1P  572   5.075   4.504   8.210 -0.0136  0.1391  0.0180
   19DT     O2P  573   4.894   4.337   8.171 -0.2315 -0.0582 -0.3612
   19DT     O5'  574   4.843   4.573   8.133 -0.1437 -0.1967  0.8031
   19DT     C5'  575   4.858   4.709   8.098 -0.0765 -0.5436 -0.5729
   19DT    H5'1  576   4.926   4.723   8.014  2.0471 -0.1357  1.1165
   19DT    H5'2  577   4.913   4.770   8.170  0.0433 -1.7458  0.3820
   19DT     C4'  578   4.722   4.774   8.075 -0.2084 -0.6076  0.0084
   19DT     H4'  579   4.736   4.881   8.056  0.6353 -0.6118  0.5262
   19DT     O4'  580   4.653   4.718   7.966 -0.1201  0.1499 -0.4525
   19DT     C1'  581   4.515   4.746   7.981 -0.1087 -0.1182  0.1920
   19DT     H1'  582   4.480   4.808   7.899 -0.3758  0.7259  0.9275
   19DT      N1  583   4.444   4.617   7.991 -0.1010 -0.1521 -0.1760
   19DT      C6  584   4.500   4.501   8.037 -0.1823 -0.0885  0.0893
   19DT      H6  585   4.599   4.507   8.081 -0.8140  0.5664  1.4769
   19DT      C5  586   4.439   4.383   8.014  0.0193 -0.1261 -0.2764
   19DT      C7  587   4.515   4.255   8.040  0.1350 -0.0496 -0.2338
   19DT     H71  588   4.618   4.283   8.058 -0.7119  2.7304  0.7960
   19DT     H72  589   4.479   4.203   8.129  0.0110  0.3640 -0.0385
   19DT     H73  590   4.522   4.188   7.954  2.3501  0.1874 -0.2800
   19DT      C4  591   4.303   4.372   7.967 -0.1945 -0.0988  0.3247
   19DT      O4  592   4.232   4.271   7.961 -0.0786 -0.1200 -0.8247
   19DT      N3  593   4.247   4.496   7.943  0.3641 -0.0252 -0.6668
   19DT      H3  594   4.148   4.508   7.926  0.4048 -1.3690 -2.0552
   19DT      C2  595   4.312   4.618   7.949 -0.2211  0.2589  0.2036
   19DT      O2  596   4.252   4.724   7.933  0.2198  0.4804 -0.0147
   19DT     C3'  597   4.628   4.773   8.195  0.0080 -0.7321  0.1775
   19DT     H3'  598   4.635   4.677   8.246 -1.0391  0.2415  2.2918
   19DT     C2'  599   4.499   4.808   8.120  0.1665 -0.0771  0.2057
   19DT    H2'1  600   4.417   4.760   8.174 -0.4994 -0.9295 -1.4781
   19DT    H2'2  601   4.481   4.915   8.113  0.7026  0.1840  2.3227
   19DT     O3'  602   4.656   4.877   8.285 -0.8036  0.1735 -0.5941
   20DC       P  603   4.588   4.891   8.430 -0.2217 -0.4426 -0.2563
   20DC     O1P  604   4.635   5.016   8.495  0.5856 -0.6609 -0.4136
   20DC     O2P  605   4.599   4.760   8.499  0.3345 -0.1011  0.3128
   20DC     O5'  606   4.431   4.912   8.402 -0.2735 -0.3133  0.1268
   20DC     C5'  607   4.374   5.037   8.371  0.0619 -0.0238  0.6606
   20DC    H5'1  608   4.418   5.076   8.279  0.4408 -1.3399  0.2600
   20DC    H5'2  609   4.378   5.100   8.460  0.9470  0.5060  0.2586
   20DC     C4'  610   4.225   5.031   8.339  0.1454  0.1846  0.2171
   20DC     H4'  611   4.185   5.125   8.302  1.6747  0.3518 -1.1209
   20DC     O4'  612   4.201   4.935   8.239 -0.1664  0.6860 -0.1933
   20DC     C1'  613   4.076   4.874   8.263 -0.1312  0.6765 -0.0327
   20DC     H1'  614   4.006   4.900   8.183 -1.4821 -0.4053  0.7468
   20DC      N1  615   4.082   4.727   8.273  0.0925  0.6400 -0.6439
   20DC      C6  616   4.202   4.662   8.286 -0.3799 -0.1029  0.1418
   20DC      H6  617   4.291   4.716   8.314 -0.1695 -0.6560  0.5596
   20DC      C5  618   4.210   4.529   8.267 -0.6934 -0.1569  0.3832
   20DC      H5  619   4.309   4.485   8.273 -0.1965  0.2762 -3.0488
   20DC      C4  620   4.092   4.458   8.227 -0.3375 -0.4960 -0.0850
   20DC      N4  621   4.100   4.327   8.203  0.2273 -0.5568  0.4096
   20DC     H41  622   4.184   4.279   8.231 -0.2081 -0.2661  2.3645
   20DC     H42  623   4.018   4.283   8.164 -0.3538 -1.6595  2.7398
   20DC      N3  624   3.977   4.523   8.202  0.0980  0.2701 -0.1433
   20DC      C2  625   3.972   4.656   8.228  0.0929  0.2527 -0.0517
   20DC      O2  626   3.866   4.714   8.205 -0.3599 -0.6515 -0.3091
   20DC     C3'  627   4.150   4.975   8.460 -0.2353  0.3490  0.0593
   20DC     H3'  628   4.213   4.896   8.502  1.9856  1.4340 -1.0259
   20DC     C2'  629   4.022   4.919   8.398 -0.2457  0.4324  0.0055
   20DC    H2'1  630   3.976   4.839   8.456  0.9997 -1.3527 -1.3623
   20DC    H2'2  631   3.943   4.992   8.383 -0.8319 -0.1967  0.0311
   20DC     O3'  632   4.123   5.068   8.562  0.2737  0.5161  0.0462
   21DT       P  633   4.062   5.021   8.704  0.1157 -0.0650 -0.2103
   21DT     O1P  634   4.026   5.141   8.783 -0.6390 -0.4125 -0.0129
   21DT     O2P  635   4.160   4.925   8.759  0.4746  0.4703  0.0984
   21DT     O5'  636   3.924   4.942   8.679  0.3332 -0.4265 -0.2779
   21DT     C5'  637   3.801   5.004   8.649  0.2436 -0.4404  0.0512
   21DT    H5'1  638   3.808   5.062   8.557 -2.5374  1.4758  0.9111
   21DT    H5'2  639   3.767   5.081   8.719 -2.9651  1.2948 -3.0694
   21DT     C4'  640   3.682   4.910   8.631 -0.2909  0.2285  0.0388
   21DT     H4'  641   3.596   4.974   8.615  1.1507  1.8293 -1.8552
   21DT     O4'  642   3.706   4.834   8.515 -0.2730 -0.1360  0.2811
   21DT     C1'  643   3.641   4.709   8.530  0.0165 -0.2658  0.4523
   21DT     H1'  644   3.582   4.693   8.441  1.4560  0.2008 -0.6261
   21DT      N1  645   3.737   4.598   8.520  0.1246 -0.1063 -0.3396
   21DT      C6  646   3.857   4.614   8.584 -0.1746  0.0605  0.1868
   21DT      H6  647   3.893   4.712   8.612  1.6693 -0.2771 -0.8634
   21DT      C5  648   3.942   4.510   8.582 -0.0787  0.1409  0.1100
   21DT      C7  649   4.083   4.533   8.631  0.2364 -0.9283 -0.2555
   21DT     H71  650   4.091   4.635   8.669 -0.6958 -1.4071  1.3246
   21DT     H72  651   4.107   4.445   8.691  1.6312 -0.0440  0.5366
   21DT     H73  652   4.150   4.537   8.545  1.6657 -0.3739  0.8381
   21DT      C4  653   3.908   4.379   8.530  0.3586  0.1038 -0.0846
   21DT      O4  654   3.983   4.283   8.519  0.0192 -0.1597 -0.0892
   21DT      N3  655   3.781   4.372   8.474  0.2632 -0.3385  0.1920
   21DT      H3  656   3.746   4.281   8.449  2.4052 -0.8941 -1.0385
   21DT      C2  657   3.689   4.476   8.476  0.3549 -0.2504 -0.1915
   21DT      O2  658   3.573   4.454   8.443  0.2400  0.4496 -0.2512
   21DT     C3'  659   3.643   4.815   8.743 -0.0569  0.0884  0.0025
   21DT     H3'  660   3.735   4.767   8.777  0.2701  0.1278 -0.8086
   21DT     C2'  661   3.556   4.724   8.656 -0.4316  0.3635  0.0855
   21DT    H2'1  662   3.541   4.626   8.703  1.4392  0.3624  0.7914
   21DT    H2'2  663   3.465   4.773   8.623  0.4425  0.9742 -1.5457
   21DT     O3'  664   3.552   4.874   8.834 -0.2774 -0.0561 -0.1228
   22DG       P  665   3.557   4.852   8.993 -0.1491  0.1991 -0.0922
   22DG     O1P  666   3.496   4.966   9.066 -0.6198  0.1019 -0.3261
   22DG     O2P  667   3.697   4.818   9.026 -0.1464  0.1846 -0.1179
   22DG     O5'  668   3.471   4.717   9.011  0.1764 -0.0551 -0.4373
   22DG     C5'  669   3.337   4.706   8.968  0.0634  0.2441 -0.1663
   22DG    H5'1  670   3.328   4.773   8.882 -0.7744  2.4980  1.5853
   22DG    H5'2  671   3.271   4.760   9.036  0.0577 -0.2219  0.1946
   22DG     C4'  672   3.283   4.567   8.937 -0.1764  0.2856  0.0525
   22DG     H4'  673   3.174   4.563   8.933 -0.1202 -2.3717 -2.3975
   22DG     O4'  674   3.332   4.509   8.817 -0.3494  0.3533 -0.0518
   22DG     C1'  675   3.335   4.369   8.825  0.2189  0.3756  0.1751
   22DG     H1'  676   3.270   4.328   8.748  2.3348 -1.3232 -0.8470
   22DG      N9  677   3.471   4.311   8.815  0.0927  0.0808  0.1538
   22DG      C8  678   3.587   4.380   8.838  0.3927 -0.3237 -0.1540
   22DG      H8  679   3.587   4.482   8.871  1.5365  0.3924 -2.1720
   22DG      N7  680   3.693   4.309   8.808  0.7269 -0.0632  0.4135
   22DG      C5  681   3.644   4.183   8.776  0.0816  0.2676  0.0835
   22DG      C6  682   3.716   4.063   8.752  0.4385  0.5435 -0.2487
   22DG      O6  683   3.837   4.044   8.753  0.3305 -0.1953  0.0690
   22DG      N1  684   3.633   3.954   8.733  0.1618  0.6035  0.5660
   22DG      H1  685   3.675   3.863   8.724  1.5626  1.1006  1.8250
   22DG      C2  686   3.495   3.965   8.744  0.0572 -0.0992  0.0612
   22DG      N2  687   3.429   3.851   8.721 -0.3534  0.1307  0.0845
   22DG     H21  688   3.483   3.766   8.712  0.0370  0.2454  1.1253
   22DG     H22  689   3.330   3.862   8.735 -0.5472 -1.0547 -0.2912
   22DG      N3  690   3.425   4.076   8.771  0.2109  0.0324 -0.0678
   22DG      C4  691   3.507   4.182   8.784  0.0614  0.1719 -0.2615
   22DG     C3'  692   3.301   4.461   9.045 -0.1382  0.6269  0.3798
   22DG     H3'  693   3.404   4.459   9.083  0.1886 -1.1573 -0.5056
   22DG     C2'  694   3.277   4.335   8.962  0.5746  0.5012  0.3579
   22DG    H2'1  695   3.308   4.241   9.007 -2.4801 -0.6232  0.3371
   22DG    H2'2  696   3.172   4.319   8.941  0.2737  1.1638  1.2829
   22DG     O3'  697   3.213   4.456   9.155 -0.4743 -0.2704  0.0739
   23DC       P  698   3.244   4.398   9.301  0.4395  0.1567  0.0547
   23DC     O1P  699   3.132   4.429   9.394  0.4918  0.6693 -0.0480
   23DC     O2P  700   3.376   4.454   9.337  0.3339  0.2050  0.3736
   23DC     O5'  701   3.250   4.238   9.285 -0.2940  0.1417 -0.1182
   23DC     C5'  702   3.130   4.167   9.262  0.0051 -0.2843 -0.3794
   23DC    H5'1  703   3.082   4.215   9.176 -2.1288 -3.8962 -1.3734
   23DC    H5'2  704   3.069   4.183   9.351  1.5213  3.8214  0.1777
   23DC     C4'  705   3.140   4.023   9.214 -1.0055 -0.3693 -0.3493
   23DC     H4'  706   3.042   3.981   9.191 -0.8471 -0.6028 -0.6005
   23DC     O4'  707   3.221   4.014   9.099 -0.0208  0.0183  0.2949
   23DC     C1'  708   3.300   3.898   9.085  0.1327  0.0852  0.5976
   23DC     H1'  709   3.275   3.844   8.993  1.5432 -0.8486  0.7469
   23DC      N1  710   3.445   3.923   9.085  0.1242  0.1523  0.0391
   23DC      C6  711   3.492   4.044   9.126  0.0044  0.1373  0.2220
   23DC      H6  712   3.430   4.121   9.171 -0.0823  1.0681 -1.4092
   23DC      C5  713   3.624   4.069   9.110  0.1276  0.1387  1.1466
   23DC      H5  714   3.665   4.166   9.132  1.3441  0.3954 -1.8192
   23DC      C4  715   3.716   3.966   9.072  0.0955  0.5662 -0.1453
   23DC      N4  716   3.847   3.990   9.083  0.1023  0.1772  0.7106
   23DC     H41  717   3.889   4.082   9.078 -0.8491  0.6211  0.5776
   23DC     H42  718   3.911   3.912   9.074 -0.1028  0.0956 -0.0951
   23DC      N3  719   3.669   3.843   9.047 -0.1617  0.5274  0.5141
   23DC      C2  720   3.534   3.827   9.041 -0.0794 -0.0283  0.0161
   23DC      O2  721   3.487   3.723   8.995  0.0443 -0.1379  0.1341
   23DC     C3'  722   3.215   3.932   9.311 -0.3732  0.5274  0.0231
   23DC     H3'  723   3.308   3.979   9.341  0.2088 -1.8693  2.4321
   23DC     C2'  724   3.255   3.824   9.211 -0.5197  0.1230  0.3944
   23DC    H2'1  725   3.331   3.753   9.244 -1.1335  0.0820  1.7835
   23DC    H2'2  726   3.173   3.756   9.189 -0.4483 -0.5604  2.0779
   23DC     O3'  727   3.140   3.893   9.424 -0.2316 -0.0805 -0.0895
   24DG       P  728   3.221   3.864   9.560  0.0051  0.2707 -0.1557
   24DG     O1P  729   3.118   3.830   9.661  0.3102 -0.0859  0.0399
   24DG     O2P  730   3.322   3.968   9.595  0.1383 -0.1631  0.7989
   24DG     O5'  731   3.301   3.732   9.516  0.1631  0.2873  0.0772
   24DG     C5'  732   3.231   3.613   9.491 -0.3827  0.5059  0.5595
   24DG    H5'1  733   3.175   3.625   9.398  1.5373 -0.1688 -0.7379
   24DG    H5'2  734   3.166   3.589   9.576 -1.4855  1.9509  0.1552
   24DG     C4'  735   3.330   3.497   9.476  0.0220  0.8154  0.8360
   24DG     H4'  736   3.271   3.405   9.473 -1.3306  1.6676 -0.8936
   24DG     O4'  737   3.395   3.509   9.352 -0.0812 -0.4142  0.6546
   24DG     C1'  738   3.527   3.463   9.362  0.1080 -0.0848 -0.1910
   24DG     H1'  739   3.547   3.394   9.280  2.1422  2.2681 -1.8525
   24DG      N9  740   3.628   3.569   9.339  0.1203 -0.1853 -0.6015
   24DG      C8  741   3.612   3.702   9.368  0.2657 -0.2813 -0.0781
   24DG      H8  742   3.512   3.737   9.388  0.9171  1.2602  0.6395
   24DG      N7  743   3.716   3.777   9.345 -0.0574  0.2195  0.0835
   24DG      C5  744   3.808   3.682   9.302 -0.4091  0.0592 -0.3261
   24DG      C6  745   3.943   3.699   9.261 -0.4184  0.4074 -0.2136
   24DG      O6  746   4.007   3.801   9.237  0.2087 -0.0654 -0.5791
   24DG      N1  747   4.012   3.580   9.242 -0.4144  0.3961 -0.1218
   24DG      H1  748   4.107   3.576   9.207 -1.1933 -0.0670 -2.3402
   24DG      C2  749   3.948   3.459   9.226 -0.0513  0.1919 -0.0463
   24DG      N2  750   4.018   3.351   9.188  0.0405  0.4303 -0.5553
   24DG     H21  751   4.116   3.350   9.164  0.1836  1.3403 -0.0801
   24DG     H22  752   3.963   3.268   9.171 -0.0199  0.4457 -0.4331
   24DG      N3  753   3.823   3.439   9.270  0.0263 -0.3445 -0.0647
   24DG      C4  754   3.758   3.554   9.300  0.1700 -0.1657 -0.4407
   24DG     C3'  755   3.426   3.467   9.591  0.6182 -0.4447  0.0204
   24DG     H3'  756   3.454   3.564   9.630  0.4313 -1.0698  1.7904
   24DG     C2'  757   3.538   3.409   9.505  0.3178 -0.4756 -0.3528
   24DG    H2'1  758   3.630   3.444   9.549  0.0328 -0.4098  0.1957
   24DG    H2'2  759   3.529   3.300   9.497  3.1674 -0.8183  0.3590
   24DG     O3'  760   3.381   3.371   9.684 -0.3453 -0.1030 -0.0778
   25DC       P  761   3.444   3.365   9.832 -0.1284  0.0531 -0.1632
   25DC     O1P  762   3.368   3.270   9.916 -0.2327  0.0623 -0.2472
   25DC     O2P  763   3.460   3.506   9.873 -0.1096  0.0917 -0.3037
   25DC     O5'  764   3.589   3.301   9.802 -0.2957 -0.1673 -0.5094
   25DC     C5'  765   3.610   3.164   9.776  0.2393 -0.1501 -0.1756
   25DC    H5'1  766   3.556   3.140   9.685 -1.6575  0.3605  0.7679
   25DC    H5'2  767   3.563   3.112   9.860  1.7839 -1.0445  0.1676
   25DC     C4'  768   3.756   3.129   9.748  0.3151  0.0691 -0.0640
   25DC     H4'  769   3.756   3.021   9.729  1.0409  0.1183 -0.3657
   25DC     O4'  770   3.803   3.179   9.625 -0.3836  0.2483 -0.2654
   25DC     C1'  771   3.939   3.215   9.632 -0.3319 -0.0513  0.2943
   25DC     H1'  772   3.991   3.179   9.543 -0.7169  4.3580 -2.0259
   25DC      N1  773   3.958   3.358   9.602  0.0774 -0.1595  0.0324
   25DC      C6  774   3.878   3.452   9.661  0.3637 -0.2657  0.5961
   25DC      H6  775   3.791   3.420   9.717 -0.5521  1.1971  0.0674
   25DC      C5  776   3.901   3.584   9.645 -0.7156 -0.2352 -0.9332
   25DC      H5  777   3.831   3.653   9.688  1.8776  0.7510  2.0813
   25DC      C4  778   4.021   3.618   9.573 -0.1972 -0.3091 -0.1182
   25DC      N4  779   4.050   3.748   9.559  0.0558 -0.3450  0.0532
   25DC     H41  780   3.999   3.819   9.609  2.4744  0.4988  1.4328
   25DC     H42  781   4.138   3.770   9.515 -0.6224 -0.8218 -1.6342
   25DC      N3  782   4.104   3.527   9.521  0.0360  0.0279 -0.3340
   25DC      C2  783   4.077   3.396   9.542  0.0060  0.0949  0.0482
   25DC      O2  784   4.168   3.320   9.510 -0.1868 -0.0933 -0.0589
   25DC     C3'  785   3.861   3.160   9.853 -0.3077  0.1135  0.5518
   25DC     H3'  786   3.840   3.258   9.897  1.9062  0.0150  1.9974
   25DC     C2'  787   3.988   3.170   9.770 -0.4258  0.0642  0.3661
   25DC    H2'1  788   4.058   3.240   9.816 -0.0420 -0.6593  0.9034
   25DC    H2'2  789   4.037   3.073   9.761 -0.3229  0.1799 -0.3916
   25DC     O3'  790   3.861   3.066   9.958 -0.3076 -0.2816  0.1965
   25DC     H3T  791   3.930   3.098  10.016  0.6132 -1.0714 -0.4199
   26G      O5'  792   5.006   3.952   9.153 -0.3994  0.4692 -0.0460
   26G      H5T  793   5.037   4.035   9.117  0.5106 -0.5457 -1.7421
   26G      C5'  794   5.105   3.863   9.197 -0.1304  0.3732 -0.8270
   26G     H5'1  795   5.149   3.913   9.283 -1.2068  0.7297 -0.4705
   26G     H5'2  796   5.180   3.852   9.119 -0.2597 -1.3855 -0.7578
   26G      C4'  797   5.051   3.728   9.243  0.2567  0.3710 -0.3670
   26G      H4'  798   5.136   3.662   9.264  1.0472  1.8670  1.4104
   26G      O4'  799   4.978   3.722   9.363 -0.2512  0.0410 -0.6875
   26G      C1'  800   4.865   3.638   9.357 -0.0407 -0.2770 -0.2538
   26G      H1'  801   4.862   3.569   9.442 -2.2814 -0.5989 -0.5311
   26G       N9  802   4.739   3.714   9.346 -0.0190 -0.1742  0.1711
   26G       C8  803   4.713   3.848   9.330 -0.1503 -0.2034  0.1440
   26G       H8  804   4.790   3.919   9.303 -0.3354 -0.2144 -0.4291
   26G       N7  805   4.589   3.880   9.351 -0.0652  0.0806  0.2135
   26G       C5  806   4.527   3.761   9.389 -0.1231 -0.0501 -0.2885
   26G       C6  807   4.397   3.733   9.437  0.1838  0.1554  0.6834
   26G       O6  808   4.298   3.805   9.452 -0.0242  0.0907 -0.2900
   26G       N1  809   4.373   3.598   9.459  0.0237  0.1097  0.2294
   26G       H1  810   4.277   3.568   9.465  0.1206 -1.1348 -2.5953
   26G       C2  811   4.472   3.501   9.448 -0.2987 -0.1959 -0.0009
   26G       N2  812   4.434   3.373   9.459 -0.3441 -0.2298 -0.4970
   26G      H21  813   4.339   3.350   9.483 -0.1054 -0.4194  0.3016
   26G      H22  814   4.498   3.299   9.433 -1.7464 -0.9272 -2.1050
   26G       N3  815   4.598   3.531   9.414 -0.2396  0.1800  0.5382
   26G       C4  816   4.617   3.659   9.374 -0.1743 -0.0897 -0.3256
   26G      C3'  817   4.965   3.648   9.146 -0.1175  0.1505  0.1472
   26G      H3'  818   4.895   3.716   9.098 -0.9227  1.4720  2.9965
   26G      C2'  819   4.883   3.552   9.232 -0.1463 -0.2308 -0.3007
   26G     H2'1  820   4.787   3.527   9.185  0.2099 -1.6522 -0.3202
   26G      O2'  821   4.957   3.434   9.254 -0.4851 -0.3849  0.0375
   26G     HO'2  822   5.002   3.413   9.172  0.1037 -1.2202  0.5565
   26G      O3'  823   5.029   3.571   9.047 -0.2986  0.0883  0.0755
   27C        P  824   4.978   3.567   8.895  0.1077 -0.0495 -0.0594
   27C      O1P  825   5.079   3.497   8.812 -0.3182 -0.4485 -0.2422
   27C      O2P  826   4.924   3.699   8.855 -0.1641 -0.1033  0.1311
   27C      O5'  827   4.854   3.466   8.909  0.1690 -0.1287 -0.0906
   27C      C5'  828   4.861   3.327   8.934  0.3618 -0.1112 -0.0433
   27C     H5'1  829   4.934   3.316   9.014 -0.3266  2.3540  1.0305
   27C     H5'2  830   4.898   3.278   8.844 -2.0079 -1.5658 -0.3307
   27C      C4'  831   4.730   3.258   8.972 -0.0124  0.4712 -0.2579
   27C      H4'  832   4.754   3.153   8.991 -1.6623  0.3169  1.2374
   27C      O4'  833   4.674   3.317   9.088  0.1271  0.4886 -0.1985
   27C      C1'  834   4.534   3.312   9.071  0.0740  0.1318  0.3238
   27C      H1'  835   4.488   3.256   9.153 -1.9859 -0.6983 -1.3112
   27C       N1  836   4.465   3.442   9.068  0.2762  0.2346  0.1117
   27C       C6  837   4.528   3.554   9.023  0.5826  0.0636  0.1129
   27C       H6  838   4.629   3.538   8.986 -0.2270  0.2612 -2.3871
   27C       C5  839   4.473   3.676   9.041  0.1664 -0.1435  0.2438
   27C       H5  840   4.527   3.764   9.009  0.4561  0.2827  1.8328
   27C       C4  841   4.344   3.678   9.104 -0.1502 -0.6140 -0.3801
   27C       N4  842   4.285   3.788   9.153  0.2456 -0.6064  0.0858
   27C      H41  843   4.317   3.883   9.141  0.5390 -0.5935  0.8779
   27C      H42  844   4.198   3.770   9.200 -1.7090  0.2122 -2.9399
   27C       N3  845   4.275   3.570   9.142 -0.6034 -0.0637  0.3840
   27C       C2  846   4.341   3.451   9.127  0.0564  0.3873 -0.3675
   27C       O2  847   4.287   3.349   9.169  0.4446  0.3930  0.1466
   27C      C3'  848   4.631   3.271   8.857 -0.2055  0.4541 -0.0943
   27C      H3'  849   4.629   3.376   8.828  0.9325  0.5969  0.2851
   27C      C2'  850   4.512   3.231   8.944  0.1752  0.1492  0.2952
   27C     H2'1  851   4.420   3.254   8.890  1.0632 -1.1774 -1.9315
   27C      O2'  852   4.500   3.092   8.966 -0.4876  0.1414 -0.0725
   27C     HO'2  853   4.568   3.050   8.911 -1.2163  0.4400 -1.2394
   27C      O3'  854   4.657   3.179   8.753 -0.5203 -0.2139  0.4109
   28G        P  855   4.579   3.176   8.613 -0.2113  0.1087  0.2317
   28G      O1P  856   4.639   3.072   8.525  0.0843  0.3106  0.1931
   28G      O2P  857   4.575   3.314   8.560  0.2569  0.0432  0.0150
   28G      O5'  858   4.421   3.149   8.624 -0.2078  0.0182  0.0770
   28G      C5'  859   4.364   3.025   8.661 -0.4532 -0.0642 -0.5655
   28G     H5'1  860   4.413   2.983   8.749 -0.7997 -0.8892 -0.7598
   28G     H5'2  861   4.364   2.948   8.584 -0.5394  0.4496 -1.0839
   28G      C4'  862   4.222   3.055   8.707 -0.2422  0.0360  0.0252
   28G      H4'  863   4.176   2.960   8.732 -0.0154  0.3497  1.7737
   28G      O4'  864   4.207   3.128   8.827 -0.1366 -0.3703  0.2875
   28G      C1'  865   4.087   3.202   8.823  0.2446  0.2205 -0.3664
   28G      H1'  866   4.032   3.170   8.911  0.2134 -0.1633 -0.5274
   28G       N9  867   4.109   3.348   8.825  0.2575  0.2121  0.0023
   28G       C8  868   4.226   3.415   8.799  0.1912  0.2662 -0.1547
   28G       H8  869   4.316   3.363   8.767 -0.5602 -3.0994  2.5831
   28G       N7  870   4.214   3.544   8.815 -0.0626  0.1577  0.5394
   28G       C5  871   4.084   3.563   8.860 -0.2898  0.0677 -0.0673
   28G       C6  872   4.013   3.679   8.903 -0.3484 -0.1134  0.3239
   28G       O6  873   4.049   3.795   8.916  0.1071 -0.1543 -0.5075
   28G       N1  874   3.883   3.651   8.943 -0.3062 -0.2490  0.3706
   28G       H1  875   3.829   3.734   8.964  0.6293  1.1097 -2.1196
   28G       C2  876   3.820   3.532   8.911 -0.0514 -0.2697 -0.0604
   28G       N2  877   3.689   3.521   8.934 -0.1990  0.1531 -0.6537
   28G      H21  878   3.636   3.596   8.977  0.0252 -0.9253  1.6617
   28G      H22  879   3.648   3.436   8.896 -0.9162 -0.2601  0.9445
   28G       N3  880   3.885   3.420   8.876 -0.0478 -0.1584 -0.4172
   28G       C4  881   4.016   3.445   8.852 -0.1516  0.0361 -0.7804
   28G      C3'  882   4.129   3.123   8.607  0.3059  0.4512 -0.2067
   28G      H3'  883   4.173   3.210   8.557  0.3940  0.1205 -0.7107
   28G      C2'  884   4.011   3.159   8.697  0.1475  0.0519 -0.2507
   28G     H2'1  885   3.956   3.245   8.659  1.5576  0.7007 -0.9200
   28G      O2'  886   3.922   3.051   8.711  0.4939 -0.1098  0.8075
   28G     HO'2  887   3.927   2.997   8.632 -1.1825 -0.3786  0.8444
   28G      O3'  888   4.091   3.021   8.518 -0.2269  0.2102  0.2970
   29C        P  889   4.020   3.063   8.380  0.1357  0.2575  0.1255
   29C      O1P  890   3.996   2.934   8.311  0.0527  0.3375  0.0031
   29C      O2P  891   4.097   3.168   8.310 -0.3695  0.5455 -0.0002
   29C      O5'  892   3.876   3.128   8.412 -0.0075  0.1752 -0.3307
   29C      C5'  893   3.753   3.061   8.426  0.1433 -0.0492 -0.0497
   29C     H5'1  894   3.753   2.979   8.498  1.8153  0.8933  1.0922
   29C     H5'2  895   3.729   3.009   8.334 -0.3525  0.4241 -0.1904
   29C      C4'  896   3.645   3.160   8.469  0.2718 -0.1479  0.5077
   29C      H4'  897   3.551   3.107   8.483 -0.0958  0.1900 -0.6304
   29C      O4'  898   3.675   3.243   8.579 -0.4245  0.2437  0.4088
   29C      C1'  899   3.617   3.371   8.565 -0.3932  0.2634  0.4592
   29C      H1'  900   3.541   3.389   8.641 -1.7357 -1.8552 -0.2979
   29C       N1  901   3.712   3.484   8.567  0.0541 -0.1061  0.2729
   29C       C6  902   3.840   3.466   8.525 -0.1224  0.5538 -0.5755
   29C       H6  903   3.875   3.368   8.497 -0.8034 -0.2512  1.2331
   29C       C5  904   3.923   3.572   8.539 -0.3873  0.7325 -0.3576
   29C       H5  905   4.025   3.556   8.510  0.6203  1.4983  2.4349
   29C       C4  906   3.872   3.695   8.593  0.1900  0.6917  0.2941
   29C       N4  907   3.949   3.803   8.612  0.0955  0.7283  0.4661
   29C      H41  908   4.048   3.786   8.610  0.2361  1.3178 -2.5546
   29C      H42  909   3.899   3.888   8.634 -0.8728  0.0715  0.8764
   29C       N3  910   3.744   3.715   8.626  0.0341  0.0510  0.0804
   29C       C2  911   3.664   3.606   8.610  0.1860 -0.1121  0.4353
   29C       O2  912   3.542   3.624   8.613  0.1076 -0.5288 -0.0658
   29C      C3'  913   3.614   3.254   8.353  0.3403 -0.6242  0.1020
   29C      H3'  914   3.705   3.303   8.318  0.5444  0.7162  2.3424
   29C      C2'  915   3.545   3.366   8.430  0.2347 -0.7232  0.1508
   29C     H2'1  916   3.537   3.463   8.381 -0.8247 -2.0429 -2.4529
   29C      O2'  917   3.417   3.320   8.469 -0.1397  0.1085 -0.0800
   29C     HO'2  918   3.380   3.271   8.395 -0.2249  0.5655 -0.3479
   29C      O3'  919   3.522   3.199   8.261 -0.2850 -0.2095  0.4679
   30A        P  920   3.508   3.263   8.114  0.0389 -0.1315  0.4679
   30A      O1P  921   3.425   3.174   8.030  0.1862  0.1941 -0.0320
   30A      O2P  922   3.642   3.292   8.060 -0.3063  0.4653 -0.0793
   30A      O5'  923   3.423   3.398   8.136 -0.2842 -0.1896 -0.3817
   30A      C5'  924   3.284   3.407   8.158 -0.1787 -0.2906  0.3516
   30A     H5'1  925   3.247   3.331   8.227  0.6857  0.6169  1.8640
   30A     H5'2  926   3.229   3.389   8.066 -2.9951  2.9223  1.2136
   30A      C4'  927   3.247   3.543   8.217 -0.2550 -0.2322  0.1736
   30A      H4'  928   3.145   3.530   8.253  0.3339  0.9752  2.4774
   30A      O4'  929   3.335   3.594   8.316 -0.6176  0.1003  0.3258
   30A      C1'  930   3.338   3.735   8.307  0.3037  0.0740  0.1590
   30A      H1'  931   3.294   3.787   8.392  0.0448 -2.6584  1.8455
   30A       N9  932   3.479   3.777   8.295  0.2073  0.4765  0.4117
   30A       C8  933   3.591   3.704   8.265 -0.0287  0.2651  0.0403
   30A       H8  934   3.590   3.606   8.219  1.7405 -0.0367  0.5975
   30A       N7  935   3.705   3.763   8.285  0.2177 -0.3592  0.4904
   30A       C5  936   3.665   3.885   8.337  0.5596  0.2601 -0.6780
   30A       C6  937   3.732   3.995   8.394  0.3100 -0.0889  0.3168
   30A       N6  938   3.862   3.996   8.423  0.4098  0.1240 -0.1161
   30A      H61  939   3.916   3.911   8.416  1.9433  1.1856 -2.1598
   30A      H62  940   3.903   4.087   8.441 -0.9690  0.4219  1.9161
   30A       N1  941   3.665   4.106   8.428 -0.0097 -0.2105  0.0940
   30A       C2  942   3.532   4.105   8.424  0.0092 -0.4037 -0.4638
   30A       H2  943   3.489   4.200   8.450  2.7348  0.8702 -0.2089
   30A       N3  944   3.460   4.012   8.363 -0.5718 -0.2176 -0.0672
   30A       C4  945   3.529   3.901   8.329  0.5555  0.5118 -0.2147
   30A      C3'  946   3.253   3.650   8.109  0.0492 -0.3766  0.0460
   30A      H3'  947   3.349   3.638   8.059  1.9618 -0.7977  3.5742
   30A      C2'  948   3.256   3.781   8.187  0.0095 -0.4428  0.1584
   30A     H2'1  949   3.306   3.861   8.133  0.2917 -0.0285  1.0089
   30A      O2'  950   3.128   3.807   8.239 -0.1426 -0.3796 -0.2488
   30A     HO'2  951   3.094   3.882   8.190 -0.2438 -0.9780 -1.1342
   30A      O3'  952   3.147   3.651   8.016  0.3055 -0.4632 -0.2521
   31G        P  953   3.166   3.698   7.864  0.0840  0.0687 -0.1174
   31G      O1P  954   3.039   3.682   7.789  0.1565 -0.1190 -0.1988
   31G      O2P  955   3.290   3.650   7.800 -0.1424  0.2612 -0.7121
   31G      O5'  956   3.192   3.857   7.874 -0.0182  0.1262 -0.6890
   31G      C5'  957   3.079   3.938   7.900  0.1236  0.0315  0.2446
   31G     H5'1  958   3.030   3.895   7.988 -0.1416 -1.0965 -0.4310
   31G     H5'2  959   3.015   3.932   7.812 -2.2266 -2.2020  1.9501
   31G      C4'  960   3.109   4.082   7.940  0.2709 -0.0420  0.4056
   31G      H4'  961   3.019   4.136   7.970  1.1507  0.7659  1.6940
   31G      O4'  962   3.195   4.081   8.051  0.5537 -0.0442  0.1893
   31G      C1'  963   3.266   4.202   8.057  0.1776  0.1605  0.6299
   31G      H1'  964   3.239   4.262   8.144 -0.7235 -0.4388  0.7766
   31G       N9  965   3.411   4.174   8.046  0.1876  0.3721  0.2126
   31G       C8  966   3.479   4.058   8.019 -0.3090 -0.0738  0.8515
   31G       H8  967   3.424   3.971   7.988 -0.5648  0.3141  0.1944
   31G       N7  968   3.605   4.055   8.053 -0.1300 -0.2791  0.1918
   31G       C5  969   3.621   4.190   8.085  0.1883 -0.1876 -0.3555
   31G       C6  970   3.740   4.261   8.110  0.0336  0.0085 -0.1791
   31G       O6  971   3.854   4.214   8.103  0.0482  0.0698 -0.3698
   31G       N1  972   3.730   4.397   8.137  0.2356  0.1816 -0.9606
   31G       H1  973   3.814   4.442   8.169  0.3081 -0.2158 -0.5994
   31G       C2  974   3.605   4.457   8.131  0.1011  0.1800  1.2588
   31G       N2  975   3.614   4.591   8.137  0.6321  0.2082  0.0181
   31G      H21  976   3.704   4.636   8.141  0.0211  1.5654 -0.8925
   31G      H22  977   3.529   4.645   8.141  0.9571  0.7251 -0.0458
   31G       N3  978   3.488   4.398   8.106  0.3353  0.1462  0.1823
   31G       C4  979   3.507   4.265   8.084  0.4214  0.1719  0.1056
   31G      C3'  980   3.178   4.178   7.843 -0.1617  0.1040  0.2377
   31G      H3'  981   3.274   4.135   7.815  1.2482  1.4144  2.7329
   31G      C2'  982   3.216   4.288   7.941  0.1867 -0.1518  0.3919
   31G     H2'1  983   3.294   4.355   7.903  1.1791 -0.8794  1.0830
   31G      O2'  984   3.107   4.365   7.988  0.3863  0.5116 -0.2181
   31G     HO'2  985   3.042   4.372   7.918  0.7619 -4.2034 -1.4146
   31G      O3'  986   3.102   4.227   7.735  0.2271  0.7266  0.2423
   32A        P  987   3.159   4.253   7.587  0.0535  0.0287  0.0495
   32A      O1P  988   3.039   4.285   7.506 -0.2260 -0.1377  0.3953
   32A      O2P  989   3.242   4.135   7.554 -0.0672 -0.1171  0.2725
   32A      O5'  990   3.240   4.391   7.603 -0.0288  0.1571 -0.6095
   32A      C5'  991   3.173   4.514   7.621 -0.4888 -0.2225  0.3621
   32A     H5'1  992   3.091   4.503   7.691 -1.0873 -1.7925 -0.5306
   32A     H5'2  993   3.127   4.543   7.526  0.2317 -0.1097  0.0369
   32A      C4'  994   3.272   4.621   7.664 -0.0210 -0.4996 -0.0112
   32A      H4'  995   3.211   4.707   7.691  2.2048  0.2928  3.1423
   32A      O4'  996   3.351   4.587   7.776  0.0113 -0.3792  0.0041
   32A      C1'  997   3.483   4.637   7.772 -0.1453  0.0848  0.5271
   32A      H1'  998   3.508   4.699   7.858  1.8650 -0.2854  0.2471
   32A       N9  999   3.581   4.527   7.773 -0.1717  0.0492 -0.3426
   32A       C8 1000   3.551   4.394   7.756 -0.2428  0.1208 -0.7861
   32A       H8 1001   3.456   4.368   7.713  0.1738  0.8356 -2.2206
   32A       N7 1002   3.656   4.316   7.755 -0.0818  0.3191  0.0215
   32A       C5 1003   3.760   4.403   7.786  0.0088  0.3232 -0.2904
   32A       C6 1004   3.897   4.388   7.812 -0.0353 -0.6189 -0.5459
   32A       N6 1005   3.972   4.278   7.819  0.9757  0.0721 -0.2595
   32A      H61 1006   3.928   4.187   7.819  0.0382  0.5092  0.3532
   32A      H62 1007   4.066   4.285   7.856  0.6317  0.3337  0.5762
   32A       N1 1008   3.970   4.496   7.845 -0.2526 -0.4781 -0.5192
   32A       C2 1009   3.919   4.618   7.848 -0.0607 -0.4073 -0.0770
   32A       H2 1010   3.988   4.697   7.875 -0.9741  0.6367 -0.7155
   32A       N3 1011   3.790   4.641   7.831  0.0251  0.0567 -0.1129
   32A       C4 1012   3.716   4.532   7.799 -0.2247  0.2243 -0.1057
   32A      C3' 1013   3.377   4.659   7.559 -0.2097  0.5098  0.1570
   32A      H3' 1014   3.413   4.575   7.500 -3.4067 -0.9015 -0.0200
   32A      C2' 1015   3.487   4.722   7.645 -0.1734  0.0113  0.4774
   32A     H2'1 1016   3.575   4.705   7.584 -2.2869  0.0328 -2.8255
   32A      O2' 1017   3.469   4.855   7.689  0.3320 -0.1081  1.0571
   32A     HO'2 1018   3.492   4.916   7.618 -0.0848 -1.1328  0.0162
   32A      O3' 1019   3.319   4.746   7.464 -0.6717 -0.4107 -0.4114
   33U        P 1020   3.378   4.766   7.316  0.1527  0.2689  0.0009
   33U      O1P 1021   3.297   4.870   7.248  0.0712  0.4822  0.4204
   33U      O2P 1022   3.389   4.635   7.249 -0.3208  0.1356  0.1811
   33U      O5' 1023   3.525   4.831   7.330  0.3251 -0.1414  0.1040
   33U      C5' 1024   3.543   4.967   7.364  0.5281  0.0526 -0.7486
   33U     H5'1 1025   3.478   4.988   7.449 -1.7873 -1.2454 -2.0793
   33U     H5'2 1026   3.504   5.028   7.283  1.6382 -0.7463 -1.9137
   33U      C4' 1027   3.691   4.993   7.389  0.4378 -0.0780 -0.0564
   33U      H4' 1028   3.708   5.097   7.418  1.2735 -0.0981 -0.4394
   33U      O4' 1029   3.737   4.910   7.492  0.1740 -0.2699 -0.0925
   33U      C1' 1030   3.875   4.881   7.478  0.1376 -0.4184 -0.1416
   33U      H1' 1031   3.927   4.930   7.560  2.2219 -0.2090 -1.5140
   33U       N1 1032   3.891   4.734   7.477 -0.0154 -0.4367 -0.0210
   33U       C6 1033   3.791   4.649   7.439 -0.7919  0.2627  0.4054
   33U       H6 1034   3.701   4.690   7.397  0.9504  2.6767 -1.2062
   33U       C5 1035   3.805   4.514   7.440  0.0962  0.3487  0.5845
   33U       H5 1036   3.727   4.447   7.407 -0.1414  0.0833  1.6446
   33U       C4 1037   3.928   4.455   7.488  0.0620 -0.1302  0.0939
   33U       O4 1038   3.950   4.335   7.487  0.3556 -0.0751 -0.2420
   33U       N3 1039   4.021   4.548   7.534 -0.2839  0.1406  0.2542
   33U       H3 1040   4.115   4.516   7.547  1.2185  3.2662 -1.6119
   33U       C2 1041   4.010   4.686   7.528  0.2756  0.1680 -0.1300
   33U       O2 1042   4.108   4.752   7.563 -0.0500  0.7789 -0.3570
   33U      C3' 1043   3.781   4.957   7.272  0.3325  0.1707 -0.2160
   33U      H3' 1044   3.753   4.860   7.229  1.1779 -0.0962 -0.1878
   33U      C2' 1045   3.915   4.939   7.343  0.1963 -0.3035 -0.0749
   33U     H2'1 1046   3.975   4.871   7.283 -0.4003  0.6809 -1.8825
   33U      O2' 1047   3.988   5.056   7.369  0.2985 -0.2939 -0.4020
   33U     HO'2 1048   4.053   5.054   7.298  0.8755 -0.5558  0.1275
   33U      O3' 1049   3.803   5.052   7.170 -0.0161  0.0522 -0.4046
   34G        P 1050   3.867   5.022   7.025  0.1937  0.0345 -0.3086
   34G      O1P 1051   3.868   5.155   6.962 -0.5535  0.1929 -0.0049
   34G      O2P 1052   3.795   4.905   6.968  0.5107 -0.1286 -0.3745
   34G      O5' 1053   4.020   4.979   7.049  0.1771  0.0100 -0.2439
   34G      C5' 1054   4.115   5.082   7.067  0.6302 -0.2609 -1.0523
   34G     H5'1 1055   4.091   5.156   7.143  2.2455 -2.1609  1.4668
   34G     H5'2 1056   4.127   5.137   6.974  1.2488  1.8268  0.2143
   34G      C4' 1057   4.244   5.012   7.108  0.0217 -0.4651  0.5761
   34G      H4' 1058   4.310   5.092   7.142 -1.3147  1.0881 -0.3579
   34G      O4' 1059   4.224   4.916   7.210 -0.3049 -0.7576  0.2380
   34G      C1' 1060   4.331   4.825   7.200  0.1019 -0.2019 -0.6013
   34G      H1' 1061   4.401   4.833   7.283  0.0194 -1.6121 -0.3713
   34G       N9 1062   4.267   4.692   7.207 -0.1284 -0.0333  0.6711
   34G       C8 1063   4.137   4.660   7.177  0.0002  0.1990 -0.1622
   34G       H8 1064   4.061   4.732   7.152 -0.5105 -0.3211 -0.1158
   34G       N7 1065   4.112   4.535   7.202  0.5079  0.1063 -0.1112
   34G       C5 1066   4.232   4.478   7.245  0.1417 -0.1429  0.5929
   34G       C6 1067   4.270   4.347   7.286  0.0926 -0.5170 -0.5091
   34G       O6 1068   4.200   4.250   7.314  0.0983 -0.0734  1.1547
   34G       N1 1069   4.406   4.326   7.301  0.2239  0.0687 -0.8165
   34G       H1 1070   4.446   4.237   7.329  0.0813 -0.0864 -1.0997
   34G       C2 1071   4.495   4.432   7.301  0.3991 -0.0531  0.4505
   34G       N2 1072   4.625   4.404   7.318  0.5650 -0.2021 -0.9482
   34G      H21 1073   4.646   4.306   7.332 -1.3821 -0.2734  2.4142
   34G      H22 1074   4.691   4.480   7.308 -2.0145  2.1405 -1.6107
   34G       N3 1075   4.459   4.559   7.276  0.1452 -0.2413 -0.1712
   34G       C4 1076   4.328   4.575   7.244  0.1212 -0.1235 -0.0170
   34G      C3' 1077   4.308   4.936   6.993 -0.4530 -0.0477  0.0319
   34G      H3' 1078   4.223   4.882   6.950 -1.1983  1.2132 -0.1093
   34G      C2' 1079   4.407   4.849   7.070  0.2757  0.3999 -0.3905
   34G     H2'1 1080   4.410   4.751   7.022 -1.1362 -1.4518  2.9268
   34G      O2' 1081   4.529   4.918   7.082  0.1815  0.4846  0.1188
   34G     HO'2 1082   4.511   4.988   7.019 -1.3872 -0.9594 -1.1277
   34G      O3' 1083   4.372   5.021   6.901  0.1391 -0.3837  0.1262
   35C        P 1084   4.398   4.956   6.756 -0.0631  0.0788 -0.1202
   35C      O1P 1085   4.463   5.050   6.663 -0.1603  0.1220 -0.1453
   35C      O2P 1086   4.268   4.896   6.719 -0.0673 -0.1622  0.2758
   35C      O5' 1087   4.500   4.832   6.768  0.1571  0.2212 -0.5126
   35C      C5' 1088   4.637   4.863   6.785  0.0148  0.2665  0.6473
   35C     H5'1 1089   4.655   4.938   6.862  0.7221 -0.9635  1.6971
   35C     H5'2 1090   4.659   4.917   6.693  1.3338  1.1521  1.4493
   35C      C4' 1091   4.728   4.744   6.811  0.0355  0.2635  0.5624
   35C      H4' 1092   4.824   4.795   6.821 -0.4379  1.4544 -0.6249
   35C      O4' 1093   4.698   4.679   6.933 -0.5332  0.0616  0.3180
   35C      C1' 1094   4.717   4.541   6.911 -0.2867  0.0808  0.4148
   35C      H1' 1095   4.784   4.510   6.991  1.2961 -0.9421 -1.2286
   35C       N1 1096   4.590   4.467   6.917 -0.2227 -0.0045  0.7098
   35C       C6 1097   4.471   4.531   6.897 -0.1593 -0.2250 -0.4118
   35C       H6 1098   4.472   4.630   6.855  1.1828 -0.7868 -1.7919
   35C       C5 1099   4.355   4.463   6.906 -0.4229  0.2733  0.0130
   35C       H5 1100   4.261   4.510   6.885 -2.3403 -2.6597  1.3264
   35C       C4 1101   4.359   4.326   6.951 -0.1932  0.3489  0.2203
   35C       N4 1102   4.250   4.252   6.968 -0.1809  0.2331 -0.1915
   35C      H41 1103   4.166   4.301   6.940  2.5731  2.7241 -5.5501
   35C      H42 1104   4.260   4.154   6.992  1.2467  0.5715  0.6631
   35C       N3 1105   4.476   4.263   6.968 -0.2000  0.0266 -0.8277
   35C       C2 1106   4.591   4.336   6.962 -0.0159 -0.1497  0.2835
   35C       O2 1107   4.696   4.279   6.989  0.2100  0.0596 -0.1371
   35C      C3' 1108   4.750   4.642   6.700 -0.3842  0.1403  0.5920
   35C      H3' 1109   4.661   4.627   6.638 -0.5007 -0.8861  0.9820
   35C      C2' 1110   4.789   4.517   6.779 -0.5439 -0.0942  0.3058
   35C     H2'1 1111   4.752   4.426   6.732 -0.7513  0.3043 -0.3269
   35C      O2' 1112   4.927   4.503   6.805 -0.3991  0.5177 -0.1019
   35C     HO'2 1113   4.966   4.531   6.722 -1.8111  0.5283 -0.7778
   35C      O3' 1114   4.857   4.674   6.614 -0.5013 -0.0954  0.3532
   36C        P 1115   4.847   4.642   6.457 -0.0484 -0.3995  0.3834
   36C      O1P 1116   4.962   4.697   6.383  0.0516 -1.0870  0.0240
   36C      O2P 1117   4.714   4.685   6.408  0.0694 -0.5817 -0.1016
   36C      O5' 1118   4.858   4.481   6.451 -0.0779 -0.3852 -0.0777
   36C      C5' 1119   4.982   4.415   6.456  0.2058  0.1234 -0.3400
   36C     H5'1 1120   5.057   4.460   6.521 -0.0705 -0.5173  0.4379
   36C     H5'2 1121   5.036   4.416   6.361  0.0954  2.1174 -0.4181
   36C      C4' 1122   4.975   4.271   6.505 -0.1732  0.1630 -0.2761
   36C      H4' 1123   5.072   4.224   6.525 -1.2072 -1.7358  0.5619
   36C      O4' 1124   4.879   4.245   6.605  0.1971 -0.3193 -0.0370
   36C      C1' 1125   4.830   4.113   6.605 -0.2564 -0.1550  0.0531
   36C      H1' 1126   4.875   4.061   6.690  0.1798 -1.0257 -0.6983
   36C       N1 1127   4.683   4.116   6.614 -0.2307  0.3796  0.3468
   36C       C6 1128   4.609   4.222   6.573 -0.5430  0.0546  0.0653
   36C       H6 1129   4.662   4.301   6.520  0.6486 -1.9093 -1.8301
   36C       C5 1130   4.475   4.227   6.587 -0.5441 -0.1302  0.1204
   36C       H5 1131   4.417   4.311   6.550 -1.4119 -0.1284  1.4163
   36C       C4 1132   4.422   4.117   6.661 -0.0360 -0.0487  0.6075
   36C       N4 1133   4.291   4.109   6.690 -0.0090 -0.4913  0.6220
   36C      H41 1134   4.235   4.192   6.675 -0.1040 -0.4648  1.1182
   36C      H42 1135   4.269   4.038   6.758 -0.3804  0.8662  1.9922
   36C       N3 1136   4.490   4.011   6.706  0.0771 -0.1010  0.3150
   36C       C2 1137   4.621   4.006   6.671  0.0578  0.1437  0.2096
   36C       O2 1138   4.682   3.906   6.709  0.0636  0.0939  0.0665
   36C      C3' 1139   4.922   4.189   6.388  0.4359 -0.4326 -0.1432
   36C      H3' 1140   4.834   4.241   6.350  0.2778 -1.0355 -0.6122
   36C      C2' 1141   4.879   4.066   6.468 -0.2878 -0.0799  0.0157
   36C     H2'1 1142   4.806   4.005   6.415  0.7079 -1.3735  0.1017
   36C      O2' 1143   4.982   3.974   6.494 -0.0260  0.0783 -0.4578
   36C     HO'2 1144   4.951   3.886   6.472  0.2040  0.1066 -0.8970
   36C      O3' 1145   5.014   4.162   6.285  0.5594 -0.3136 -0.0636
   37C        P 1146   4.956   4.121   6.141  0.0609 -0.0976  0.0722
   37C      O1P 1147   5.072   4.104   6.050 -0.0930  0.1549 -0.1732
   37C      O2P 1148   4.845   4.216   6.118  0.2313  0.0412 -0.1873
   37C      O5' 1149   4.894   3.975   6.171  0.0693 -0.0155  0.4844
   37C      C5' 1150   4.984   3.870   6.198  0.0640 -0.1007  0.1667
   37C     H5'1 1151   5.063   3.912   6.261 -1.1218  2.5540  0.0331
   37C     H5'2 1152   5.032   3.854   6.101  0.8359  0.8176  0.3777
   37C      C4' 1153   4.914   3.741   6.240 -0.2228 -0.0267 -0.0746
   37C      H4' 1154   4.995   3.674   6.270  1.9389  2.1104 -0.7912
   37C      O4' 1155   4.833   3.765   6.353  0.0508 -0.3738  0.1981
   37C      C1' 1156   4.728   3.671   6.354 -0.0192 -0.3009 -0.1292
   37C      H1' 1157   4.743   3.607   6.441 -0.4764  2.1942  1.9367
   37C       N1 1158   4.593   3.730   6.368 -0.0100 -0.2746 -0.1528
   37C       C6 1159   4.571   3.860   6.333  0.1441  0.0134  0.7919
   37C       H6 1160   4.649   3.915   6.282 -0.2977  1.2370  1.3798
   37C       C5 1161   4.454   3.923   6.356 -0.2405 -0.3756 -0.0586
   37C       H5 1162   4.445   4.026   6.326  0.0061 -0.5861 -0.8836
   37C       C4 1163   4.355   3.853   6.432 -0.5004  0.0354 -0.0159
   37C       N4 1164   4.235   3.906   6.458 -0.5212  0.0210 -0.0798
   37C      H41 1165   4.224   4.006   6.447 -0.2078  0.4746  2.8604
   37C      H42 1166   4.166   3.856   6.513 -0.1817  0.5653  0.8643
   37C       N3 1167   4.376   3.723   6.460  0.0293  0.2082  0.3896
   37C       C2 1168   4.491   3.659   6.427  0.0822  0.1973  0.5905
   37C       O2 1169   4.494   3.536   6.436  0.2804  0.0837 -0.7608
   37C      C3' 1170   4.825   3.681   6.132 -0.4529  0.2876 -0.0615
   37C      H3' 1171   4.767   3.757   6.080 -0.1002  1.0288  0.6067
   37C      C2' 1172   4.737   3.595   6.223 -0.4418 -0.0106 -0.3303
   37C     H2'1 1173   4.645   3.575   6.168 -3.1007  0.9609  3.3884
   37C      O2' 1174   4.801   3.474   6.255 -0.2387  0.0922 -0.3454
   37C     HO'2 1175   4.800   3.420   6.176  1.4943  0.5208 -0.6990
   37C      O3' 1176   4.902   3.607   6.040 -0.6825 -0.1433  0.0905
   38U        P 1177   4.843   3.575   5.893  0.1237  0.0414 -0.2800
   38U      O1P 1178   4.940   3.498   5.812  0.3561  0.1806 -0.1363
   38U      O2P 1179   4.782   3.697   5.836 -0.0970  0.1786  0.2379
   38U      O5' 1180   4.723   3.473   5.927  0.0119  0.1064 -0.4815
   38U      C5' 1181   4.739   3.336   5.952 -0.1988  0.0624 -0.5793
   38U     H5'1 1182   4.798   3.308   6.040 -0.2612 -0.7268 -0.7817
   38U     H5'2 1183   4.779   3.283   5.865  0.0261  0.9329 -1.0156
   38U      C4' 1184   4.606   3.280   6.001  0.1484 -0.1730  0.1189
   38U      H4' 1185   4.617   3.173   6.023  1.6585  0.2296  1.4553
   38U      O4' 1186   4.545   3.346   6.109  0.2256 -0.2825  0.2299
   38U      C1' 1187   4.404   3.338   6.100  0.2123  0.2295 -0.0727
   38U      H1' 1188   4.365   3.270   6.176  1.7456 -0.5622  0.0571
   38U       N1 1189   4.334   3.468   6.097  0.1964  0.2133 -0.3587
   38U       C6 1190   4.389   3.586   6.056 -0.4834  0.4647 -0.5596
   38U       H6 1191   4.486   3.586   6.009 -1.8775 -0.4523 -3.6952
   38U       C5 1192   4.333   3.707   6.079 -0.9692  0.1798 -0.2455
   38U       H5 1193   4.388   3.795   6.053  0.3925 -0.4770  0.2953
   38U       C4 1194   4.204   3.712   6.143 -0.7458 -0.5801  0.2883
   38U       O4 1195   4.141   3.816   6.165 -0.0529 -0.2497  0.7393
   38U       N3 1196   4.149   3.592   6.185 -0.1602 -0.6839  0.7766
   38U       H3 1197   4.051   3.585   6.209 -0.6209 -0.0137 -0.7932
   38U       C2 1198   4.210   3.471   6.158  0.4042 -0.2508  0.0929
   38U       O2 1199   4.150   3.371   6.197  0.0783  0.2986  1.0230
   38U      C3' 1200   4.502   3.285   5.889  0.2612 -0.0189  0.0201
   38U      H3' 1201   4.510   3.381   5.838 -0.6114 -0.4945 -1.0433
   38U      C2' 1202   4.376   3.262   5.971  0.1656  0.2244 -0.0594
   38U     H2'1 1203   4.298   3.311   5.913  1.5911  2.8556  0.0644
   38U      O2' 1204   4.347   3.127   5.999  0.2725  0.0659 -0.7008
   38U     HO'2 1205   4.254   3.109   5.984  0.4757 -2.2111  0.3163
   38U      O3' 1206   4.510   3.177   5.797 -0.1384 -0.3080  0.3195
   39U        P 1207   4.436   3.187   5.655  0.3096  0.3930  0.1272
   39U      O1P 1208   4.462   3.062   5.579 -0.2234  0.3131  0.0693
   39U      O2P 1209   4.469   3.315   5.589 -0.2761  0.1023 -0.7463
   39U      O5' 1210   4.278   3.180   5.684  0.1534  0.2298 -0.7394
   39U      C5' 1211   4.199   3.063   5.688  0.2247  0.1989 -0.2092
   39U     H5'1 1212   4.250   3.001   5.761  2.0531  1.1104 -0.6505
   39U     H5'2 1213   4.205   3.002   5.598  0.4852 -0.7839  0.4604
   39U      C4' 1214   4.057   3.085   5.740  0.3869  0.4483  0.1320
   39U      H4' 1215   4.014   2.986   5.758 -1.1714  0.4755 -2.8479
   39U      O4' 1216   4.045   3.164   5.856 -0.2118  0.4095  0.1017
   39U      C1' 1217   3.927   3.240   5.849 -0.5549 -0.1372 -0.0556
   39U      H1' 1218   3.862   3.219   5.934 -0.5532  0.4536  0.0962
   39U       N1 1219   3.945   3.386   5.848 -0.3145 -0.1697 -0.3883
   39U       C6 1220   4.069   3.440   5.827 -0.3078  0.1236  0.3766
   39U       H6 1221   4.153   3.383   5.790 -0.8399  0.4618 -1.4761
   39U       C5 1222   4.086   3.572   5.850 -0.1960  0.3087 -0.7064
   39U       H5 1223   4.182   3.619   5.832 -1.0315  1.2910 -2.8928
   39U       C4 1224   3.978   3.660   5.885  0.0066  0.1738  0.2955
   39U       O4 1225   3.991   3.780   5.909  0.9585  0.1551 -0.0904
   39U       N3 1226   3.853   3.599   5.890 -0.0330  0.2511  0.2596
   39U       H3 1227   3.774   3.660   5.904 -0.0206 -0.0100  1.5434
   39U       C2 1228   3.834   3.462   5.883  0.0626  0.2550 -0.1026
   39U       O2 1229   3.718   3.421   5.890  0.1038  0.1213 -0.1930
   39U      C3' 1230   3.974   3.148   5.629  0.3906  0.2184 -0.0031
   39U      H3' 1231   4.037   3.224   5.582 -1.5412  0.7293 -1.9371
   39U      C2' 1232   3.864   3.212   5.713  0.1467  0.4752 -0.5137
   39U     H2'1 1233   3.818   3.295   5.660 -1.3908 -0.3387 -0.5122
   39U      O2' 1234   3.755   3.125   5.739  0.5633  0.1295  0.1028
   39U     HO'2 1235   3.699   3.120   5.661 -1.1247  0.2245  1.2570
   39U      O3' 1236   3.916   3.064   5.533 -0.1505  0.3843  0.1737
   40C        P 1237   3.870   3.124   5.391 -0.0450  0.0772  0.0074
   40C      O1P 1238   3.836   3.013   5.299  0.2143 -0.1096  0.1362
   40C      O2P 1239   3.972   3.220   5.343  0.2472  0.0665  0.5969
   40C      O5' 1240   3.736   3.202   5.435 -0.1460  0.1216 -0.3703
   40C      C5' 1241   3.616   3.129   5.443  0.3380 -0.5684  1.0160
   40C     H5'1 1242   3.623   3.044   5.512 -1.3634 -0.8049  0.9610
   40C     H5'2 1243   3.592   3.084   5.346  0.4427 -1.1617  1.2621
   40C      C4' 1244   3.498   3.216   5.485  0.3095  0.0766 -0.3440
   40C      H4' 1245   3.420   3.146   5.519  1.6406 -2.6960 -2.5396
   40C      O4' 1246   3.546   3.300   5.587 -0.3498  0.1952 -0.1207
   40C      C1' 1247   3.470   3.418   5.580 -0.3354  0.2271  0.2457
   40C      H1' 1248   3.417   3.420   5.675  1.6934  1.0324  1.4425
   40C       N1 1249   3.566   3.529   5.567 -0.0396 -0.0435  0.1183
   40C       C6 1250   3.699   3.512   5.541 -0.0825  0.1443 -0.2292
   40C       H6 1251   3.731   3.412   5.512 -1.4814 -0.5165  0.4186
   40C       C5 1252   3.790   3.612   5.543 -0.1594  0.2325 -0.9547
   40C       H5 1253   3.895   3.608   5.517  0.2264  1.1252  0.3896
   40C       C4 1254   3.734   3.734   5.592  0.1328 -0.0209  0.0337
   40C       N4 1255   3.811   3.843   5.596  0.0956  0.0050  0.0303
   40C      H41 1256   3.909   3.847   5.573  0.4870  2.4238  1.7138
   40C      H42 1257   3.766   3.923   5.638 -1.8116 -1.8950  1.8199
   40C       N3 1258   3.608   3.753   5.635  0.0509 -0.0687 -0.1852
   40C       C2 1259   3.521   3.650   5.616 -0.0764  0.0185 -0.0686
   40C       O2 1260   3.402   3.667   5.643 -0.1936 -0.8173 -0.0316
   40C      C3' 1261   3.436   3.305   5.378  0.1263  0.5464  0.1483
   40C      H3' 1262   3.522   3.349   5.327  0.2067  0.6068  0.3350
   40C      C2' 1263   3.366   3.404   5.470 -0.2781  0.2220  0.1926
   40C     H2'1 1264   3.352   3.505   5.429  0.2607  0.4849  0.6561
   40C      O2' 1265   3.248   3.350   5.525 -0.1136 -0.3744 -0.0366
   40C     HO'2 1266   3.200   3.431   5.544  0.4284  0.1455 -0.8172
   40C      O3' 1267   3.346   3.242   5.289  0.1578  0.3860  0.2306
   41C        P 1268   3.318   3.311   5.147  0.4189 -0.2563 -0.1388
   41C      O1P 1269   3.212   3.236   5.076  0.3105 -0.4066  0.1812
   41C      O2P 1270   3.448   3.319   5.076  0.3923 -0.1600 -0.1781
   41C      O5' 1271   3.258   3.458   5.176  0.2124 -0.3567 -0.0598
   41C      C5' 1272   3.124   3.469   5.218  0.2817  0.3582 -0.0251
   41C     H5'1 1273   3.104   3.422   5.314 -1.5691  1.1500  0.0271
   41C     H5'2 1274   3.055   3.429   5.143  0.3004  0.7561 -0.2592
   41C      C4' 1275   3.079   3.612   5.248 -0.1593  0.2754 -0.2842
   41C      H4' 1276   2.972   3.596   5.264  0.1901 -1.8502  0.2634
   41C      O4' 1277   3.144   3.666   5.361  0.1247 -0.2610 -0.1901
   41C      C1' 1278   3.171   3.803   5.348  0.5318 -0.3545 -0.3613
   41C      H1' 1279   3.122   3.855   5.431 -1.4844  0.8408 -2.1966
   41C       N1 1280   3.311   3.846   5.330  0.3946 -0.0204 -0.6355
   41C       C6 1281   3.409   3.755   5.305  0.2706 -0.2862 -0.1594
   41C       H6 1282   3.384   3.653   5.280 -0.3139 -1.2367  3.6126
   41C       C5 1283   3.539   3.790   5.309  0.1393  0.1320  0.7251
   41C       H5 1284   3.605   3.708   5.285 -1.9047 -1.7643  1.2805
   41C       C4 1285   3.571   3.925   5.344  0.4001  0.3241 -0.2106
   41C       N4 1286   3.695   3.977   5.345  0.2290  0.7352  0.0702
   41C      H41 1287   3.771   3.912   5.340 -0.5768 -0.2840  0.5738
   41C      H42 1288   3.715   4.073   5.371  1.1623  0.4489  0.4266
   41C       N3 1289   3.476   4.013   5.379 -0.2962 -0.5460  0.1033
   41C       C2 1290   3.346   3.973   5.373 -0.4249 -0.2392  0.7348
   41C       O2 1291   3.255   4.050   5.403 -0.6575 -0.1053 -0.2864
   41C      C3' 1292   3.101   3.718   5.141 -0.1191  0.3793 -0.1729
   41C      H3' 1293   3.196   3.698   5.092 -0.6502  0.3354 -1.2086
   41C      C2' 1294   3.092   3.846   5.225  0.1510  0.2349  0.0782
   41C     H2'1 1295   3.138   3.931   5.175 -2.1497  0.9510 -0.9854
   41C      O2' 1296   2.965   3.884   5.273 -0.0930 -0.5046  0.0300
   41C     HO'2 1297   2.905   3.868   5.200 -2.4880 -1.3111  2.0092
   41C      O3' 1298   2.997   3.723   5.046 -0.2255  0.4434 -0.0536
   42G        P 1299   3.012   3.802   4.906 -0.2671  0.1554 -0.2197
   42G      O1P 1300   2.888   3.767   4.832  0.1302  0.1360 -0.8884
   42G      O2P 1301   3.144   3.762   4.854 -0.3125 -0.4298  0.1033
   42G      O5' 1302   3.016   3.958   4.943  0.5324  0.2314 -0.6141
   42G      C5' 1303   2.906   4.037   4.980  0.4786 -0.2964  0.4069
   42G     H5'1 1304   2.859   3.982   5.061  0.2750 -1.6012 -0.5664
   42G     H5'2 1305   2.831   4.047   4.901  1.6939  1.7676 -0.5630
   42G      C4' 1306   2.953   4.178   5.014 -0.3025  0.0925 -0.0751
   42G      H4' 1307   2.865   4.236   5.040 -0.0427  0.1133  0.7966
   42G      O4' 1308   3.048   4.182   5.118  0.0649 -0.4734 -0.3833
   42G      C1' 1309   3.137   4.291   5.106  0.0191 -0.3856  0.0456
   42G      H1' 1310   3.122   4.358   5.191 -0.7566 -0.2538 -0.1870
   42G       N9 1311   3.272   4.234   5.093  0.0425 -0.2561 -0.2851
   42G       C8 1312   3.313   4.111   5.049 -0.1300 -0.5015  0.2367
   42G       H8 1313   3.241   4.035   5.023 -0.9617 -0.4278  2.1642
   42G       N7 1314   3.443   4.099   5.048 -0.0229  0.5889 -0.2940
   42G       C5 1315   3.496   4.218   5.098  0.2174  0.2573  0.2553
   42G       C6 1316   3.629   4.257   5.128  0.4245 -0.2836  0.0673
   42G       O6 1317   3.737   4.199   5.137  0.4515 -0.2720 -0.1710
   42G       N1 1318   3.628   4.393   5.157 -0.1949 -0.2724  0.0221
   42G       H1 1319   3.722   4.429   5.170  0.1864 -1.1741 -0.1221
   42G       C2 1320   3.519   4.477   5.163  0.3743  0.4287  0.8826
   42G       N2 1321   3.542   4.607   5.183  0.4030  0.5294  0.2229
   42G      H21 1322   3.636   4.641   5.190  0.1894  0.8017  2.7849
   42G      H22 1323   3.463   4.670   5.177  0.6592  0.7687 -0.8289
   42G       N3 1324   3.393   4.435   5.141  0.6512 -0.2055  0.4623
   42G       C4 1325   3.390   4.303   5.113 -0.1050 -0.1171  0.1212
   42G      C3' 1326   3.022   4.254   4.901  0.5933 -0.8798 -0.1973
   42G      H3' 1327   3.096   4.185   4.862  0.3670 -2.0910  1.4128
   42G      C2' 1328   3.097   4.363   4.978 -0.3167 -0.4581  0.1077
   42G     H2'1 1329   3.184   4.394   4.920 -0.7304 -0.1424 -0.3593
   42G      O2' 1330   3.025   4.479   5.013  0.4190  0.1203 -0.2482
   42G     HO'2 1331   3.015   4.518   4.926 -1.1095 -1.7314 -0.9894
   42G      O3' 1332   2.921   4.307   4.818  0.3697 -0.6214  0.2364
   43U        P 1333   2.956   4.329   4.662  0.0683  0.0608  0.2631
   43U      O1P 1334   2.830   4.391   4.615  0.2415  0.0080 -0.2723
   43U      O2P 1335   3.010   4.204   4.605  0.2669  0.1945  0.1602
   43U      O5' 1336   3.069   4.443   4.673  0.4481 -0.2864 -0.0171
   43U      C5' 1337   3.038   4.580   4.677  0.3628 -0.3084  0.1230
   43U     H5'1 1338   2.966   4.587   4.758  0.7530  0.3364  0.4298
   43U     H5'2 1339   2.989   4.607   4.583  1.4357  0.1016 -0.3373
   43U      C4' 1340   3.160   4.670   4.700 -0.3219  0.5647  0.4088
   43U      H4' 1341   3.120   4.767   4.729 -1.7498  0.2189 -0.3215
   43U      O4' 1342   3.228   4.627   4.816 -0.2395 -0.5281 -0.0269
   43U      C1' 1343   3.363   4.664   4.803 -0.3267 -0.2158 -0.0626
   43U      H1' 1344   3.385   4.723   4.892 -0.2764  2.6038 -1.8327
   43U       N1 1345   3.452   4.547   4.795 -0.1405 -0.0398 -0.5539
   43U       C6 1346   3.411   4.420   4.765 -0.3514  0.0218 -0.5217
   43U       H6 1347   3.309   4.406   4.731 -0.7990 -0.5089  0.9860
   43U       C5 1348   3.499   4.318   4.767  0.1624  0.4681 -0.1813
   43U       H5 1349   3.465   4.217   4.749 -0.8396  0.1267  3.0664
   43U       C4 1350   3.637   4.345   4.800  0.0974  0.2208  0.2894
   43U       O4 1351   3.729   4.263   4.793 -0.3584 -0.2800  0.1487
   43U       N3 1352   3.673   4.474   4.835  0.4604  0.3064 -0.3872
   43U       H3 1353   3.771   4.493   4.854  0.3579  0.9353 -0.4645
   43U       C2 1354   3.585   4.580   4.817 -0.2067 -0.1678  0.0544
   43U       O2 1355   3.630   4.694   4.821  0.4376 -0.3943 -0.4400
   43U      C3' 1356   3.262   4.685   4.589 -0.2937 -0.3212  0.3047
   43U      H3' 1357   3.288   4.588   4.546  1.1543  0.4484 -0.6841
   43U      C2' 1358   3.371   4.747   4.676 -0.1377 -0.1520 -0.0100
   43U     H2'1 1359   3.465   4.723   4.625  0.0157 -1.9384  1.0393
   43U      O2' 1360   3.361   4.887   4.691  0.2396 -0.1168 -0.0528
   43U     HO'2 1361   3.453   4.914   4.694 -0.1637  1.4608 -0.7717
   43U      O3' 1362   3.213   4.769   4.486  0.3684  0.3397  0.5221
   44A        P 1363   3.283   4.768   4.341 -0.0939  0.1279  0.3012
   44A      O1P 1364   3.206   4.871   4.267 -0.4282 -0.5214 -0.2660
   44A      O2P 1365   3.290   4.631   4.285 -0.2370  0.1803  0.1524
   44A      O5' 1366   3.433   4.821   4.361 -0.0171 -0.0566  0.2124
   44A      C5' 1367   3.449   4.960   4.383  0.0089 -0.0410  0.0995
   44A     H5'1 1368   3.384   4.996   4.463  0.3363  1.4942 -0.2920
   44A     H5'2 1369   3.419   5.013   4.293  1.6474  1.6644  0.4947
   44A      C4' 1370   3.593   4.992   4.420 -0.0549 -0.2323  0.5257
   44A      H4' 1371   3.601   5.100   4.432  0.1370 -0.0319 -1.1807
   44A      O4' 1372   3.644   4.927   4.535  0.0678 -0.4859  0.3299
   44A      C1' 1373   3.779   4.895   4.511  0.1305 -0.0256  0.0545
   44A      H1' 1374   3.828   4.941   4.597 -0.5012  2.0948 -0.6497
   44A       N9 1375   3.802   4.749   4.507 -0.1284 -0.0699  0.1573
   44A       C8 1376   3.715   4.647   4.481 -0.0114 -0.0467 -0.3407
   44A       H8 1377   3.614   4.673   4.452  0.2027  1.1974 -0.0300
   44A       N7 1378   3.760   4.526   4.501  0.2131  0.0724 -0.1203
   44A       C5 1379   3.891   4.551   4.541  0.0553  0.1696  0.3449
   44A       C6 1380   3.999   4.470   4.579  0.0170 -0.2826 -0.4772
   44A       N6 1381   3.985   4.337   4.584 -0.6201 -0.2026  0.1052
   44A      H61 1382   3.893   4.305   4.559 -0.8255  0.1281  0.4385
   44A      H62 1383   4.055   4.273   4.619 -0.1686 -0.2609 -0.8759
   44A       N1 1384   4.122   4.520   4.597 -0.3800  0.4869  0.1628
   44A       C2 1385   4.136   4.651   4.581 -0.2195  0.3909 -0.5274
   44A       H2 1386   4.235   4.690   4.597 -0.0807  0.1849 -0.8757
   44A       N3 1387   4.042   4.740   4.553  0.0018  0.5113 -0.8923
   44A       C4 1388   3.919   4.685   4.538  0.0129  0.1747  0.1322
   44A      C3' 1389   3.689   4.959   4.306  0.0278  0.4691  0.3875
   44A      H3' 1390   3.671   4.858   4.268  2.0946  0.1221  0.1874
   44A      C2' 1391   3.823   4.960   4.380  0.2051 -0.0287  0.0778
   44A     H2'1 1392   3.898   4.898   4.330 -2.0710 -0.9571 -2.4636
   44A      O2' 1393   3.869   5.092   4.391 -0.3322  0.1432  0.3059
   44A     HO'2 1394   3.855   5.126   4.302  1.3920  0.1421 -0.0099
   44A      O3' 1395   3.697   5.051   4.200  0.1249 -0.2255 -0.2153
   45G        P 1396   3.726   5.001   4.049  0.0899 -0.3197 -0.1911
   45G      O1P 1397   3.687   5.118   3.968  0.4781 -0.2228 -0.2405
   45G      O2P 1398   3.663   4.870   4.021 -0.1205 -0.3579  0.4439
   45G      O5' 1399   3.886   4.983   4.043  0.1450  0.0292  0.1639
   45G      C5' 1400   3.977   5.088   4.063  0.4989 -0.2376 -0.0298
   45G     H5'1 1401   3.932   5.153   4.138  1.3579 -0.0578  0.3463
   45G     H5'2 1402   3.983   5.143   3.969  0.7121 -0.5314 -0.1894
   45G      C4' 1403   4.111   5.028   4.106  0.4646 -0.1477  0.2091
   45G      H4' 1404   4.182   5.111   4.111  0.3349 -0.0685  0.7507
   45G      O4' 1405   4.112   4.959   4.229 -0.4431 -0.0276  0.2938
   45G      C1' 1406   4.214   4.861   4.220 -0.1943  0.2754 -0.2653
   45G      H1' 1407   4.293   4.872   4.295 -0.9679  0.3634  0.5617
   45G       N9 1408   4.160   4.725   4.233 -0.2881  0.3349 -0.0320
   45G       C8 1409   4.031   4.686   4.212 -0.0519 -0.6079  0.1971
   45G       H8 1410   3.953   4.759   4.194 -0.6212 -1.4070 -0.6948
   45G       N7 1411   4.002   4.560   4.232  0.0645 -0.7083 -0.2373
   45G       C5 1412   4.129   4.509   4.261  0.3281 -0.1082 -0.3251
   45G       C6 1413   4.164   4.375   4.289  0.0949  0.0204  0.6165
   45G       O6 1414   4.093   4.275   4.288  0.1856 -0.0481 -0.2945
   45G       N1 1415   4.300   4.355   4.307  0.1375 -0.1417  0.1447
   45G       H1 1416   4.337   4.262   4.320  1.7805  0.3939 -0.4539
   45G       C2 1417   4.390   4.460   4.302 -0.1600  0.0832 -0.6258
   45G       N2 1418   4.518   4.435   4.336 -0.5177  0.0925  0.8051
   45G      H21 1419   4.547   4.341   4.360 -0.0719 -0.0225 -0.1490
   45G      H22 1420   4.580   4.514   4.334 -0.5478  0.1303  1.3467
   45G       N3 1421   4.357   4.588   4.286 -0.2681  0.1752  0.2754
   45G       C4 1422   4.225   4.607   4.263 -0.2172  0.4280  0.1842
   45G      C3' 1423   4.175   4.939   4.000  0.4263 -0.0859  0.1339
   45G      H3' 1424   4.108   4.861   3.963 -0.0728  0.9836 -1.2808
   45G      C2' 1425   4.282   4.868   4.084  0.4926 -0.0842  0.0518
   45G     H2'1 1426   4.297   4.769   4.042 -1.3831  0.2586 -1.6178
   45G      O2' 1427   4.405   4.936   4.094  0.3052  0.2874 -0.1101
   45G     HO'2 1428   4.425   4.948   4.001 -0.8569 -3.2346 -0.9658
   45G      O3' 1429   4.234   5.016   3.898 -0.0888  0.1182 -0.0104
   46A        P 1430   4.265   4.953   3.753  0.0556  0.1991 -0.0145
   46A      O1P 1431   4.326   5.060   3.671  0.5711  0.2703  0.4537
   46A      O2P 1432   4.149   4.874   3.707  0.1895  0.0576 -0.1132
   46A      O5' 1433   4.378   4.844   3.793  0.0111  0.1990  0.1130
   46A      C5' 1434   4.514   4.880   3.792 -0.0311  0.3672  0.3198
   46A     H5'1 1435   4.545   4.939   3.878  1.6212 -0.3663  0.2782
   46A     H5'2 1436   4.546   4.928   3.700 -0.3164  0.0681  0.0627
   46A      C4' 1437   4.588   4.746   3.804 -0.0477  0.3169 -0.1134
   46A      H4' 1438   4.688   4.789   3.813  0.4834 -1.1663  1.7145
   46A      O4' 1439   4.574   4.678   3.927  0.3506 -0.0610 -0.2772
   46A      C1' 1440   4.591   4.539   3.913 -0.1139 -0.1527  0.0447
   46A      H1' 1441   4.655   4.494   3.989 -1.0888  1.3906  1.8455
   46A       N9 1442   4.464   4.464   3.920 -0.2791  0.1490  0.2689
   46A       C8 1443   4.337   4.512   3.904 -0.3278  0.2537  0.9141
   46A       H8 1444   4.310   4.614   3.880 -1.6359  0.2467  2.1907
   46A       N7 1445   4.251   4.422   3.941 -0.3168 -0.3316 -0.4228
   46A       C5 1446   4.324   4.306   3.965  0.0995  0.1091  0.4822
   46A       C6 1447   4.295   4.173   3.999  0.4259 -0.0548  0.1269
   46A       N6 1448   4.174   4.129   4.036  0.4453 -0.1941  0.0299
   46A      H61 1449   4.102   4.195   4.064  0.1903 -0.0809 -0.8644
   46A      H62 1450   4.160   4.033   4.064  1.9196 -0.4798 -0.1479
   46A       N1 1451   4.392   4.085   4.026  0.2598 -0.3067 -0.0862
   46A       C2 1452   4.518   4.127   4.020  0.1773 -0.1263 -0.6711
   46A       H2 1453   4.592   4.065   4.067 -0.4918 -1.7702 -1.7122
   46A       N3 1454   4.560   4.251   3.996  0.1084  0.0276 -0.0295
   46A       C4 1455   4.458   4.334   3.963  0.1053  0.0601  0.0612
   46A      C3' 1456   4.590   4.639   3.696 -0.0789  0.3365 -0.1336
   46A      H3' 1457   4.488   4.618   3.664 -1.0313  3.5196  0.4610
   46A      C2' 1458   4.650   4.522   3.773  0.1101  0.5524  0.0479
   46A     H2'1 1459   4.624   4.423   3.736 -1.5584  0.0453  2.3439
   46A      O2' 1460   4.787   4.540   3.801  0.3798 -0.6853 -0.3983
   46A     HO'2 1461   4.831   4.602   3.742 -0.4001  0.9670  0.6900
   46A      O3' 1462   4.662   4.679   3.582 -0.3637  0.1892 -0.3670
   47G        P 1463   4.666   4.598   3.442  0.3961 -0.2440 -0.1015
   47G      O1P 1464   4.776   4.662   3.365  0.5090  0.3025  0.5005
   47G      O2P 1465   4.526   4.604   3.394  0.2406  0.1697  0.3873
   47G      O5' 1466   4.704   4.449   3.490 -0.1514 -0.3772 -0.0763
   47G      C5' 1467   4.838   4.406   3.495 -0.0988 -0.2507 -0.3955
   47G     H5'1 1468   4.894   4.450   3.577  0.6984 -1.8263 -0.0436
   47G     H5'2 1469   4.894   4.441   3.408  1.7243 -0.4438  0.6443
   47G      C4' 1470   4.840   4.259   3.538 -0.5705 -0.1243  0.0663
   47G      H4' 1471   4.943   4.230   3.558 -0.4557  0.6635  0.6606
   47G      O4' 1472   4.761   4.234   3.652 -0.1518 -0.7409  0.2251
   47G      C1' 1473   4.711   4.103   3.655  0.1619 -0.8604  0.2109
   47G      H1' 1474   4.752   4.046   3.739  1.2962  1.5718  1.4092
   47G       N9 1475   4.565   4.106   3.673  0.1432 -0.0411 -0.0465
   47G       C8 1476   4.479   4.205   3.633 -0.0175 -0.3924 -0.5893
   47G       H8 1477   4.517   4.300   3.597 -0.0687  0.4950  1.5761
   47G       N7 1478   4.356   4.176   3.663  0.2068 -0.4094  0.3313
   47G       C5 1479   4.357   4.044   3.708 -0.3833 -0.5629 -0.1017
   47G       C6 1480   4.253   3.954   3.745 -0.4904 -0.5356 -0.3356
   47G       O6 1481   4.134   3.974   3.767 -0.1876  0.3410  0.5768
   47G       N1 1482   4.294   3.823   3.766 -0.1134 -0.3343  0.1882
   47G       H1 1483   4.221   3.759   3.793  0.5060 -1.2563 -0.3004
   47G       C2 1484   4.430   3.799   3.779 -0.0517  0.1050  0.3919
   47G       N2 1485   4.452   3.674   3.821  0.2899  0.0887  0.1644
   47G      H21 1486   4.381   3.602   3.831 -0.2188  0.6173  0.4010
   47G      H22 1487   4.551   3.656   3.825  0.2947  0.1588  0.3648
   47G       N3 1488   4.532   3.877   3.743 -0.2559 -0.0556 -0.5522
   47G       C4 1489   4.485   3.997   3.702 -0.1299  0.1297 -0.1493
   47G      C3' 1490   4.786   4.161   3.434  0.0141  0.0433 -0.4055
   47G      H3' 1491   4.688   4.200   3.405  0.5885  1.0188 -1.0651
   47G      C2' 1492   4.766   4.041   3.527  0.0739  0.1120 -0.3030
   47G     H2'1 1493   4.694   3.973   3.480 -0.4180  0.3404  0.1178
   47G      O2' 1494   4.891   3.979   3.549 -0.1062  0.0258  0.4912
   47G     HO'2 1495   4.943   3.989   3.469 -1.3331 -0.6663 -0.4348
   47G      O3' 1496   4.874   4.147   3.326  0.5293  0.0209  0.0154
   48U        P 1497   4.812   4.092   3.188 -0.0127  0.0994  0.2257
   48U      O1P 1498   4.916   4.089   3.082 -0.0148  0.0147  0.2260
   48U      O2P 1499   4.690   4.173   3.168 -0.2193 -0.3026 -0.1427
   48U      O5' 1500   4.764   3.941   3.217 -0.0280 -0.0243 -0.4292
   48U      C5' 1501   4.855   3.836   3.237  0.3063  0.3525  0.0419
   48U     H5'1 1502   4.901   3.849   3.335 -2.2260  0.7020  1.2543
   48U     H5'2 1503   4.930   3.821   3.160 -0.4696  0.6717 -0.7858
   48U      C4' 1504   4.783   3.702   3.257  0.3290  0.2524 -0.5330
   48U      H4' 1505   4.867   3.636   3.278  0.4799 -0.5025 -3.1869
   48U      O4' 1506   4.716   3.711   3.381  0.5225 -0.4471 -0.3747
   48U      C1' 1507   4.599   3.634   3.370  0.0803  0.2591 -0.7182
   48U      H1' 1508   4.600   3.558   3.448 -0.7048 -0.8409 -1.7366
   48U       N1 1509   4.476   3.716   3.374 -0.0059  0.0918  0.2414
   48U       C6 1510   4.478   3.851   3.353  0.2510  0.0457 -0.0384
   48U       H6 1511   4.569   3.905   3.329 -1.0237  1.0838 -2.9497
   48U       C5 1512   4.372   3.929   3.379 -0.0988 -0.3792 -0.1759
   48U       H5 1513   4.369   4.037   3.372 -2.1273 -0.2203  1.8514
   48U       C4 1514   4.246   3.870   3.421 -0.0645  0.1015  0.6254
   48U       O4 1515   4.140   3.931   3.428 -0.0045  0.2783  0.0558
   48U       N3 1516   4.245   3.732   3.431 -0.3067  0.0901  0.4425
   48U       H3 1517   4.160   3.682   3.454  1.2824 -3.2310 -0.2956
   48U       C2 1518   4.361   3.657   3.422 -0.2017  0.3027  0.0292
   48U       O2 1519   4.346   3.536   3.441 -0.7871  0.3093 -0.3475
   48U      C3' 1520   4.685   3.656   3.150  0.1178  0.4970 -0.4463
   48U      H3' 1521   4.626   3.737   3.108 -2.4292 -0.8213  0.3880
   48U      C2' 1522   4.600   3.562   3.235  0.5895 -0.0438 -0.5586
   48U     H2'1 1523   4.498   3.545   3.201  0.3080 -1.2085  0.7892
   48U      O2' 1524   4.666   3.439   3.251  0.5709  0.0675  0.4163
   48U     HO'2 1525   4.608   3.363   3.254  1.1736 -0.3764  1.5663
   48U      O3' 1526   4.743   3.591   3.039  0.0368 -0.1268 -0.1271
   49C        P 1527   4.679   3.594   2.892 -0.1698  0.2238 -0.0303
   49C      O1P 1528   4.779   3.532   2.801 -0.1960  0.5864 -0.3109
   49C      O2P 1529   4.643   3.734   2.858 -0.3011  0.1532 -0.1871
   49C      O5' 1530   4.546   3.506   2.914  0.1665 -0.1152  0.6865
   49C      C5' 1531   4.558   3.366   2.914  0.0606 -0.1295 -0.0572
   49C     H5'1 1532   4.629   3.325   2.986 -0.7631 -2.0002 -0.2482
   49C     H5'2 1533   4.577   3.319   2.817 -0.7829  1.1606 -0.8764
   49C      C4' 1534   4.434   3.298   2.972  0.0684 -0.0036  0.1083
   49C      H4' 1535   4.458   3.195   2.999  2.2789  0.0405 -1.3934
   49C      O4' 1536   4.380   3.354   3.090  0.4217  0.1522  0.1969
   49C      C1' 1537   4.241   3.340   3.102  0.4837 -0.3681  0.3492
   49C      H1' 1538   4.201   3.280   3.184 -3.7465  1.3409 -0.1747
   49C       N1 1539   4.181   3.474   3.109 -0.1653 -0.6346  0.0571
   49C       C6 1540   4.255   3.588   3.090  0.0994 -0.7916  0.1397
   49C       H6 1541   4.357   3.576   3.056  0.5544  1.1907  0.6985
   49C       C5 1542   4.198   3.709   3.101  0.0344 -0.8229  0.1475
   49C       H5 1543   4.252   3.802   3.089  1.1500 -1.1754  2.0728
   49C       C4 1544   4.059   3.715   3.137  0.0106  0.3671 -0.0804
   49C       N4 1545   4.000   3.831   3.168 -0.2306  0.1951  0.1130
   49C      H41 1546   4.058   3.914   3.164  0.1475  0.0955  2.2145
   49C      H42 1547   3.909   3.823   3.210  0.8841 -0.6654  2.5890
   49C       N3 1548   3.991   3.604   3.170  0.6694 -0.1731 -0.5078
   49C       C2 1549   4.049   3.483   3.149 -0.1633 -0.6822  0.0745
   49C       O2 1550   3.983   3.381   3.167 -0.2143 -0.5606  0.5810
   49C      C3' 1551   4.314   3.304   2.877 -0.1084  0.2552  0.3478
   49C      H3' 1552   4.302   3.407   2.845  0.7496  0.8743  1.8870
   49C      C2' 1553   4.204   3.263   2.975 -0.2396  0.2290  0.1889
   49C     H2'1 1554   4.104   3.293   2.945  0.5957  2.0216 -0.9953
   49C      O2' 1555   4.217   3.128   3.013  0.1545  0.0691 -0.4987
   49C     HO'2 1556   4.272   3.084   2.947  2.2219  1.2040  0.3694
   49C      O3' 1557   4.309   3.224   2.762 -0.2234  0.4980  0.1839
   50G        P 1558   4.207   3.251   2.640 -0.1375 -0.1123 -0.0297
   50G      O1P 1559   4.238   3.139   2.548 -0.1806 -0.0089 -0.1716
   50G      O2P 1560   4.234   3.383   2.578  0.6315 -0.3686 -0.2524
   50G      O5' 1561   4.051   3.229   2.672 -0.2684  0.5995 -0.1504
   50G      C5' 1562   4.001   3.102   2.708 -0.0550  0.3972 -0.5495
   50G     H5'1 1563   4.046   3.057   2.797 -0.3713  0.2461 -0.4654
   50G     H5'2 1564   4.015   3.041   2.619 -0.1572  2.2570 -1.8988
   50G      C4' 1565   3.861   3.110   2.769  0.1151  0.1843 -0.1254
   50G      H4' 1566   3.826   3.011   2.799  1.0626  0.5249  2.2408
   50G      O4' 1567   3.865   3.196   2.880  0.3171  0.0406 -0.0195
   50G      C1' 1568   3.747   3.274   2.880  0.2722 -0.0283  0.1522
   50G      H1' 1569   3.688   3.254   2.970 -1.7426 -0.9033 -1.3004
   50G       N9 1570   3.780   3.418   2.882  0.2511 -0.0091 -0.5787
   50G       C8 1571   3.899   3.484   2.863  0.0459  0.3919 -0.4916
   50G       H8 1572   3.990   3.432   2.837 -0.4283 -0.7282  0.0223
   50G       N7 1573   3.888   3.614   2.866  0.0001  0.3830 -0.2848
   50G       C5 1574   3.756   3.633   2.907  0.2899 -0.1068  0.9354
   50G       C6 1575   3.682   3.752   2.931  0.2686  0.0506  0.1327
   50G       O6 1576   3.713   3.870   2.921  0.1852  0.0287 -0.4235
   50G       N1 1577   3.551   3.730   2.972 -0.0440  0.5756 -0.5709
   50G       H1 1578   3.494   3.808   3.001  0.6495  1.3600 -1.2482
   50G       C2 1579   3.498   3.604   2.991  0.4468  0.3563 -0.6289
   50G       N2 1580   3.370   3.599   3.030  0.5225  0.2948 -0.3875
   50G      H21 1581   3.314   3.680   3.053  0.9385  0.3744  0.3942
   50G      H22 1582   3.322   3.510   3.035  0.2899  0.4635  0.7475
   50G       N3 1583   3.560   3.492   2.953  0.2432  0.0386 -0.0425
   50G       C4 1584   3.689   3.514   2.920  0.4019 -0.2344  0.3888
   50G      C3' 1585   3.764   3.169   2.666 -0.0145 -0.0195 -0.1224
   50G      H3' 1586   3.824   3.242   2.611 -0.2337 -0.4461 -0.9272
   50G      C2' 1587   3.664   3.238   2.758  0.2646  0.0509  0.1336
   50G     H2'1 1588   3.620   3.318   2.699 -0.4487 -0.2602  0.2324
   50G      O2' 1589   3.560   3.151   2.797 -0.4611  0.6734 -0.3815
   50G     HO'2 1590   3.519   3.134   2.711  2.0404 -1.5410 -1.2639
   50G      O3' 1591   3.709   3.077   2.576 -0.2074 -0.1489  0.1272
   50G      H3T 1592   3.697   2.994   2.622 -0.8400 -0.6922 -0.9602
   51SOL     OW 1593   2.839   1.045  12.400  0.1810  0.7798  0.6837
   51SOL    HW1 1594   2.842   0.949  12.390 -1.7532  0.5530  1.7897
   51SOL    HW2 1595   2.910   1.064  12.461  2.0622  0.3752 -1.2614
   52SOL     OW 1596   1.181   5.792   3.773  0.0114  0.2291 -0.0850
   52SOL    HW1 1597   1.267   5.833   3.766  0.3434 -0.5464 -0.6732
   52SOL    HW2 1598   1.196   5.700   3.749 -0.7228 -0.2350  1.1549
   53SOL     OW 1599   0.578   6.821  11.525 -0.0174  0.1869 -0.3583
   53SOL    HW1 1600   0.491   6.860  11.538 -0.3842 -0.2770 -1.3306
   53SOL    HW2 1601   0.639   6.888  11.555 -0.7145  0.4246  0.5703
   54SOL     OW 1602   7.133   7.630  10.494  0.4501  0.1808  0.7551
   54SOL    HW1 1603   7.046   7.609  10.527  0.9765 -1.2622  1.2883
   54SOL    HW2 1604   7.139   7.582  10.411  0.5635  0.6560  0.4870
   55SOL     OW 1605   0.817   3.846   0.437  0.4419  0.2195 -0.2828
   55SOL    HW1 1606   0.843   3.929   0.477 -0.5237  0.0594  0.6995
   55SOL    HW2 1607   0.830   3.860   0.343  2.2029  0.7928  0.0102
   56SOL     OW 1608   7.888   5.135   8.565 -0.2646  0.2648  0.1780
   56SOL    HW1 1609   7.884   5.213   8.509 -1.2221 -1.1784 -1.9236
   56SOL    HW2 1610   7.871   5.062   8.505  1.1827 -1.6480  1.9299
   57SOL     OW 1611   5.592   4.950  10.002  0.6219  0.3539  0.1763
   57SOL    HW1 1612   5.532   4.889   9.958 -0.8168  2.3546 -0.7817
   57SOL    HW2 1613   5.568   4.943  10.095 -1.2541  1.2149 -0.2026
   58SOL     OW 1614   0.550   6.141   5.624 -0.3387  0.4861 -0.8560
   58SOL    HW1 1615   0.488   6.069   5.625 -0.5257  0.6363 -1.5805
   58SOL    HW2 1616   0.594   6.135   5.540  0.2593  0.7018 -0.5689
   59SOL     OW 1617   4.193   6.072   2.917  0.1969  0.5837  0.1669
   59SOL    HW1 1618   4.122   6.053   2.855 -0.4538  0.6541  0.8846
   59SOL    HW2 1619   4.272   6.044   2.871 -0.4925 -1.7961  0.2830
   60SOL     OW 1620   4.206   1.526  12.465  0.1357  0.2363 -0.0031
   60SOL    HW1 1621   4.256   1.452  12.431 -0.3513 -0.6070  1.0503
   60SOL    HW2 1622   4.124   1.525  12.415  0.1375  0.0549 -0.0039
   61SOL     OW 1623   0.606   0.506   2.677 -0.0598 -0.2448  0.1631
   61SOL    HW1 1624   0.555   0.513   2.596  0.6843  0.9773 -0.2286
   61SOL    HW2 1625   0.595   0.592   2.718 -1.7787 -1.3597  2.2215
   62SOL     OW 1626   1.248   6.549   3.159  0.2941 -0.1612  0.0494
   62SOL    HW1 1627   1.283   6.501   3.085  2.2970  0.3824  0.5898
   62SOL    HW2 1628   1.274   6.640   3.144  0.4688  0.0094  1.2551
   63SOL     OW 1629   3.794   6.491   3.676  0.0561  0.2293 -0.7220
   63SOL    HW1 1630   3.714   6.459   3.719  0.4102  1.4453  0.9455
   63SOL    HW2 1631   3.792   6.586   3.688  1.4284  0.3499 -1.2301
   64SOL     OW 1632   7.780   6.526   0.587 -0.4148 -0.3922  0.0178
   64SOL    HW1 1633   7.762   6.503   0.496  0.5298  0.0562 -0.2964
   64SOL    HW2 1634   7.855   6.471   0.611 -0.1656  0.0476  0.2704
   65SOL     OW 1635   0.027   0.805   2.672  0.1836  0.4615  0.4904
   65SOL    HW1 1636   0.047   0.858   2.750  0.4954  0.9393  0.0900
   65SOL    HW2 1637  -0.051   0.755   2.697 -1.2103  2.4011  0.2852
   66SOL     OW 1638   2.284   7.389  12.066  0.3035  0.4203  0.8108
   66SOL    HW1 1639   2.259   7.466  12.116  0.4011 -0.1680  1.7869
   66SOL    HW2 1640   2.276   7.316  12.128 -0.2758 -0.4285 -0.2305
   67SOL     OW 1641   2.115   7.758   8.239  0.0461 -0.0586 -0.5211
   67SOL    HW1 1642   2.196   7.785   8.284 -0.3578  1.1278 -0.4671
   67SOL    HW2 1643   2.143   7.689   8.179  1.0846  0.2601 -0.4313
   68SOL     OW 1644   6.892   7.325   7.120  0.0581  0.1413  0.1990
   68SOL    HW1 1645   6.863   7.266   7.051 -0.4501 -0.0526  0.5752
   68SOL    HW2 1646   6.822   7.391   7.125  0.2724  0.3624  0.2793
   69SOL     OW 1647   1.479   4.520  10.133  0.3001 -0.3740 -0.5247
   69SOL    HW1 1648   1.540   4.532  10.205 -0.4450  0.6099 -0.0305
   69SOL    HW2 1649   1.393   4.515  10.175 -0.0481 -0.7871 -1.2719
   70SOL     OW 1650   6.678   3.804   5.765 -0.2357 -0.0168  0.4328
   70SOL    HW1 1651   6.589   3.790   5.796 -0.6229  2.5007  0.6959
   70SOL    HW2 1652   6.669   3.854   5.684  0.9110  0.6252  0.6667
   71SOL     OW 1653   4.858   5.538  12.180  0.2682  0.1469 -0.0311
   71SOL    HW1 1654   4.863   5.548  12.085 -0.3241  0.5938 -0.0153
   71SOL    HW2 1655   4.940   5.576  12.212  1.3279 -1.6342 -0.4666
   72SOL     OW 1656   1.146   0.455   9.075  0.4624 -0.0510  0.3073
   72SOL    HW1 1657   1.066   0.472   9.125  1.3122  0.5911  1.5039
   72SOL    HW2 1658   1.121   0.386   9.013 -1.2623  0.8097 -0.0185
   73SOL     OW 1659   3.789   4.225   1.190  0.4955 -0.9560  0.0318
   73SOL    HW1 1660   3.783   4.242   1.284 -0.8652 -1.4136  0.0478
   73SOL    HW2 1661   3.706   4.184   1.168  0.7883 -0.8316 -1.3871
   74SOL     OW 1662   2.998   6.188   4.643  0.4833 -0.0409 -0.3207
   74SOL    HW1 1663   3.024   6.275   4.614 -1.0044  0.5739  0.1252
   74SOL    HW2 1664   2.982   6.197   4.737  0.6365 -0.8771 -0.2040
   75SOL     OW 1665   5.640   5.798   2.666 -0.7111  0.3279 -0.6638
   75SOL    HW1 1666   5.697   5.835   2.599 -1.2446  1.4263 -0.5395
   75SOL    HW2 1667   5.566   5.762   2.618 -0.2094 -0.5821 -0.7826
   76SOL     OW 1668   3.753   4.359  11.521  0.5817  0.4425 -0.2100
   76SOL    HW1 1669   3.767   4.300  11.594 -0.3824  0.2177 -0.1919
   76SOL    HW2 1670   3.658   4.368  11.515  0.6171  0.1093 -1.7140
   77SOL     OW 1671   4.872   4.791  10.317 -0.1867  0.4089 -0.0525
   77SOL    HW1 1672   4.947   4.735  10.298 -1.0293 -1.1872  1.0716
   77SOL    HW2 1673   4.889   4.825  10.405  0.2774  1.9074 -0.6921
   78SOL     OW 1674   2.818   6.527   4.542 -0.1523  0.1296 -0.0254
   78SOL    HW1 1675   2.813   6.451   4.484  0.4300  0.3707 -0.3938
   78SOL    HW2 1676   2.776   6.597   4.492  0.1035  0.2692 -0.0428
   79SOL     OW 1677   3.443   2.056   2.413 -0.4832 -0.2798 -0.6252
   79SOL    HW1 1678   3.443   2.142   2.372 -0.7142 -0.0772 -0.2150
   79SOL    HW2 1679   3.355   2.021   2.396 -0.9578  0.2559  0.5877
   80SOL     OW 1680   1.046   7.019   5.107 -0.3169 -0.2471  0.6689
   80SOL    HW1 1681   0.966   7.058   5.141 -0.6025 -1.7885  1.8840
   80SOL    HW2 1682   1.116   7.075   5.141 -0.8104  0.6462  0.2582
   81SOL     OW 1683   7.175   7.926   7.428  0.1195  0.4438  0.6631
   81SOL    HW1 1684   7.101   7.905   7.485  1.3406 -1.5695  1.6036
   81SOL    HW2 1685   7.235   7.975   7.484 -0.2550  1.7377  0.0030
   82SOL     OW 1686   4.681   7.067   2.206 -0.5084 -0.0920  0.4757
   82SOL    HW1 1687   4.766   7.030   2.230  0.9829  1.8905 -1.3520
   82SOL    HW2 1688   4.670   7.042   2.114 -1.2797  0.7247  0.3315
   83SOL     OW 1689   5.532   0.815   5.604 -0.2487 -0.1137  0.0531
   83SOL    HW1 1690   5.511   0.752   5.674  0.3364 -1.2871 -0.7947
   83SOL    HW2 1691   5.512   0.768   5.523 -0.4744  1.0623 -0.5948
   84SOL     OW 1692   2.682   7.297  11.957 -0.4607  0.2179 -0.4530
   84SOL    HW1 1693   2.751   7.355  11.991 -0.3561  0.5678 -1.2446
   84SOL    HW2 1694   2.647   7.254  12.035  0.6370  0.0507 -0.0337
   85SOL     OW 1695   5.655   7.623   1.430  0.1540 -0.1966  0.0088
   85SOL    HW1 1696   5.708   7.638   1.508  1.1183 -1.4959 -0.3552
   85SOL    HW2 1697   5.696   7.676   1.362  0.8848 -1.0358 -0.2202
   86SOL     OW 1698   0.968   4.927   8.874 -1.0094  0.3952  0.6134
   86SOL    HW1 1699   0.995   4.898   8.962 -0.2011 -0.6449  0.0469
   86SOL    HW2 1700   0.874   4.909   8.870 -0.5581 -2.2091  0.3087
   87SOL     OW 1701   7.338   5.345   6.733  0.1756 -0.1896 -0.8052
   87SOL    HW1 1702   7.388   5.357   6.652  1.3929  2.9077  0.2499
   87SOL    HW2 1703   7.261   5.401   6.721 -0.4480 -0.9477 -0.4064
   88SOL     OW 1704   1.234   3.407   6.913 -0.0924  0.5246 -0.2223
   88SOL    HW1 1705   1.201   3.324   6.948 -2.8934  1.7114  0.2803
   88SOL    HW2 1706   1.209   3.405   6.821  0.8017  0.3881 -0.4684
   89SOL     OW 1707   1.756   2.473  11.527 -0.3047  0.4551 -0.7362
   89SOL    HW1 1708   1.840   2.432  11.550 -0.9701 -0.1077  0.8197
   89SOL    HW2 1709   1.778   2.565  11.512  0.6058  0.2963 -0.4256
   90SOL     OW 1710   1.186   0.431   4.834  0.7999  0.0393  0.1218
   90SOL    HW1 1711   1.172   0.505   4.776  0.6109 -0.6112 -0.6803
   90SOL    HW2 1712   1.162   0.354   4.782  0.0209 -0.5212  1.2646
   91SOL     OW 1713   0.144   0.262  11.051  0.1353 -0.2654 -0.1547
   91SOL    HW1 1714   0.208   0.192  11.065 -0.5678 -0.9593 -0.3280
   91SOL    HW2 1715   0.192   0.342  11.070  0.7760 -0.8307  0.6903
   92SOL     OW 1716   1.486   3.360   9.806 -0.5238 -0.6847  0.6175
   92SOL    HW1 1717   1.476   3.290   9.870 -1.5794 -0.8814  0.2493
   92SOL    HW2 1718   1.457   3.439   9.852  1.8772 -0.2042  1.4695
   93SOL     OW 1719   6.635   5.664   9.996  0.2620  0.5317 -0.6622
   93SOL    HW1 1720   6.690   5.724  10.047 -0.1392  0.1208  0.2847
   93SOL    HW2 1721   6.559   5.717   9.970 -1.2547 -0.0657  2.1459
   94SOL     OW 1722   3.371   5.248   1.290  0.1901  0.1474  0.1428
   94SOL    HW1 1723   3.402   5.324   1.340 -1.1263  0.1882  0.9523
   94SOL    HW2 1724   3.305   5.208   1.347 -1.5382  0.3060 -1.6560
   95SOL     OW 1725   7.978   0.105   8.619 -0.0348 -0.3208 -0.1118
   95SOL    HW1 1726   8.067   0.080   8.642  0.2502  0.1011 -0.7241
   95SOL    HW2 1727   7.924   0.071   8.691  0.7241  0.2616  0.7654
   96SOL     OW 1728   0.301   6.408   2.044 -0.9337 -0.3804  0.1320
   96SOL    HW1 1729   0.366   6.356   1.997 -0.6807  0.1601 -0.1190
   96SOL    HW2 1730   0.217   6.370   2.018 -0.7366 -0.8595  0.1878
   97SOL     OW 1731   4.299   1.557   8.872 -0.6297  0.0419 -0.1292
   97SOL    HW1 1732   4.359   1.488   8.898 -0.6825 -0.6361 -1.6983
   97SOL    HW2 1733   4.347   1.638   8.889 -0.7636 -0.2921  2.2095
   98SOL     OW 1734   6.905   6.731  12.065 -0.4765 -0.3424  0.9100
   98SOL    HW1 1735   6.811   6.745  12.055 -0.1317  0.8345 -1.1396
   98SOL    HW2 1736   6.928   6.779  12.145 -1.1020  2.2586 -0.3647
   99SOL     OW 1737   5.627   6.904   1.827 -0.1611  0.0482 -0.7303
   99SOL    HW1 1738   5.562   6.967   1.856  0.2225  0.3389 -0.4982
   99SOL    HW2 1739   5.579   6.845   1.768 -0.3593  0.9599 -1.4950
  100SOL     OW 1740   4.890   7.479  10.324 -0.1498  0.1537  0.2057
  100SOL    HW1 1741   4.845   7.563  10.334 -2.3993 -0.9307 -0.0692
  100SOL    HW2 1742   4.949   7.475  10.399  0.8941  2.4487 -0.4092
  101SOL     OW 1743   7.703   6.165   0.840 -0.2611  0.0878 -0.1238
  101SOL    HW1 1744   7.686   6.077   0.807  1.5922  0.1261 -1.3379
  101SOL    HW2 1745   7.636   6.219   0.799  0.4209 -0.2978 -1.8399
  102SOL     OW 1746   1.040   2.451   2.651 -0.6596 -0.2256  0.1227
  102SOL    HW1 1747   0.955   2.435   2.611 -0.5469 -0.1467 -0.1530
  102SOL    HW2 1748   1.042   2.394   2.728 -0.9148 -0.3118  0.0658
  103SOL     OW 1749   2.964   2.877   5.436 -0.1022 -0.2521 -0.5215
  103SOL    HW1 1750   2.994   2.868   5.527 -3.0034  0.5323  0.6460
  103SOL    HW2 1751   3.010   2.954   5.404 -0.3387  0.5756  0.9780
  104SOL     OW 1752   7.433   3.240  10.819 -0.1804 -0.2956  0.4340
  104SOL    HW1 1753   7.387   3.309  10.865  1.5278 -0.8476  3.2211
  104SOL    HW2 1754   7.478   3.191  10.888  2.4491 -1.3258 -1.8078
  105SOL     OW 1755   2.294   4.757   2.723  0.5673  0.9206 -0.0894
  105SOL    HW1 1756   2.292   4.827   2.788  0.5412  0.8448 -0.0092
  105SOL    HW2 1757   2.202   4.740   2.702  0.4342 -0.6183  1.5252
  106SOL     OW 1758   7.335   0.458   6.670  0.0104 -0.0939 -0.3913
  106SOL    HW1 1759   7.331   0.530   6.608  0.3033  0.0401 -0.2570
  106SOL    HW2 1760   7.252   0.411   6.659 -0.1137  0.1745 -0.5842
  107SOL     OW 1761   5.952   3.949   9.511 -0.6758 -0.3134 -0.4234
  107SOL    HW1 1762   5.867   3.917   9.540 -0.1427 -1.4810 -0.1336
  107SOL    HW2 1763   5.992   3.986   9.590 -0.8623  0.1447 -0.5388
  108SOL     OW 1764   7.808   5.361   2.075  0.3132  0.3853 -0.4185
  108SOL    HW1 1765   7.779   5.321   2.157 -1.2690 -0.1998 -1.2279
  108SOL    HW2 1766   7.871   5.298   2.039 -0.2263 -0.1515 -0.4396
  109SOL     OW 1767   1.164   5.010   3.985  0.0740 -0.1099 -0.1580
  109SOL    HW1 1768   1.201   4.975   4.066  0.0708  0.2527  0.0004
  109SOL    HW2 1769   1.081   4.963   3.974  0.6023 -0.9886 -0.5543
  110SOL     OW 1770   7.196   5.298   4.970 -0.2616 -0.3765  0.3728
  110SOL    HW1 1771   7.211   5.361   4.900 -1.4780 -0.9104 -0.4083
  110SOL    HW2 1772   7.240   5.335   5.046 -1.4849  1.7340  0.1151
  111SOL     OW 1773   5.956   3.386   4.399 -0.3919 -0.1630  0.2971
  111SOL    HW1 1774   5.986   3.354   4.484 -1.8880  1.1672  1.4004
  111SOL    HW2 1775   5.913   3.470   4.418 -1.0124  0.0556 -1.7336
  112SOL     OW 1776   6.086   0.858   3.785  0.5698 -0.2457 -0.2092
  112SOL    HW1 1777   5.997   0.837   3.759  0.9143 -0.7759 -1.0260
  112SOL    HW2 1778   6.085   0.953   3.800 -0.5473 -0.5065  1.5964
  113SOL     OW 1779   4.579   4.682  11.215  0.3642 -0.2784  0.1273
  113SOL    HW1 1780   4.617   4.746  11.275  0.9360 -0.0627 -0.4582
  113SOL    HW2 1781   4.645   4.669  11.147 -0.5743  0.0847 -0.8970
  114SOL     OW 1782   3.620   7.800  10.458 -0.8097  0.4311  0.1977
  114SOL    HW1 1783   3.684   7.867  10.481 -0.8612  0.2626  0.8784
  114SOL    HW2 1784   3.670   7.734  10.410 -0.4864  0.3506  0.6361
  115SOL     OW 1785   5.868   7.532  10.239 -0.4721 -0.0171  0.4377
  115SOL    HW1 1786   5.862   7.529  10.334 -1.7592  0.6219  0.4027
  115SOL    HW2 1787   5.921   7.610  10.220 -2.7245  1.6563  0.6221
  116SOL     OW 1788   4.392   1.218   5.162  0.2961 -0.8297 -0.4474
  116SOL    HW1 1789   4.388   1.137   5.213 -0.8783  0.3677  1.4905
  116SOL    HW2 1790   4.314   1.266   5.188  1.7698  1.6399 -0.3177
  117SOL     OW 1791   4.796   7.747  10.281  0.1799 -0.1009 -0.2537
  117SOL    HW1 1792   4.730   7.798  10.328 -0.2280 -0.8220 -0.0305
  117SOL    HW2 1793   4.746   7.696  10.218  0.3569 -1.6437  0.7963
  118SOL     OW 1794   4.912   7.079   7.419  0.6691 -0.3151  0.7577
  118SOL    HW1 1795   4.903   6.998   7.469  1.2460 -0.6224  0.3708
  118SOL    HW2 1796   4.876   7.058   7.333 -0.2805  0.1990  1.0094
  119SOL     OW 1797   1.402   4.226   5.678  0.2402 -0.7029 -0.3836
  119SOL    HW1 1798   1.379   4.191   5.764  0.2894 -0.8903 -0.4458
  119SOL    HW2 1799   1.471   4.168   5.646 -0.5150 -1.2933 -1.0001
  120SOL     OW 1800   2.994   4.188   5.461  0.5636  0.0282 -0.2126
  120SOL    HW1 1801   3.011   4.179   5.555 -0.8809 -0.0601  0.0615
  120SOL    HW2 1802   3.069   4.145   5.419  0.3628 -1.5126  0.9176
  121SOL     OW 1803   6.550   3.235   9.667  0.2708 -0.3374 -0.4065
  121SOL    HW1 1804   6.480   3.295   9.694  1.0151  0.2140  0.3791
  121SOL    HW2 1805   6.536   3.221   9.573 -0.0003  0.9654 -0.5732
  122SOL     OW 1806   1.104   5.194   6.501  0.3021 -0.1544  0.2873
  122SOL    HW1 1807   1.022   5.211   6.454 -0.4570  0.0882  1.6669
  122SOL    HW2 1808   1.097   5.104   6.531  1.4208 -0.8031 -1.2383
  123SOL     OW 1809   0.175   4.766   5.723  0.2784  0.1143  0.1444
  123SOL    HW1 1810   0.269   4.772   5.703  0.0767  2.5155 -0.4398
  123SOL    HW2 1811   0.168   4.797   5.813 -0.0041  0.4595  0.0045
  124SOL     OW 1812   7.323   5.535   5.270 -0.2324  0.5576 -1.2223
  124SOL    HW1 1813   7.318   5.610   5.211  1.3707  1.6009 -0.1304
  124SOL    HW2 1814   7.329   5.574   5.357 -1.7587 -0.9188 -0.4117
  125SOL     OW 1815   0.559   3.397   5.723  0.4152 -0.1070 -0.0737
  125SOL    HW1 1816   0.598   3.427   5.805 -0.1655 -1.8657  0.8926
  125SOL    HW2 1817   0.505   3.470   5.694  1.8732  1.1500  0.2436
  126SOL     OW 1818   3.513   1.237   8.060 -0.7670  0.0295  0.2893
  126SOL    HW1 1819   3.518   1.282   8.144 -1.1854 -0.4885  0.5974
  126SOL    HW2 1820   3.458   1.293   8.006 -0.9345  0.0966  0.5308
  127SOL     OW 1821   2.240   2.088   7.895  0.2491  0.2329  0.3676
  127SOL    HW1 1822   2.259   2.174   7.855 -0.7698  0.4282  0.2835
  127SOL    HW2 1823   2.321   2.038   7.883  0.8561  1.1779  0.4110
  128SOL     OW 1824   3.187   2.954   5.066 -0.3346 -0.1861  0.7520
  128SOL    HW1 1825   3.198   3.048   5.084  2.9268 -0.0941 -0.9775
  128SOL    HW2 1826   3.117   2.951   5.000 -1.1137  0.9142  1.4913
  129SOL     OW 1827   3.995   5.035  10.200  0.0641 -0.2874  0.1357
  129SOL    HW1 1828   4.035   5.032  10.287 -4.4543  0.7469  2.5522
  129SOL    HW2 1829   3.997   5.127  10.176 -0.8687 -0.2128  0.3274
  130SOL     OW 1830   1.092   5.922  10.879  0.5790 -0.2684  1.0990
  130SOL    HW1 1831   1.100   5.830  10.906  2.5815  0.0434  1.7178
  130SOL    HW2 1832   1.168   5.965  10.917 -0.2674  1.6571  0.7396
  131SOL     OW 1833   6.509   5.989   0.468  0.3228 -0.2389  0.1635
  131SOL    HW1 1834   6.465   5.908   0.494 -0.0847 -0.0381  0.1054
  131SOL    HW2 1835   6.443   6.037   0.418  0.0416  0.8143  1.4924
  132SOL     OW 1836   2.295   3.008   3.788 -0.0434  0.3220  0.8647
  132SOL    HW1 1837   2.359   3.062   3.742  0.6635 -0.8858  0.3659
  132SOL    HW2 1838   2.320   3.013   3.880  1.1328 -0.5464  0.6236
  133SOL     OW 1839   4.873   1.568   0.689  0.4523  0.0692 -0.0525
  133SOL    HW1 1840   4.887   1.519   0.770  0.0393  2.6286  1.6833
  133SOL    HW2 1841   4.959   1.571   0.648  0.6593 -1.3265  0.2092
  134SOL     OW 1842   4.574   1.662   3.569 -0.0730 -0.4713  0.0066
  134SOL    HW1 1843   4.506   1.660   3.502  1.1287  0.0277 -1.2731
  134SOL    HW2 1844   4.649   1.705   3.526  1.0922 -1.1163  1.3174
  135SOL     OW 1845   6.250   3.209  11.903 -0.5087  0.0806 -0.0577
  135SOL    HW1 1846   6.162   3.240  11.922 -1.1128 -0.5039 -1.7399
  135SOL    HW2 1847   6.305   3.287  11.909 -1.3103  0.6503 -0.0329
  136SOL     OW 1848   3.465   1.987  10.430 -0.6227  0.4923 -0.4870
  136SOL    HW1 1849   3.384   2.036  10.444 -0.8524 -0.0419  0.0673
  136SOL    HW2 1850   3.533   2.055  10.425 -0.6632  0.8169  2.0995
  137SOL     OW 1851   2.915   4.994  10.618 -0.1966  0.1699  0.6128
  137SOL    HW1 1852   2.978   4.962  10.683  0.3978  0.2781  0.1025
  137SOL    HW2 1853   2.910   4.924  10.554 -2.4856 -0.9314  1.8717
  138SOL     OW 1854   4.627   3.061  10.452 -0.0518  0.2680 -0.0059
  138SOL    HW1 1855   4.634   3.059  10.357 -0.9690  0.0177 -0.0737
  138SOL    HW2 1856   4.540   3.025  10.471  0.8553 -1.5732  1.0156
  139SOL     OW 1857   0.088   6.586   1.052 -1.2773 -0.9584  0.5536
  139SOL    HW1 1858   0.112   6.495   1.032 -1.1691 -0.4721 -1.8346
  139SOL    HW2 1859   0.172   6.633   1.053 -1.4801 -0.5718 -0.1382
  140SOL     OW 1860   7.529   2.704   4.252 -0.1718  0.8445 -0.0715
  140SOL    HW1 1861   7.542   2.798   4.253  0.0736  0.8122 -0.2740
  140SOL    HW2 1862   7.444   2.691   4.295  0.3291  1.0666  1.0107
  141SOL     OW 1863   0.245   1.255   5.852  0.0199  0.2710 -0.7125
  141SOL    HW1 1864   0.285   1.335   5.887 -0.3034 -0.9625  2.9916
  141SOL    HW2 1865   0.317   1.192   5.847 -0.4362 -0.4894  1.1036
  142SOL     OW 1866   6.838   6.473  11.493 -0.0419 -0.1330 -0.1257
  142SOL    HW1 1867   6.771   6.436  11.435 -0.2287  0.8968 -0.5853
  142SOL    HW2 1868   6.918   6.474  11.441 -0.1012  0.3519 -0.2134
  143SOL     OW 1869   6.356   7.227   9.803  0.3121  0.1778  0.3675
  143SOL    HW1 1870   6.435   7.281   9.799  0.3745  0.0840  0.3418
  143SOL    HW2 1871   6.284   7.290   9.803  0.3827  0.2596  0.2397
  144SOL     OW 1872   1.154   4.482  10.668  0.1453  0.2051 -0.2292
  144SOL    HW1 1873   1.230   4.445  10.713  0.4167  0.0585 -0.7966
  144SOL    HW2 1874   1.089   4.495  10.737  0.1992 -0.9172  0.0625
  145SOL     OW 1875   2.295   1.171  12.446 -0.4215 -0.0607 -0.3695
  145SOL    HW1 1876   2.281   1.125  12.529  3.7440 -0.8607  0.1605
  145SOL    HW2 1877   2.362   1.118  12.402 -2.0333  0.6759 -4.0487
  146SOL     OW 1878   7.051   3.740   7.164 -0.8183  0.4216  0.0993
  146SOL    HW1 1879   7.145   3.755   7.173 -0.2309 -1.6451 -1.7339
  146SOL    HW2 1880   7.033   3.665   7.221 -1.4597  0.9747  0.6564
  147SOL     OW 1881   3.751   5.727  10.441 -0.0186  0.0747  0.0948
  147SOL    HW1 1882   3.817   5.788  10.473  0.2919 -0.1490 -0.1091
  147SOL    HW2 1883   3.765   5.724  10.346  1.0318 -1.5231  0.2701
  148SOL     OW 1884   6.156   5.026   6.214 -0.0945 -0.1171 -0.5093
  148SOL    HW1 1885   6.133   5.075   6.135  1.3145 -0.7740 -1.3651
  148SOL    HW2 1886   6.229   5.075   6.252  0.7016 -1.0088 -0.8565
  149SOL     OW 1887   5.073   7.050   3.809 -0.2519 -0.3066  0.6781
  149SOL    HW1 1888   5.059   6.955   3.815 -1.2757 -0.2072  0.1572
  149SOL    HW2 1889   4.986   7.085   3.790  0.5022  0.5229 -1.5167
  150SOL     OW 1890   4.690   3.006   3.123  0.1754 -0.4399 -0.2839
  150SOL    HW1 1891   4.746   2.941   3.165  0.5191 -1.0460 -1.6574
  150SOL    HW2 1892   4.659   3.061   3.196 -1.5576 -3.1618  1.2007
  151SOL     OW 1893   5.889   4.192  11.517 -1.5014 -0.2952  0.5351
  151SOL    HW1 1894   5.825   4.263  11.511  0.2365  1.3176  0.0187
  151SOL    HW2 1895   5.966   4.225  11.471  0.0907 -1.7177  1.9994
  152SOL     OW 1896   5.479   6.230   1.720 -0.2846  0.2565 -0.5060
  152SOL    HW1 1897   5.513   6.265   1.803  2.5699 -0.2495 -1.3602
  152SOL    HW2 1898   5.405   6.287   1.699 -1.3878  0.1700  2.5272
  153SOL     OW 1899   2.360   2.939   8.618 -0.4139 -0.6297 -0.1604
  153SOL    HW1 1900   2.278   2.984   8.636 -0.4825  0.4980 -2.8083
  153SOL    HW2 1901   2.427   3.006   8.631 -0.0191 -1.1797  0.7052
  154SOL     OW 1902   5.198   2.832   5.892  0.2019 -0.5880  0.1428
  154SOL    HW1 1903   5.216   2.893   5.820 -2.1724 -0.7940 -0.7243
  154SOL    HW2 1904   5.230   2.877   5.970 -0.2404  1.1930 -0.6370
  155SOL     OW 1905   1.492   2.294   2.138 -0.0588  0.5603  0.6070
  155SOL    HW1 1906   1.586   2.277   2.144  0.0794  0.3330 -1.4961
  155SOL    HW2 1907   1.456   2.217   2.095 -0.6515  2.0361 -1.7060
  156SOL     OW 1908   4.465   7.073   4.106  0.0846  0.1733 -0.1699
  156SOL    HW1 1909   4.382   7.032   4.082  0.0681  0.4497 -0.6046
  156SOL    HW2 1910   4.472   7.060   4.200 -0.5481  0.3155 -0.0999
  157SOL     OW 1911   4.262   6.862   8.295 -0.1419 -0.2445 -0.2230
  157SOL    HW1 1912   4.215   6.930   8.246 -1.7347 -0.9405  0.2795
  157SOL    HW2 1913   4.354   6.878   8.274 -0.5121  1.6301 -0.6721
  158SOL     OW 1914   2.859   5.858  10.852 -0.5020 -0.1178 -0.6424
  158SOL    HW1 1915   2.914   5.813  10.915 -0.7813 -0.3250 -0.5456
  158SOL    HW2 1916   2.780   5.804  10.846 -0.8490  0.3690 -0.5071
  159SOL     OW 1917   6.045   7.217   3.945 -0.0535 -0.1193 -0.6240
  159SOL    HW1 1918   6.035   7.129   3.982  0.7178  0.0924  0.1463
  159SOL    HW2 1919   6.139   7.235   3.953 -0.4403  1.4937  0.9574
  160SOL     OW 1920   5.902   4.281   5.930 -0.0417 -0.2246 -0.1040
  160SOL    HW1 1921   5.849   4.231   5.867 -1.2248  0.4544  0.3166
  160SOL    HW2 1922   5.856   4.270   6.013  0.2298  0.7419  0.1847
  161SOL     OW 1923   1.018   2.327   3.522  0.8876  0.0184 -0.1825
  161SOL    HW1 1924   1.057   2.284   3.446  0.9307 -1.6469  0.7419
  161SOL    HW2 1925   1.059   2.285   3.597 -1.7225 -0.9307  0.8164
  162SOL     OW 1926   1.743   6.960  12.445  0.0369  0.3981  0.2042
  162SOL    HW1 1927   1.729   7.001  12.360 -1.9840 -0.7281 -0.0418
  162SOL    HW2 1928   1.660   6.918  12.467  1.4014 -1.9339  1.3420
  163SOL     OW 1929   6.161   6.210   0.738 -0.2890 -0.5786  0.3616
  163SOL    HW1 1930   6.195   6.239   0.822 -1.8088 -0.3469  0.9389
  163SOL    HW2 1931   6.066   6.217   0.747 -0.5018 -0.9127 -1.2485
  164SOL     OW 1932   5.558   7.934   3.693 -0.3979  0.7858  0.3699
  164SOL    HW1 1933   5.567   7.919   3.599 -1.0896  0.8008  0.2992
  164SOL    HW2 1934   5.608   7.862   3.733 -0.0611  0.8079  0.0002
  165SOL     OW 1935   4.920   7.252   5.048 -0.1722 -0.3017 -0.1395
  165SOL    HW1 1936   4.961   7.212   5.125  0.7674  0.5246 -0.2018
  165SOL    HW2 1937   4.831   7.215   5.047 -0.0962 -0.5679  1.1478
  166SOL     OW 1938   3.109   0.774   1.352 -0.1518 -0.2149  0.2502
  166SOL    HW1 1939   3.118   0.814   1.266  0.7949  0.4932  0.6594
  166SOL    HW2 1940   3.038   0.821   1.395 -0.1764 -0.1237  0.1069
  167SOL     OW 1941   0.791   5.577  11.888 -0.0145 -0.8377 -0.4180
  167SOL    HW1 1942   0.885   5.566  11.904 -0.2361  0.3573  2.1084
  167SOL    HW2 1943   0.778   5.672  11.888 -1.1672 -0.9814 -1.2728
  168SOL     OW 1944   7.923   5.959   6.641 -0.2289 -0.4171  0.2228
  168SOL    HW1 1945   8.016   5.950   6.618 -0.6842 -1.6574 -1.3758
  168SOL    HW2 1946   7.887   6.015   6.572 -0.3521  1.6303  1.8813
  169SOL     OW 1947   1.341   1.118   2.915 -0.3494  0.5221  0.3101
  169SOL    HW1 1948   1.397   1.053   2.957 -1.0996 -1.2359 -1.2885
  169SOL    HW2 1949   1.391   1.146   2.839 -0.8301  0.3999 -0.0505
  170SOL     OW 1950   5.384   7.299   3.261 -0.2700 -0.2382 -0.1391
  170SOL    HW1 1951   5.458   7.268   3.314 -0.9516 -2.1368 -0.2197
  170SOL    HW2 1952   5.410   7.281   3.171 -0.1674  0.6053 -0.2811
  171SOL     OW 1953   4.878   6.157   3.710 -0.2566 -0.2548 -0.1861
  171SOL    HW1 1954   4.846   6.228   3.766 -0.8874 -0.7314  0.0803
  171SOL    HW2 1955   4.972   6.155   3.725 -0.3384  0.0172  0.4036
  172SOL     OW 1956   4.632   6.948   9.266 -0.3535  0.0743 -0.0216
  172SOL    HW1 1957   4.573   6.975   9.195  0.2856  1.0130 -0.2121
  172SOL    HW2 1958   4.661   7.030   9.305  1.4375 -0.3260 -0.4392
  173SOL     OW 1959   1.273   2.541   8.419 -0.2896 -0.3124  0.1115
  173SOL    HW1 1960   1.238   2.566   8.334 -1.3704 -0.4190  0.5041
  173SOL    HW2 1961   1.359   2.584   8.424  0.1912 -1.0481 -1.3886
  174SOL     OW 1962   3.683   4.909   8.190 -0.1955  0.5169 -0.5412
  174SOL    HW1 1963   3.758   4.850   8.190 -1.1567 -0.7615 -0.7062
  174SOL    HW2 1964   3.608   4.852   8.172 -1.4632  1.4260  1.4819
  175SOL     OW 1965   7.575   7.761   9.719  0.6306 -0.0678  0.4649
  175SOL    HW1 1966   7.606   7.836   9.769  0.4277  0.3503 -0.0326
  175SOL    HW2 1967   7.649   7.700   9.719  0.8090  0.1470  0.8385
  176SOL     OW 1968   0.687   1.323  12.000 -0.0101 -0.1456 -0.0717
  176SOL    HW1 1969   0.742   1.288  11.931 -0.9917 -3.5586  0.7053
  176SOL    HW2 1970   0.728   1.293  12.081 -0.8027  0.7671  0.7007
  177SOL     OW 1971   1.669   1.516   5.228 -0.2958  0.4580  0.0282
  177SOL    HW1 1972   1.678   1.611   5.212 -0.3321  0.4695  0.0777
  177SOL    HW2 1973   1.576   1.499   5.215 -0.2157  0.3471 -0.4373
  178SOL     OW 1974   4.768   0.436   8.788 -0.1196  0.2318 -0.1481
  178SOL    HW1 1975   4.863   0.448   8.792 -0.2761  1.3388  0.6094
  178SOL    HW2 1976   4.754   0.382   8.710  1.2257 -1.0937  0.4790
  179SOL     OW 1977   0.077   7.122   8.171 -0.0933  0.1634  0.6185
  179SOL    HW1 1978   0.056   7.084   8.256 -0.9356 -0.7567  0.0273
  179SOL    HW2 1979   0.048   7.056   8.108  2.3831 -0.1046 -0.3580
  180SOL     OW 1980   4.793   2.623   8.151 -0.4620  0.9936  0.1408
  180SOL    HW1 1981   4.711   2.578   8.133 -0.6381  0.9727  0.9812
  180SOL    HW2 1982   4.772   2.688   8.218  0.6261 -0.5439  2.1004
  181SOL     OW 1983   0.369   1.705  10.402  0.1318 -0.2254 -0.4141
  181SOL    HW1 1984   0.313   1.717  10.326  0.1377  2.7927 -0.0654
  181SOL    HW2 1985   0.457   1.728  10.370  0.5684 -1.3465 -0.0618
  182SOL     OW 1986   1.520   7.189   2.064  0.1740 -0.3126 -0.7262
  182SOL    HW1 1987   1.548   7.151   1.981 -0.3410 -0.0522 -1.0244
  182SOL    HW2 1988   1.525   7.284   2.049  2.1487 -0.2076  0.2339
  183SOL     OW 1989   0.265   3.447  10.312 -0.2503  0.2890  0.0149
  183SOL    HW1 1990   0.227   3.430  10.398 -0.0949  0.4702  0.1212
  183SOL    HW2 1991   0.234   3.535  10.289  0.1867  0.4803  0.1481
  184SOL     OW 1992   3.964   1.932   1.860 -0.2818 -0.2012 -0.1574
  184SOL    HW1 1993   4.001   1.984   1.789 -2.3165 -2.3185 -3.0205
  184SOL    HW2 1994   3.890   1.984   1.892 -0.8997 -0.2549 -1.4099
  185SOL     OW 1995   2.342   5.032   2.189  0.4746 -0.1630  0.1301
  185SOL    HW1 1996   2.387   5.115   2.172  0.1879  0.4318  1.9749
  185SOL    HW2 1997   2.398   4.988   2.254  0.3454 -1.1747 -0.4219
  186SOL     OW 1998   1.089   1.036   7.613  0.0696 -0.1072  0.5092
  186SOL    HW1 1999   1.148   1.016   7.541  1.5974 -0.5529  1.8240
  186SOL    HW2 2000   1.005   0.998   7.587  1.0076 -1.7168 -0.3208
  187SOL     OW 2001   0.709   4.196   0.078 -0.3954  0.3735  0.1442
  187SOL    HW1 2002   0.672   4.276   0.114  1.0727  1.0360  0.2588
  187SOL    HW2 2003   0.766   4.226   0.007  1.0917 -0.4639  0.9505
  188SOL     OW 2004   0.038   0.691   1.926  0.0152 -0.2750  0.3755
  188SOL    HW1 2005  -0.026   0.712   1.857 -0.1662  0.7517  0.8362
  188SOL    HW2 2006  -0.001   0.618   1.973 -0.0892 -0.6664 -0.3031
  189SOL     OW 2007   5.751   0.733   9.413  0.7635  0.5992 -0.6054
  189SOL    HW1 2008   5.812   0.773   9.475 -1.4455  0.1001  2.0540
  189SOL    HW2 2009   5.678   0.795   9.407  0.3989  0.0815 -1.8264
  190SOL     OW 2010   6.602   3.768  10.037  0.2323 -0.0832  0.2971
  190SOL    HW1 2011   6.686   3.723  10.045  0.7838 -0.1664 -3.8109
  190SOL    HW2 2012   6.625   3.860  10.027 -0.2947  0.0926  0.6509
  191SOL     OW 2013   6.510   4.079  11.414  0.0829 -0.4469  0.0062
  191SOL    HW1 2014   6.459   4.145  11.369  1.1435  0.4333  0.0629
  191SOL    HW2 2015   6.528   4.012  11.348  1.2887  0.6377 -0.8185
  192SOL     OW 2016   7.072   0.405  10.122  0.4014 -0.3738 -0.4223
  192SOL    HW1 2017   7.070   0.499  10.105  2.2914  0.0888  1.4157
  192SOL    HW2 2018   7.126   0.368  10.052  0.9720  0.1604 -0.2664
  193SOL     OW 2019   1.544   1.969   4.181  0.0983 -0.0971 -0.2636
  193SOL    HW1 2020   1.558   1.874   4.184  0.5522 -0.0846 -1.5670
  193SOL    HW2 2021   1.450   1.980   4.195 -0.1887 -0.8427 -1.4749
  194SOL     OW 2022   0.135   5.126   4.144  0.2310  0.5613 -0.1515
  194SOL    HW1 2023   0.185   5.174   4.078  1.4832  0.7914  0.9138
  194SOL    HW2 2024   0.044   5.135   4.116  0.7601  0.1662 -2.1260
  195SOL     OW 2025   4.431   1.270   7.887 -0.3761 -0.0668  0.3256
  195SOL    HW1 2026   4.457   1.195   7.941 -1.2273  0.6387  1.7655
  195SOL    HW2 2027   4.514   1.307   7.857  0.1188 -0.5898  1.0052
  196SOL     OW 2028   1.626   3.744   3.493 -0.6222  0.3581 -0.2517
  196SOL    HW1 2029   1.710   3.717   3.530 -1.4097  1.0218  2.2230
  196SOL    HW2 2030   1.648   3.815   3.433  0.5718  0.7763  0.6294
  197SOL     OW 2031   1.536   0.652   8.735  0.2668 -0.0006 -0.0829
  197SOL    HW1 2032   1.535   0.632   8.828 -0.6500  1.4526  0.2529
  197SOL    HW2 2033   1.510   0.744   8.730 -2.8088 -0.7940 -1.8847
  198SOL     OW 2034   5.738   7.689   2.648 -0.4380 -0.0752 -0.2427
  198SOL    HW1 2035   5.823   7.704   2.607 -0.2813 -0.2421  0.0257
  198SOL    HW2 2036   5.750   7.613   2.703 -0.9160 -0.4505 -0.6442
  199SOL     OW 2037   6.087   5.786   1.360  1.1582 -0.6772 -0.1405
  199SOL    HW1 2038   5.993   5.800   1.348  0.8723 -1.5688  0.8975
  199SOL    HW2 2039   6.096   5.691   1.368  2.4790 -0.8471 -2.7438
  200SOL     OW 2040   1.854   5.379   4.066 -0.2679 -0.4896 -0.0734
  200SOL    HW1 2041   1.816   5.347   3.984 -0.5117  0.5879 -0.3961
  200SOL    HW2 2042   1.919   5.444   4.039  0.6315 -1.0966  0.5468
  201SOL     OW 2043   7.808   0.633  11.263 -0.9628 -0.2691 -0.0277
  201SOL    HW1 2044   7.813   0.600  11.353 -0.7284 -0.2951 -0.0492
  201SOL    HW2 2045   7.721   0.671  11.256 -0.8632  0.0290  0.3145
  202SOL     OW 2046   0.625   2.146   4.232 -0.2550 -0.1002  0.3696
  202SOL    HW1 2047   0.669   2.156   4.317  0.5714  1.6731 -0.2150
  202SOL    HW2 2048   0.691   2.172   4.168 -1.5102  0.6506 -0.6709
  203SOL     OW 2049   1.782   3.808   4.429  0.5239 -0.0134  0.2001
  203SOL    HW1 2050   1.797   3.868   4.357 -0.9013 -1.4568 -1.3744
  203SOL    HW2 2051   1.759   3.864   4.503 -0.6421  1.3907 -1.1708
  204SOL     OW 2052   3.260   1.076   9.565  0.0486 -0.1131  0.2246
  204SOL    HW1 2053   3.343   1.028   9.569 -0.5828 -1.2399  0.3073
  204SOL    HW2 2054   3.215   1.052   9.646 -1.1169 -0.9707 -0.6489
  205SOL     OW 2055   6.301   1.416   9.260  0.0122  0.6425  0.3111
  205SOL    HW1 2056   6.379   1.383   9.304  0.0725  0.6916  0.2423
  205SOL    HW2 2057   6.317   1.510   9.251  0.1018  0.5993 -0.0171
  206SOL     OW 2058   4.548   3.309   7.920 -0.2289 -0.5039 -0.1947
  206SOL    HW1 2059   4.464   3.294   7.878  0.2536  0.3541 -1.5462
  206SOL    HW2 2060   4.599   3.358   7.855  1.3703 -1.1385  0.5242
  207SOL     OW 2061   0.919   3.068   3.580 -0.2899  0.0995  0.3133
  207SOL    HW1 2062   0.890   3.078   3.671 -0.8113 -0.2035  0.1837
  207SOL    HW2 2063   1.006   3.109   3.578 -1.0626  1.8592  0.5101
  208SOL     OW 2064   5.730   0.436   9.379  0.0873 -0.3222 -0.1501
  208SOL    HW1 2065   5.732   0.415   9.473  0.5356 -0.4385 -0.1842
  208SOL    HW2 2066   5.732   0.532   9.376 -1.2634 -0.2752 -0.0120
  209SOL     OW 2067   4.541   2.763   2.608 -0.2536  0.5093  0.0081
  209SOL    HW1 2068   4.473   2.715   2.561 -2.5993  2.3348  1.3775
  209SOL    HW2 2069   4.584   2.697   2.662 -1.9308 -0.4709  0.2116
  210SOL     OW 2070   6.692   1.411   7.887  0.3313 -0.0683  0.2651
  210SOL    HW1 2071   6.658   1.327   7.918  0.2405 -0.6019 -1.2221
  210SOL    HW2 2072   6.701   1.400   7.793  1.8710  1.0560  0.2505
  211SOL     OW 2073   5.987   3.292  11.911  0.3079  0.3027  0.1465
  211SOL    HW1 2074   5.960   3.283  11.820 -0.5012 -1.0389  0.4803
  211SOL    HW2 2075   5.906   3.281  11.961  0.9306 -0.3185  1.0600
  212SOL     OW 2076   3.364   1.312  11.399  0.0098 -0.0331 -0.3697
  212SOL    HW1 2077   3.361   1.232  11.346 -0.4860  0.9406 -1.8931
  212SOL    HW2 2078   3.380   1.381  11.335  1.0797  1.0362  0.9871
  213SOL     OW 2079   2.740   1.860   4.257  0.1127  0.4299 -0.2677
  213SOL    HW1 2080   2.803   1.827   4.321  0.3526  0.5018 -0.4653
  213SOL    HW2 2081   2.661   1.808   4.273  0.7885 -0.9560 -1.2389
  214SOL     OW 2082   6.631   3.368   4.237 -0.1953 -0.2525 -0.0207
  214SOL    HW1 2083   6.608   3.306   4.167 -1.4121  0.4476 -0.2743
  214SOL    HW2 2084   6.670   3.442   4.190  0.6618 -0.5387  0.2240
  215SOL     OW 2085   1.601   2.380   9.484 -0.5924 -0.3713  0.0973
  215SOL    HW1 2086   1.586   2.396   9.391  0.1685  2.7941  0.4028
  215SOL    HW2 2087   1.689   2.343   9.489  0.1690  1.2778 -0.3955
  216SOL     OW 2088   4.942   0.666   5.340 -0.3749 -0.2147  0.3784
  216SOL    HW1 2089   4.988   0.709   5.268  0.3543 -0.2179  0.8309
  216SOL    HW2 2090   4.921   0.579   5.307 -0.4263 -0.0688  0.0245
  217SOL     OW 2091   0.294   1.375   5.099  0.4325 -0.1989  0.2395
  217SOL    HW1 2092   0.284   1.463   5.062 -0.2557  0.3172  1.5877
  217SOL    HW2 2093   0.378   1.344   5.065 -0.9386 -0.5351 -3.2578
  218SOL     OW 2094   1.740   4.045  10.146 -0.1318  0.5837 -0.4280
  218SOL    HW1 2095   1.680   3.986  10.101 -0.4810  1.2820 -0.8894
  218SOL    HW2 2096   1.760   4.113  10.081  1.2061  0.3330 -0.3086
  219SOL     OW 2097   6.552   5.088   8.570 -0.4921  0.0354 -0.0149
  219SOL    HW1 2098   6.572   5.177   8.539  0.1463 -0.4255 -0.9803
  219SOL    HW2 2099   6.632   5.038   8.550 -0.9282 -0.8038  0.3186
  220SOL     OW 2100   6.401   5.108   7.300 -0.0901 -0.4281 -0.0749
  220SOL    HW1 2101   6.392   5.201   7.320  2.5510  0.2629 -1.7011
  220SOL    HW2 2102   6.339   5.065   7.359 -0.0199  2.1899  2.0952
  221SOL     OW 2103   1.441   6.238  11.293  0.7947  0.3385  0.0822
  221SOL    HW1 2104   1.473   6.279  11.374 -1.4303 -0.0018  1.2240
  221SOL    HW2 2105   1.399   6.310  11.245  0.0172  0.0988  0.3893
  222SOL     OW 2106   7.280   1.408   5.692 -0.3455 -0.3880 -0.0523
  222SOL    HW1 2107   7.324   1.476   5.641 -0.5293  0.0263  0.3409
  222SOL    HW2 2108   7.218   1.455   5.748 -0.1598 -0.8334  0.5462
  223SOL     OW 2109   0.682   6.892   1.348  0.7474 -0.0603  0.3572
  223SOL    HW1 2110   0.725   6.961   1.297  2.1120 -0.1271  1.3352
  223SOL    HW2 2111   0.744   6.819   1.345 -1.4334 -1.9972 -2.1526
  224SOL     OW 2112   2.129   0.809   4.625 -0.3193 -0.0798 -0.0994
  224SOL    HW1 2113   2.103   0.858   4.704 -1.1448 -0.2138 -0.2807
  224SOL    HW2 2114   2.195   0.864   4.584  1.0340 -0.5764  1.3243
  225SOL     OW 2115   2.402   3.400   7.885  0.5966  0.2364 -0.4150
  225SOL    HW1 2116   2.486   3.441   7.907 -0.1746  1.6872 -0.0222
  225SOL    HW2 2117   2.347   3.473   7.856 -0.3444 -0.7813 -1.2539
  226SOL     OW 2118   1.260   1.289  10.449  0.4632 -0.4400 -0.2601
  226SOL    HW1 2119   1.219   1.282  10.535  1.4619  0.6956  0.3455
  226SOL    HW2 2120   1.334   1.228  10.453  1.7143  1.0548  0.4628
  227SOL     OW 2121   7.046   5.214   6.602  0.0829 -0.0956  0.4484
  227SOL    HW1 2122   7.073   5.306   6.605  1.2557 -0.3855 -0.5453
  227SOL    HW2 2123   7.025   5.192   6.693 -0.7277  1.2873  0.6202
  228SOL     OW 2124   1.628   4.486  11.917  0.9217 -0.4268  0.7539
  228SOL    HW1 2125   1.623   4.480  12.013 -0.5801 -2.2867  0.6161
  228SOL    HW2 2126   1.660   4.400  11.889  1.8650  0.2776 -0.4027
  229SOL     OW 2127   4.630   2.164   4.371 -0.1704  0.3153 -0.2878
  229SOL    HW1 2128   4.608   2.194   4.283 -1.1861  0.2100 -0.0807
  229SOL    HW2 2129   4.557   2.193   4.426 -0.6653 -1.5270  0.1184
  230SOL     OW 2130   7.025   4.516   1.436 -0.0685  0.4904  0.0177
  230SOL    HW1 2131   7.011   4.422   1.453 -0.0201  0.5142  0.1968
  230SOL    HW2 2132   7.001   4.528   1.344  0.9465  0.0985 -0.3134
  231SOL     OW 2133   7.503   0.400  10.523  0.1805 -0.4168 -0.2520
  231SOL    HW1 2134   7.489   0.307  10.540  0.1979 -0.3108  0.3746
  231SOL    HW2 2135   7.463   0.444  10.598 -0.8010  0.1387 -1.0735
  232SOL     OW 2136   5.055   7.827   2.754 -0.1041 -0.3246  0.1332
  232SOL    HW1 2137   5.087   7.761   2.817 -0.0663  1.1901  1.7667
  232SOL    HW2 2138   5.128   7.839   2.694  1.0386  0.3092  1.5722
  233SOL     OW 2139   2.053   0.404   7.405  0.2311 -0.2057  0.2882
  233SOL    HW1 2140   2.143   0.383   7.431 -0.4068 -2.4219  0.9582
  233SOL    HW2 2141   2.027   0.331   7.349 -0.5712  1.3273 -1.4209
  234SOL     OW 2142   5.668   1.117   3.784 -0.0971 -0.5479  0.1067
  234SOL    HW1 2143   5.671   1.024   3.809 -1.2114 -0.4908  0.4893
  234SOL    HW2 2144   5.751   1.152   3.815  0.7340 -1.6078 -0.8390
  235SOL     OW 2145   6.826   1.059   8.484 -0.2430  0.1619  0.6069
  235SOL    HW1 2146   6.901   1.113   8.510  0.7121 -0.6464 -0.4070
  235SOL    HW2 2147   6.756   1.086   8.544  0.9525  0.6690  1.8293
  236SOL     OW 2148   1.536   0.746  10.005 -0.3140 -0.5426  0.1539
  236SOL    HW1 2149   1.593   0.821  10.022  0.3251 -0.7850 -0.7892
  236SOL    HW2 2150   1.462   0.783   9.957 -0.6682 -0.3116  0.8777
  237SOL     OW 2151   1.805   1.891   9.092  0.1041 -0.0886  0.1952
  237SOL    HW1 2152   1.717   1.880   9.129 -0.3173  1.8420 -0.1329
  237SOL    HW2 2153   1.792   1.882   8.998  0.6883 -2.0632  0.2533
  238SOL     OW 2154   7.851   5.509   4.908  0.1684 -0.0228  0.2245
  238SOL    HW1 2155   7.832   5.445   4.840  0.7635  0.3963 -0.3395
  238SOL    HW2 2156   7.826   5.465   4.990 -0.1315 -0.6872 -0.2189
  239SOL     OW 2157   0.754   6.027   5.006  0.2476 -0.0940 -0.2649
  239SOL    HW1 2158   0.660   6.017   4.994  0.4851 -1.2700 -1.2647
  239SOL    HW2 2159   0.791   6.015   4.918  1.4176 -0.8225  0.3089
  240SOL     OW 2160   3.984   4.781   0.851 -0.0913  0.2842  0.0494
  240SOL    HW1 2161   4.015   4.772   0.941  1.6115 -0.6097 -0.5719
  240SOL    HW2 2162   4.052   4.832   0.807 -0.4920  0.0106 -0.9196
  241SOL     OW 2163   1.410   4.625   0.790  0.3758  0.4726  0.5039
  241SOL    HW1 2164   1.323   4.665   0.795 -0.5244 -0.8285 -2.4905
  241SOL    HW2 2165   1.400   4.542   0.836 -0.3574 -0.1996 -0.8215
  242SOL     OW 2166   5.951   0.388   5.555 -0.3581 -0.5210 -0.5284
  242SOL    HW1 2167   6.041   0.380   5.587 -0.4454 -4.2572 -0.7596
  242SOL    HW2 2168   5.949   0.334   5.476 -2.5109  0.5473 -1.2782
  243SOL     OW 2169   4.262   2.063   9.547  0.2248  0.5825  0.0452
  243SOL    HW1 2170   4.198   2.029   9.610 -1.7532 -1.0986 -2.6613
  243SOL    HW2 2171   4.257   2.003   9.472  0.8269  3.6281 -2.6609
  244SOL     OW 2172   6.424   4.411   9.480 -0.4706 -0.3112 -0.0804
  244SOL    HW1 2173   6.448   4.320   9.463  2.2990  0.7865 -3.0170
  244SOL    HW2 2174   6.496   4.463   9.444 -1.1794  3.0742  2.8130
  245SOL     OW 2175   3.458   2.316   8.490 -0.6651  0.4904 -0.2798
  245SOL    HW1 2176   3.539   2.336   8.536  0.1925  0.6134 -1.7683
  245SOL    HW2 2177   3.416   2.401   8.477 -1.8233  0.2953  1.7951
  246SOL     OW 2178   3.598   5.468   5.666  0.5573 -0.1798  0.5249
  246SOL    HW1 2179   3.530   5.528   5.695 -0.2454 -0.4332 -0.7276
  246SOL    HW2 2180   3.591   5.392   5.724  1.3989  0.7752  1.9401
  247SOL     OW 2181   0.845   4.615  10.789  0.3300  0.6775 -0.6083
  247SOL    HW1 2182   0.851   4.660  10.873 -0.7416  0.5521 -0.4452
  247SOL    HW2 2183   0.917   4.652  10.736 -0.4905  2.5871 -0.4842
  248SOL     OW 2184   3.749   6.428   2.397 -0.2065  0.2070  0.3410
  248SOL    HW1 2185   3.721   6.519   2.389  1.6715  0.6539 -2.6491
  248SOL    HW2 2186   3.680   6.377   2.355  0.5898  0.7262 -1.7004
  249SOL     OW 2187   5.171   1.230   4.702  0.4011 -0.3872 -0.0961
  249SOL    HW1 2188   5.174   1.264   4.612  0.0412  1.3494  0.5032
  249SOL    HW2 2189   5.083   1.251   4.732  0.7282 -0.3815  0.8712
  250SOL     OW 2190   1.213   5.821  11.164  0.1511 -0.2744  0.3349
  250SOL    HW1 2191   1.194   5.750  11.102 -1.2173  0.6273 -0.3396
  250SOL    HW2 2192   1.235   5.896  11.108  1.4653 -0.1107  1.0350
  251SOL     OW 2193   5.549   7.453  10.515  0.1277  0.2278  0.6844
  251SOL    HW1 2194   5.603   7.523  10.551  0.1944  0.9754 -0.7707
  251SOL    HW2 2195   5.611   7.382  10.498  0.4603  0.6415  0.1286
  252SOL     OW 2196   4.322   0.894  10.303  0.5042 -0.4448  0.0785
  252SOL    HW1 2197   4.377   0.855  10.234  1.8734  1.7303 -0.1377
  252SOL    HW2 2198   4.365   0.977  10.324 -0.3603 -0.6304  2.9721
  253SOL     OW 2199   4.203   5.034   1.557  0.0095  0.1231  0.2234
  253SOL    HW1 2200   4.266   4.972   1.594  0.1851  1.2988  1.9789
  253SOL    HW2 2201   4.119   4.989   1.562  0.2038 -0.1603  1.0352
  254SOL     OW 2202   5.112   0.860   9.799  0.3612 -0.0907 -0.4279
  254SOL    HW1 2203   5.100   0.914   9.721 -0.0995 -1.6269 -1.4488
  254SOL    HW2 2204   5.076   0.775   9.776  0.5083 -0.6845  1.3596
  255SOL     OW 2205   5.231   5.041   8.190  0.0363  0.2369  0.7283
  255SOL    HW1 2206   5.255   5.057   8.281  1.7053 -0.3872  0.4304
  255SOL    HW2 2207   5.239   4.946   8.179  0.7614  0.4025 -0.3022
  256SOL     OW 2208   6.268   4.860  11.705 -0.2623 -0.2435 -0.2714
  256SOL    HW1 2209   6.242   4.880  11.615 -1.1304  0.0357  0.0236
  256SOL    HW2 2210   6.226   4.929  11.757 -0.1762 -0.6874  0.3910
  257SOL     OW 2211   7.207   1.502   4.425 -0.4278  0.3801  0.1431
  257SOL    HW1 2212   7.239   1.560   4.355  1.0602 -0.5710 -0.0070
  257SOL    HW2 2213   7.272   1.432   4.429 -2.2783 -1.4242  0.1719
  258SOL     OW 2214   4.219   5.513  11.307  0.5013  0.4827  0.5176
  258SOL    HW1 2215   4.150   5.567  11.346 -0.2008  0.1644 -0.2471
  258SOL    HW2 2216   4.234   5.443  11.371 -1.7608 -0.9476 -0.3867
  259SOL     OW 2217   3.347   1.595   7.726  0.0178 -0.4678  0.0846
  259SOL    HW1 2218   3.361   1.688   7.708  1.6550 -0.7631 -0.3937
  259SOL    HW2 2219   3.285   1.567   7.658 -0.9430  0.3727  0.5869
  260SOL     OW 2220   4.730   0.513   9.199  0.0791 -0.1156 -0.1317
  260SOL    HW1 2221   4.639   0.523   9.228  0.1394 -0.5670  0.2296
  260SOL    HW2 2222   4.728   0.435   9.144  0.5502 -1.1094  1.2243
  261SOL     OW 2223   3.835   6.800   6.802  0.2985 -0.5102  0.2459
  261SOL    HW1 2224   3.785   6.803   6.884 -1.5187  0.7870 -0.8106
  261SOL    HW2 2225   3.779   6.750   6.743  0.7508  0.0555 -0.6782
  262SOL     OW 2226   3.735   5.208   8.140 -0.1352 -0.5346  0.2082
  262SOL    HW1 2227   3.714   5.120   8.173  0.3098 -0.4717  0.6771
  262SOL    HW2 2228   3.766   5.255   8.217 -0.9854  0.2453  0.0891
  263SOL     OW 2229   6.156   3.342   7.479 -0.5286 -0.5793  0.2947
  263SOL    HW1 2230   6.145   3.436   7.494 -0.3281 -0.4149 -0.5508
  263SOL    HW2 2231   6.075   3.315   7.435 -0.1615 -0.5822 -0.4030
  264SOL     OW 2232   5.636   5.100   7.492  0.4236 -0.1420  0.0235
  264SOL    HW1 2233   5.703   5.059   7.438  0.5555  1.6634 -1.2791
  264SOL    HW2 2234   5.566   5.034   7.499  1.6392 -1.4593  0.0941
  265SOL     OW 2235   3.039   2.672   6.154  0.3043 -0.1292 -0.3217
  265SOL    HW1 2236   3.057   2.646   6.244 -0.6703 -0.3927 -0.1871
  265SOL    HW2 2237   2.962   2.621   6.129  0.7256 -0.2672 -1.4037
  266SOL     OW 2238   4.163   4.035  10.228 -0.4145  0.7707  0.1107
  266SOL    HW1 2239   4.167   3.942  10.205 -1.5661  0.9306 -0.8177
  266SOL    HW2 2240   4.105   4.074  10.163  0.7978  2.3405 -0.0995
  267SOL     OW 2241   6.975   7.649  10.750 -0.0227  0.3040 -0.5654
  267SOL    HW1 2242   7.053   7.705  10.757  0.8520 -0.3419 -3.8688
  267SOL    HW2 2243   6.904   7.710  10.730 -0.3750  0.8203  1.8733
  268SOL     OW 2244   7.341   2.807   6.615 -0.1931 -0.0901  0.6521
  268SOL    HW1 2245   7.360   2.714   6.626  0.2965  0.1970  2.5686
  268SOL    HW2 2246   7.279   2.811   6.542  0.7109 -1.7905 -0.2680
  269SOL     OW 2247   4.229   6.962   4.026 -0.0469  0.4120 -0.3947
  269SOL    HW1 2248   4.148   6.911   4.021 -0.3445  0.7618  0.5779
  269SOL    HW2 2249   4.256   6.975   3.935 -1.5450  1.0099 -0.7783
  270SOL     OW 2250   4.596   5.749   1.764  0.2568  0.1197  0.0007
  270SOL    HW1 2251   4.666   5.813   1.777  0.9692 -0.5381 -0.4800
  270SOL    HW2 2252   4.602   5.726   1.671  1.1236 -1.8870  0.5145
  271SOL     OW 2253   7.778   6.096   3.077 -0.4641 -0.1549 -0.6468
  271SOL    HW1 2254   7.869   6.126   3.083 -0.3179 -0.6590 -0.1919
  271SOL    HW2 2255   7.738   6.152   3.010  0.2039  0.0144 -0.9141
  272SOL     OW 2256   0.965   4.446   9.463  0.4352  0.0687 -0.4124
  272SOL    HW1 2257   0.932   4.374   9.409 -0.5460  0.1194  0.0891
  272SOL    HW2 2258   1.059   4.448   9.446  0.2699 -0.4531 -1.4671
  273SOL     OW 2259   7.199   3.875   0.788  0.0862 -0.6235 -0.1708
  273SOL    HW1 2260   7.122   3.873   0.845 -0.2629  1.5457 -0.4894
  273SOL    HW2 2261   7.271   3.846   0.844 -0.4668  0.2194  1.0260
  274SOL     OW 2262   2.949   7.914   8.300 -0.0525  0.0103  0.2582
  274SOL    HW1 2263   2.971   7.821   8.304  0.1452 -0.0017 -0.8089
  274SOL    HW2 2264   2.990   7.952   8.378 -0.6874 -0.8895  1.0505
  275SOL     OW 2265   3.321   1.504   3.661 -0.4248 -0.3573 -0.4978
  275SOL    HW1 2266   3.312   1.596   3.687 -0.7799 -0.1869 -1.2206
  275SOL    HW2 2267   3.235   1.479   3.629 -0.1335 -0.7329 -0.9914
  276SOL     OW 2268   1.832   6.086  11.049 -0.6273 -0.5513  0.2804
  276SOL    HW1 2269   1.922   6.057  11.065  0.1084  2.2842  2.2057
  276SOL    HW2 2270   1.840   6.159  10.988 -1.8649 -1.4418 -0.9984
  277SOL     OW 2271   3.352   7.747   0.166 -0.5183 -0.2939 -0.2898
  277SOL    HW1 2272   3.367   7.695   0.087 -2.0502  0.1616 -0.9079
  277SOL    HW2 2273   3.256   7.755   0.172 -0.4168  0.1292  1.3229
  278SOL     OW 2274   2.174   5.633   3.578  0.4353 -0.1645 -0.5381
  278SOL    HW1 2275   2.218   5.667   3.656 -0.5904  0.0429 -0.0254
  278SOL    HW2 2276   2.090   5.599   3.611  0.0604 -0.2344 -1.5241
  279SOL     OW 2277   6.745   0.967   0.808  0.0145 -0.1580 -0.3997
  279SOL    HW1 2278   6.835   0.939   0.824  0.4798  1.3230 -0.2731
  279SOL    HW2 2279   6.714   1.000   0.893 -0.4089  0.0104 -0.6156
  280SOL     OW 2280   7.401   4.394   0.916  0.1714  0.1273 -0.3747
  280SOL    HW1 2281   7.329   4.330   0.909 -0.2066  0.6766 -2.0463
  280SOL    HW2 2282   7.390   4.433   1.002  0.9239 -2.6253  1.0783
  281SOL     OW 2283   2.720   3.943   6.632  0.7679  0.3494  0.4926
  281SOL    HW1 2284   2.794   3.883   6.641 -0.0084 -0.7834 -0.3090
  281SOL    HW2 2285   2.755   4.029   6.654  2.5914  0.0175 -0.9036
  282SOL     OW 2286   1.683   5.765   4.185  0.7364 -0.1268 -0.0098
  282SOL    HW1 2287   1.630   5.742   4.262  1.0715  2.6337  1.1395
  282SOL    HW2 2288   1.628   5.739   4.111  0.1544 -2.3370  1.0940
  283SOL     OW 2289   5.012   7.198   5.731 -0.2088 -0.3701 -0.4970
  283SOL    HW1 2290   5.006   7.154   5.647 -0.9268 -0.2946 -0.4957
  283SOL    HW2 2291   5.097   7.174   5.766 -0.5882 -1.7625 -0.4920
  284SOL     OW 2292   1.859   0.612  12.251  0.2051  0.1898  0.3162
  284SOL    HW1 2293   1.923   0.680  12.227  0.3712 -0.1494 -0.2228
  284SOL    HW2 2294   1.887   0.535  12.203 -0.0775 -0.2238  0.8039
  285SOL     OW 2295   0.122   3.344   0.756  0.3306 -0.2695 -0.4453
  285SOL    HW1 2296   0.115   3.250   0.744 -0.4475 -0.1695 -0.8802
  285SOL    HW2 2297   0.064   3.363   0.830 -0.3950 -0.0042 -1.0666
  286SOL     OW 2298   7.848   1.330   8.851 -0.2195 -0.1046  0.1050
  286SOL    HW1 2299   7.801   1.259   8.896  1.3892 -0.4155  1.3963
  286SOL    HW2 2300   7.783   1.399   8.842 -1.5897 -1.3921 -0.3878
  287SOL     OW 2301   5.051   2.089  10.805  0.3460 -0.0702  0.5027
  287SOL    HW1 2302   5.014   2.093  10.893 -0.2288  1.8573  0.2155
  287SOL    HW2 2303   5.055   1.996  10.784 -0.0604 -0.5249  2.3258
  288SOL     OW 2304   4.565   3.191   3.316 -0.0768 -0.8429 -0.0454
  288SOL    HW1 2305   4.482   3.228   3.344  1.3119  2.1125  0.5140
  288SOL    HW2 2306   4.625   3.209   3.388  1.0627 -3.1853 -0.3014
  289SOL     OW 2307   0.590   3.379  11.286 -0.1174 -0.5876  0.4840
  289SOL    HW1 2308   0.523   3.356  11.350 -1.0743 -1.3745 -0.7629
  289SOL    HW2 2309   0.614   3.296  11.245  0.7094 -0.1361  0.0257
  290SOL     OW 2310   0.225   6.768   8.380  0.6132 -0.2677 -0.0712
  290SOL    HW1 2311   0.158   6.747   8.315  0.8199  0.2041 -0.4408
  290SOL    HW2 2312   0.178   6.813   8.450  0.6874  1.0129 -0.8085
  291SOL     OW 2313   7.294   7.479   4.242  0.0299  0.5443  0.0559
  291SOL    HW1 2314   7.235   7.521   4.180  0.7353  1.0826 -0.2706
  291SOL    HW2 2315   7.378   7.476   4.197  0.0993 -0.8424  0.2430
  292SOL     OW 2316   5.787   1.954   7.576 -0.1010 -0.0905  0.4173
  292SOL    HW1 2317   5.716   1.944   7.513 -0.9982  0.9565  1.2219
  292SOL    HW2 2318   5.866   1.961   7.522 -0.8761  1.0740 -0.6069
  293SOL     OW 2319   5.094   3.615   1.005 -0.2118 -0.0355  0.6584
  293SOL    HW1 2320   5.050   3.700   1.006  0.4693  0.3248  1.0235
  293SOL    HW2 2321   5.126   3.605   0.915 -0.0003  0.2535  0.6998
  294SOL     OW 2322   0.268   1.580   2.540  0.0111  0.4534 -0.1981
  294SOL    HW1 2323   0.344   1.522   2.539  1.4420  2.2219  0.2150
  294SOL    HW2 2324   0.289   1.644   2.608 -1.0041  2.0583 -1.3367
  295SOL     OW 2325   2.721   4.708   8.412  0.1892 -0.3803 -0.1682
  295SOL    HW1 2326   2.778   4.696   8.336  0.5268 -0.9124  0.1620
  295SOL    HW2 2327   2.764   4.776   8.464 -0.1220  0.0950 -0.5197
  296SOL     OW 2328   1.876   1.920   7.861 -0.6173  0.2772 -0.6523
  296SOL    HW1 2329   1.939   1.898   7.793 -0.0974  0.7396 -0.3323
  296SOL    HW2 2330   1.930   1.947   7.936 -1.1986  1.3842 -0.6076
  297SOL     OW 2331   0.759   6.373   7.504  0.3191  0.2476 -0.1046
  297SOL    HW1 2332   0.797   6.440   7.561  0.7579 -1.9615  2.3879
  297SOL    HW2 2333   0.665   6.391   7.506  0.4822  1.1413  0.0306
  298SOL     OW 2334   7.088   1.227   6.416  0.2352  0.0822 -0.5495
  298SOL    HW1 2335   7.008   1.175   6.414 -0.2646  0.5430  2.2484
  298SOL    HW2 2336   7.067   1.307   6.369 -1.0733  0.2856  0.3368
  299SOL     OW 2337   1.573   5.101   2.663  0.5732  0.2335 -0.3726
  299SOL    HW1 2338   1.535   5.051   2.590  0.2247  0.0990 -0.1050
  299SOL    HW2 2339   1.618   5.174   2.621  0.2201  0.2602 -0.7163
  300SOL     OW 2340   5.043   4.077  11.321  0.6370 -0.2100  0.0792
  300SOL    HW1 2341   4.966   4.061  11.376  0.2404  1.0225 -0.0747
  300SOL    HW2 2342   5.117   4.045  11.372  0.2799  0.9682  1.3709
  301SOL     OW 2343   4.298   0.202   5.340 -0.4463 -0.4349 -0.1773
  301SOL    HW1 2344   4.376   0.149   5.323 -0.4220 -0.9073  1.2907
  301SOL    HW2 2345   4.271   0.234   5.254  0.2789 -1.7870 -0.9249
  302SOL     OW 2346   3.121   1.897   1.235  0.2372  0.2572 -0.0735
  302SOL    HW1 2347   3.204   1.868   1.273  1.2640 -0.9271 -2.9732
  302SOL    HW2 2348   3.054   1.865   1.296  1.8132  0.4704  1.8740
  303SOL     OW 2349   2.446   3.322  11.515  0.2731 -0.5489 -0.1878
  303SOL    HW1 2350   2.511   3.386  11.485  1.0164 -1.6540 -1.0298
  303SOL    HW2 2351   2.494   3.267  11.576  0.2166 -1.5223 -0.9922
  304SOL     OW 2352   4.476   7.590   3.155  0.2846  0.0344 -0.0126
  304SOL    HW1 2353   4.511   7.624   3.072  3.1838  0.1589  1.1505
  304SOL    HW2 2354   4.482   7.664   3.215 -0.3520 -0.4916  0.7077
  305SOL     OW 2355   0.783   6.263   4.164  0.0907 -0.0750 -0.0161
  305SOL    HW1 2356   0.703   6.234   4.119  0.2275  1.5173 -1.3712
  305SOL    HW2 2357   0.839   6.185   4.166 -0.7917 -0.7461 -0.6444
  306SOL     OW 2358   1.241   7.708   4.993  0.0354 -1.0279  0.3963
  306SOL    HW1 2359   1.189   7.644   5.043 -0.6520 -1.3650 -0.7298
  306SOL    HW2 2360   1.185   7.784   4.986 -0.5015 -1.5268 -1.1497
  307SOL     OW 2361   4.995   0.647  11.124 -0.4250 -0.3019 -0.0724
  307SOL    HW1 2362   4.934   0.696  11.069 -0.2905  0.7600  0.6911
  307SOL    HW2 2363   5.038   0.714  11.177 -0.8190 -1.3047  1.5941
  308SOL     OW 2364   5.682   1.280   3.187  0.0042 -0.4595 -0.0418
  308SOL    HW1 2365   5.728   1.339   3.127 -0.6770  0.3862  0.2409
  308SOL    HW2 2366   5.610   1.245   3.134  0.7618 -1.5405 -0.3923
  309SOL     OW 2367   5.600   7.484  11.384  0.2232 -0.0673 -0.7163
  309SOL    HW1 2368   5.651   7.522  11.312  0.9045  0.7211  0.1537
  309SOL    HW2 2369   5.564   7.560  11.430  0.6816 -0.5048  0.4011
  310SOL     OW 2370   3.786   5.596   6.036  0.0721 -0.3474  0.3012
  310SOL    HW1 2371   3.720   5.663   6.015 -0.4319 -1.0434 -0.4046
  310SOL    HW2 2372   3.769   5.573   6.127  0.6883  0.9511  0.7777
  311SOL     OW 2373   5.084   5.659   3.772  0.0922  0.1236 -0.1483
  311SOL    HW1 2374   5.005   5.616   3.738 -0.0159 -0.7984  1.1908
  311SOL    HW2 2375   5.142   5.666   3.697 -1.6783  1.9120 -1.4739
  312SOL     OW 2376   0.017   7.808   4.128 -0.3990  0.3413 -0.0681
  312SOL    HW1 2377   0.013   7.850   4.042 -1.0332 -0.4739 -0.4400
  312SOL    HW2 2378   0.108   7.778   4.135  0.0070  1.5351  0.1047
  313SOL     OW 2379   0.451   4.668  10.978 -0.2712  0.3684 -0.2928
  313SOL    HW1 2380   0.463   4.587  11.028  0.4466  0.5981 -0.0879
  313SOL    HW2 2381   0.422   4.732  11.043 -1.3809  0.1512 -0.5496
  314SOL     OW 2382   0.941   1.738   4.558 -0.8917 -0.3504  0.1884
  314SOL    HW1 2383   0.919   1.791   4.635 -2.6567  0.6355 -0.9176
  314SOL    HW2 2384   0.883   1.770   4.489  1.5635 -0.2201 -1.9963
  315SOL     OW 2385   7.735   1.770   9.345 -0.1199  0.5088 -0.2107
  315SOL    HW1 2386   7.778   1.854   9.359 -0.0359  0.4643 -0.1964
  315SOL    HW2 2387   7.806   1.706   9.354 -0.3923  0.3425  1.0071
  316SOL     OW 2388   0.852   3.726   7.724  0.4325  0.1532  0.2791
  316SOL    HW1 2389   0.873   3.814   7.754 -0.4925  0.3066  0.5077
  316SOL    HW2 2390   0.895   3.668   7.787  0.9492  0.4301  0.1904
  317SOL     OW 2391   7.366   3.414   6.021  0.0327  0.0185  0.0369
  317SOL    HW1 2392   7.407   3.330   6.040  0.3183  0.0598 -0.3791
  317SOL    HW2 2393   7.290   3.391   5.967  0.5705  0.0803 -0.7710
  318SOL     OW 2394   6.123   6.078   1.272 -0.5569 -0.3059  0.3983
  318SOL    HW1 2395   6.175   6.004   1.305 -1.1593 -1.2993 -0.7782
  318SOL    HW2 2396   6.110   6.058   1.179 -0.1291  1.6578 -0.1403
  319SOL     OW 2397   2.874   2.445  12.266 -0.4910  0.5791 -0.3684
  319SOL    HW1 2398   2.895   2.415  12.178 -0.2091  0.8494 -0.3933
  319SOL    HW2 2399   2.789   2.405  12.285  0.6308 -1.6954  0.2655
  320SOL     OW 2400   1.860   1.617   8.662 -0.0466  0.4776  0.1475
  320SOL    HW1 2401   1.922   1.578   8.600  1.5231  0.0187  1.9143
  320SOL    HW2 2402   1.915   1.665   8.724 -1.4477 -0.0258  1.8634
  321SOL     OW 2403   0.473   7.204   4.109  0.1080  0.3989 -0.2714
  321SOL    HW1 2404   0.516   7.142   4.167  0.5180  0.6537 -0.2991
  321SOL    HW2 2405   0.458   7.156   4.028 -0.8837 -0.1059  0.1815
  322SOL     OW 2406   4.638   3.299   6.407  0.0098 -0.2605  0.1202
  322SOL    HW1 2407   4.579   3.374   6.407  0.4688  0.1021  0.3510
  322SOL    HW2 2408   4.696   3.313   6.333  0.3576 -0.1744  0.4045
  323SOL     OW 2409   3.386   7.979   9.504  0.4313 -0.2798 -0.0332
  323SOL    HW1 2410   3.309   8.036   9.504  0.6035 -0.0343  0.8289
  323SOL    HW2 2411   3.423   7.989   9.591  1.5290 -0.2987 -0.4867
  324SOL     OW 2412   4.385   3.100   0.306  0.3462 -0.2553  0.8161
  324SOL    HW1 2413   4.360   3.011   0.329  0.3003 -0.2840  0.6551
  324SOL    HW2 2414   4.474   3.091   0.272  0.0804 -0.3380  0.1375
  325SOL     OW 2415   0.650   3.029  11.896 -0.7078  0.1734 -1.0895
  325SOL    HW1 2416   0.657   2.934  11.908 -0.5451 -0.2519 -4.0150
  325SOL    HW2 2417   0.556   3.045  11.886 -1.1003  0.8546  2.3885
  326SOL     OW 2418   6.998   2.476   5.205  0.7040  0.6167  0.8593
  326SOL    HW1 2419   7.032   2.386   5.199  1.7689  0.9611  1.5268
  326SOL    HW2 2420   6.915   2.473   5.158  1.8003 -0.1717 -1.1504
  327SOL     OW 2421   2.404   2.544   5.832 -0.4960  0.4265  0.1876
  327SOL    HW1 2422   2.441   2.481   5.771 -1.0398  1.8357 -1.6932
  327SOL    HW2 2423   2.480   2.589   5.869 -0.1481 -0.6866  0.8781
  328SOL     OW 2424   5.819   3.806  10.000 -1.0760  0.3265  0.5234
  328SOL    HW1 2425   5.808   3.712  10.017 -0.5348  0.1931  0.1609
  328SOL    HW2 2426   5.890   3.810   9.936 -0.5054  1.0384  1.1979
  329SOL     OW 2427   4.676   0.955   1.860 -0.2961  0.5489 -0.1532
  329SOL    HW1 2428   4.708   0.867   1.841 -1.6669  0.4091 -1.9950
  329SOL    HW2 2429   4.743   0.993   1.918 -1.1133 -2.7026  3.3114
  330SOL     OW 2430   2.773   6.739   6.893  0.3113  0.3631 -0.4643
  330SOL    HW1 2431   2.840   6.787   6.845  1.4254 -0.6039  0.0687
  330SOL    HW2 2432   2.704   6.723   6.830  0.7457  1.0813 -1.1258
  331SOL     OW 2433   4.904   3.725  12.470 -0.1421 -0.2472 -0.3469
  331SOL    HW1 2434   4.926   3.654  12.409 -3.1039 -1.7281  0.1288
  331SOL    HW2 2435   4.837   3.776  12.425  0.9592  1.4674 -0.1110
  332SOL     OW 2436   4.722   7.645   9.687 -0.0327  0.1766  0.7285
  332SOL    HW1 2437   4.811   7.669   9.663 -0.6243  1.8311  0.0522
  332SOL    HW2 2438   4.688   7.599   9.611  0.0674  0.0341  0.7700
  333SOL     OW 2439   7.452   6.714   0.802  0.2154 -0.3282 -0.3183
  333SOL    HW1 2440   7.547   6.717   0.812  0.2774 -0.8770 -0.6959
  333SOL    HW2 2441   7.423   6.646   0.863  0.4423 -2.6205 -2.5958
  334SOL     OW 2442   7.551   7.093  12.094 -0.3072  0.6713  0.3145
  334SOL    HW1 2443   7.528   7.017  12.147 -1.8832  1.4414  0.7931
  334SOL    HW2 2444   7.580   7.159  12.157  0.4267  0.6969 -0.0403
  335SOL     OW 2445   1.530   1.105   8.988 -0.2187 -0.2904  0.0056
  335SOL    HW1 2446   1.538   1.154   9.070 -1.7941 -0.8134  0.5069
  335SOL    HW2 2447   1.591   1.149   8.928  0.4244  0.5577  1.2280
  336SOL     OW 2448   6.370   3.618   8.368 -0.2245 -0.3783  0.0581
  336SOL    HW1 2449   6.306   3.611   8.297  1.1397 -0.2139 -1.2363
  336SOL    HW2 2450   6.322   3.590   8.446 -1.2034 -2.6687 -1.2616
  337SOL     OW 2451   1.187   4.867   5.430  0.4928  0.2509  0.0574
  337SOL    HW1 2452   1.280   4.889   5.426  0.6253 -0.3755 -0.6081
  337SOL    HW2 2453   1.185   4.771   5.433 -0.1521  0.1364 -2.2621
  338SOL     OW 2454   5.749   0.296   6.391 -0.1907 -0.8198  0.2656
  338SOL    HW1 2455   5.691   0.276   6.465  0.8143 -0.7831  1.0865
  338SOL    HW2 2456   5.712   0.246   6.318 -0.9479 -1.2225  0.9038
  339SOL     OW 2457   1.159   7.493   1.408 -0.2683  0.1028  0.5998
  339SOL    HW1 2458   1.180   7.510   1.317  0.3619  0.0586  0.7311
  339SOL    HW2 2459   1.106   7.414   1.406 -0.0839 -0.0151  0.2831
  340SOL     OW 2460   0.574   4.896   3.360 -0.6656 -0.1587  0.5391
  340SOL    HW1 2461   0.596   4.808   3.389 -1.2505 -1.0835 -1.6006
  340SOL    HW2 2462   0.484   4.909   3.388 -1.1033 -0.8948 -0.4614
  341SOL     OW 2463   2.832   5.317  11.630 -0.3563  0.2545 -0.2734
  341SOL    HW1 2464   2.747   5.339  11.668 -0.3830  0.8844 -0.6911
  341SOL    HW2 2465   2.850   5.228  11.662 -0.7625  0.4537  0.5134
  342SOL     OW 2466   2.399   4.988   5.510 -0.2987  0.0390 -0.0572
  342SOL    HW1 2467   2.341   4.951   5.577  0.0553 -2.4231 -1.0143
  342SOL    HW2 2468   2.487   4.964   5.538 -0.2386 -3.1887 -2.4316
  343SOL     OW 2469   5.643   7.940  12.086  0.2130  0.9677 -0.1733
  343SOL    HW1 2470   5.707   7.890  12.137  0.0749  0.5606 -0.3947
  343SOL    HW2 2471   5.572   7.878  12.070 -0.6057  1.6522  0.7544
  344SOL     OW 2472   7.254   0.220   5.923  0.5860  0.4122  0.3376
  344SOL    HW1 2473   7.228   0.204   5.832  1.1246  1.3250  0.0094
  344SOL    HW2 2474   7.173   0.209   5.973  0.1288  0.5765 -0.3428
  345SOL     OW 2475   3.396   3.461  12.007  0.4815 -0.4574  0.0877
  345SOL    HW1 2476   3.476   3.481  11.959 -0.5300 -0.5022 -1.7121
  345SOL    HW2 2477   3.352   3.394  11.954 -1.4550  0.6390  0.2110
  346SOL     OW 2478   7.071   0.641   0.424  0.3020 -0.0977  0.6548
  346SOL    HW1 2479   7.146   0.641   0.483 -1.2319 -1.6987  2.7587
  346SOL    HW2 2480   6.995   0.652   0.482 -1.3474 -2.3549 -0.8972
  347SOL     OW 2481   3.895   6.293   2.866  0.0130  0.2069  0.0671
  347SOL    HW1 2482   3.966   6.355   2.849  0.4377  0.0651  1.2608
  347SOL    HW2 2483   3.926   6.240   2.939 -0.1619 -1.7083 -1.1772
  348SOL     OW 2484   3.824   5.007   6.034  0.1303  0.1374 -0.2040
  348SOL    HW1 2485   3.745   4.952   6.040 -1.7257  2.4016 -1.9670
  348SOL    HW2 2486   3.820   5.045   5.946  0.9609  3.4774  1.0513
  349SOL     OW 2487   6.342   5.088   1.645  0.1758  0.3239  0.2454
  349SOL    HW1 2488   6.322   5.162   1.703 -0.7254 -0.9759  1.6552
  349SOL    HW2 2489   6.411   5.122   1.588 -0.0616  2.1961  0.9690
  350SOL     OW 2490   3.007   4.351   2.587 -0.5317  0.6704 -0.1095
  350SOL    HW1 2491   3.078   4.335   2.649  1.1985 -0.2071 -2.1666
  350SOL    HW2 2492   2.931   4.309   2.626  0.7592 -0.8260  0.9151
  351SOL     OW 2493   6.768   3.380   8.697 -0.1117 -0.6150 -0.3560
  351SOL    HW1 2494   6.778   3.474   8.679 -2.2301 -0.0915  0.8747
  351SOL    HW2 2495   6.762   3.340   8.610  1.3551  0.2761 -0.9093
  352SOL     OW 2496   6.590   6.642   4.657  0.7040  0.1749 -0.6755
  352SOL    HW1 2497   6.640   6.691   4.722 -1.1045  1.4221 -0.1295
  352SOL    HW2 2498   6.647   6.637   4.581  2.5157 -0.5074  0.6617
  353SOL     OW 2499   0.567   5.145   9.250 -0.8400 -0.0823 -0.0036
  353SOL    HW1 2500   0.645   5.137   9.305 -1.2632 -0.0050  0.6133
  353SOL    HW2 2501   0.495   5.120   9.307 -1.6046  2.6109  0.3461
  354SOL     OW 2502   3.761   5.498  11.736 -0.2165  0.6534 -0.7295
  354SOL    HW1 2503   3.832   5.492  11.672 -0.1614 -0.6474 -0.5665
  354SOL    HW2 2504   3.788   5.440  11.807 -2.0721 -1.0299 -1.2982
  355SOL     OW 2505   2.247   0.548   4.088  0.6034 -0.4654 -0.4038
  355SOL    HW1 2506   2.303   0.471   4.089 -0.8173 -1.5816 -2.1780
  355SOL    HW2 2507   2.246   0.578   4.179  0.6712 -2.9021  0.4578
  356SOL     OW 2508   7.903   4.238  12.293  0.2113 -0.1485  0.4478
  356SOL    HW1 2509   7.887   4.152  12.255 -0.1950 -0.7567  1.9453
  356SOL    HW2 2510   7.917   4.295  12.217 -1.7030 -1.0845 -0.6858
  357SOL     OW 2511   4.630   6.683   9.415 -0.2700  0.0412 -0.1388
  357SOL    HW1 2512   4.553   6.647   9.371  0.2849 -0.1745 -0.9573
  357SOL    HW2 2513   4.597   6.760   9.462 -0.9900 -0.0673 -0.4571
  358SOL     OW 2514   3.411   0.822   9.500 -0.9734  0.2828  0.0520
  358SOL    HW1 2515   3.370   0.799   9.583 -0.8104 -0.4583 -0.0627
  358SOL    HW2 2516   3.355   0.780   9.434  0.9739 -2.4310 -0.0298
  359SOL     OW 2517   3.496   4.501   3.235  0.4300 -0.2705 -0.1489
  359SOL    HW1 2518   3.565   4.517   3.299  0.0549  1.1359 -0.0697
  359SOL    HW2 2519   3.418   4.484   3.287 -0.1208  1.9449 -0.1768
  360SOL     OW 2520   5.099   0.156   2.577 -0.1496 -0.3411  0.5295
  360SOL    HW1 2521   5.093   0.143   2.672 -1.7653  0.9372  0.6461
  360SOL    HW2 2522   5.178   0.210   2.565 -0.0146 -0.3898  1.1537
  361SOL     OW 2523   3.586   4.596   2.574 -0.0581  0.4393  0.4832
  361SOL    HW1 2524   3.496   4.629   2.563 -0.6281 -1.3403 -0.7164
  361SOL    HW2 2525   3.599   4.539   2.498  0.8563 -1.9788  2.3417
  362SOL     OW 2526   4.906   4.883   3.903 -0.4738  0.0904  0.0757
  362SOL    HW1 2527   4.913   4.845   3.816 -1.3417  1.8466 -0.8239
  362SOL    HW2 2528   4.980   4.944   3.909 -2.2401  2.5148 -0.8739
  363SOL     OW 2529   3.808   0.472   7.818 -0.0449 -0.1954 -0.3125
  363SOL    HW1 2530   3.902   0.468   7.805 -0.1078 -2.2951 -0.4220
  363SOL    HW2 2531   3.771   0.452   7.731 -0.5575 -1.1726  0.1160
  364SOL     OW 2532   3.187   3.801  11.384 -0.2247  0.1365 -0.5414
  364SOL    HW1 2533   3.095   3.810  11.409  0.1360 -0.0086  0.9033
  364SOL    HW2 2534   3.229   3.880  11.418  0.1736  0.2477 -1.2762
  365SOL     OW 2535   1.203   5.739  11.498 -0.6876 -0.0672 -0.0330
  365SOL    HW1 2536   1.223   5.731  11.404  0.3209  0.0291  0.1703
  365SOL    HW2 2537   1.204   5.649  11.531  1.8847  0.0900  0.4631
  366SOL     OW 2538   7.850   2.785   1.510 -0.3569 -0.2483  0.6141
  366SOL    HW1 2539   7.780   2.804   1.447 -0.7775 -0.8943  0.8766
  366SOL    HW2 2540   7.895   2.869   1.521 -1.1363  0.2008  0.5031
  367SOL     OW 2541   6.617   1.134   3.115  0.1405  0.3279  0.3135
  367SOL    HW1 2542   6.611   1.101   3.025 -0.5835  1.3401 -0.0228
  367SOL    HW2 2543   6.544   1.092   3.161  0.2251  0.1798  0.3152
  368SOL     OW 2544   3.570   5.321   4.080 -0.4225  0.1412  0.2031
  368SOL    HW1 2545   3.602   5.245   4.032 -0.5913 -0.1855  0.6074
  368SOL    HW2 2546   3.633   5.333   4.151 -1.4142 -0.7667  1.2641
  369SOL     OW 2547   1.866   0.358   4.437  0.0608 -0.4878  0.0720
  369SOL    HW1 2548   1.957   0.330   4.445 -0.6037 -2.5169  1.6112
  369SOL    HW2 2549   1.865   0.449   4.466  1.3548 -0.9967  1.8619
  370SOL     OW 2550   0.808   7.689   7.488 -1.0399  0.3143 -0.3686
  370SOL    HW1 2551   0.763   7.722   7.410 -0.8306  1.6209  0.0372
  370SOL    HW2 2552   0.742   7.693   7.557 -1.2312 -0.8580 -0.4716
  371SOL     OW 2553   2.691   1.275  10.539 -0.1992  0.1345  0.1808
  371SOL    HW1 2554   2.723   1.259  10.450 -0.7944  2.0405 -0.4195
  371SOL    HW2 2555   2.612   1.221  10.546  1.1217 -1.8578  0.4364
  372SOL     OW 2556   3.499   7.334   1.399  0.0381  0.3191 -0.3266
  372SOL    HW1 2557   3.573   7.285   1.436  0.1030  0.4812 -0.2419
  372SOL    HW2 2558   3.427   7.315   1.459 -0.3367 -0.8824 -1.1106
  373SOL     OW 2559   4.458   7.512   5.701 -0.5570  0.8865  0.0555
  373SOL    HW1 2560   4.379   7.485   5.655 -0.9842 -3.7269  2.8890
  373SOL    HW2 2561   4.430   7.528   5.791  1.6471 -1.8715  1.4031
  374SOL     OW 2562   4.801   4.769   1.797  0.1747  0.5082  0.1816
  374SOL    HW1 2563   4.793   4.674   1.797 -1.4985  0.6222  0.0547
  374SOL    HW2 2564   4.730   4.799   1.853  0.9817  1.6868  0.6215
  375SOL     OW 2565   0.542   5.882   3.270 -0.3284 -0.2847  0.1626
  375SOL    HW1 2566   0.589   5.884   3.353  0.5331 -0.8574 -0.2998
  375SOL    HW2 2567   0.533   5.789   3.249  0.5437 -0.1417 -0.9697
  376SOL     OW 2568   1.820   5.981   9.657 -0.0180  0.2439  0.6911
  376SOL    HW1 2569   1.774   6.007   9.737  0.8576  0.9904  0.9663
  376SOL    HW2 2570   1.913   5.977   9.683  0.4612  1.8649 -0.6033
  377SOL     OW 2571   5.293   3.785  11.095 -0.4103 -0.1862  0.3081
  377SOL    HW1 2572   5.302   3.760  11.003  0.5432  0.9515  0.0650
  377SOL    HW2 2573   5.310   3.705  11.144  1.0597 -0.3742 -0.4650
  378SOL     OW 2574   7.006   0.868   6.580  0.4182 -0.3558 -0.3297
  378SOL    HW1 2575   7.029   0.869   6.487 -0.8639 -0.2313 -0.6690
  378SOL    HW2 2576   7.078   0.914   6.623  0.4187  0.7400 -1.4348
  379SOL     OW 2577   4.011   7.644   6.954 -0.2159  0.0960 -0.1184
  379SOL    HW1 2578   4.045   7.670   6.869  1.0308  0.2151  0.3950
  379SOL    HW2 2579   3.958   7.719   6.983  0.4855  0.6270 -0.1884
  380SOL     OW 2580   7.333   3.494   8.631 -0.1488  0.0572 -0.4470
  380SOL    HW1 2581   7.379   3.503   8.547 -0.6128  0.0289 -0.7091
  380SOL    HW2 2582   7.400   3.512   8.697  0.3192 -0.3119 -0.8102
  381SOL     OW 2583   4.892   0.839   4.937  0.0458  0.2031  0.0827
  381SOL    HW1 2584   4.839   0.821   5.015 -2.0546 -0.8441 -1.4686
  381SOL    HW2 2585   4.850   0.915   4.896 -1.7569 -1.8699 -2.2724
  382SOL     OW 2586   7.971   0.615   3.619  0.0696  0.1239  0.6546
  382SOL    HW1 2587   7.932   0.528   3.630  2.2960 -0.8330  1.6099
  382SOL    HW2 2588   7.997   0.618   3.527  0.7843 -0.5830  0.8292
  383SOL     OW 2589   2.255   0.662  10.792  0.6702 -0.1423 -0.0673
  383SOL    HW1 2590   2.179   0.676  10.848 -0.6610  0.3503 -1.9009
  383SOL    HW2 2591   2.269   0.567  10.793 -0.4891 -0.3255 -0.3347
  384SOL     OW 2592   3.057   5.986  12.126  0.3032 -0.4010 -0.0096
  384SOL    HW1 2593   3.061   6.081  12.124  2.1050 -0.3551  2.1249
  384SOL    HW2 2594   3.083   5.959  12.037  1.4828  1.0985 -0.1670
  385SOL     OW 2595   0.340   0.823   5.739 -0.2773 -0.3684 -0.5508
  385SOL    HW1 2596   0.244   0.820   5.743 -0.3552 -0.6044 -2.1824
  385SOL    HW2 2597   0.359   0.851   5.650  1.1497  2.7055  0.5972
  386SOL     OW 2598   3.286   3.176   3.344 -0.0482 -0.1491  0.2785
  386SOL    HW1 2599   3.279   3.193   3.250 -0.8416  3.1936  0.8247
  386SOL    HW2 2600   3.379   3.188   3.364  0.2947 -1.8132 -0.1658
  387SOL     OW 2601   3.295   5.672  10.070  0.1143 -0.0625  0.2004
  387SOL    HW1 2602   3.367   5.611  10.082  0.0237 -0.1687  0.2081
  387SOL    HW2 2603   3.272   5.699  10.159  1.8016  1.9332  0.1034
  388SOL     OW 2604   2.786   3.813   1.811  0.3895  0.1036 -0.5258
  388SOL    HW1 2605   2.881   3.811   1.815  0.3463  0.3167  1.7374
  388SOL    HW2 2606   2.758   3.726   1.841 -0.1467 -0.0037 -1.2926
  389SOL     OW 2607   5.485   7.571   3.309  0.0237 -0.4555 -0.2911
  389SOL    HW1 2608   5.562   7.546   3.360 -1.1426 -0.3929  1.6054
  389SOL    HW2 2609   5.484   7.511   3.234  1.3885 -1.0485  0.1472
  390SOL     OW 2610   5.740   7.116   3.054  0.1667 -0.2625 -0.1305
  390SOL    HW1 2611   5.762   7.130   2.962 -0.3918 -1.0029 -0.3876
  390SOL    HW2 2612   5.780   7.032   3.076  0.7645  0.1669  0.4676
  391SOL     OW 2613   4.514   0.996  10.507 -0.0607  0.1772 -0.0252
  391SOL    HW1 2614   4.421   1.013  10.522  0.1942 -0.2847  2.5631
  391SOL    HW2 2615   4.518   0.903  10.484 -0.1049 -0.4756  2.3477
  392SOL     OW 2616   0.670   3.987   7.239  0.0399  0.0459  0.0444
  392SOL    HW1 2617   0.704   3.899   7.256 -0.0321  0.3629  2.2032
  392SOL    HW2 2618   0.744   4.045   7.255 -0.3771  0.4758  0.4711
  393SOL     OW 2619   7.809   7.888   5.674  0.4014  0.4769 -0.3759
  393SOL    HW1 2620   7.838   7.829   5.743  2.3778 -2.3126 -3.2464
  393SOL    HW2 2621   7.891   7.919   5.634 -0.5915  0.7261 -2.3590
  394SOL     OW 2622   6.885   5.869   2.977 -0.1239  0.0247 -0.1461
  394SOL    HW1 2623   6.830   5.824   2.912  0.5359  0.0221 -0.7147
  394SOL    HW2 2624   6.827   5.881   3.053 -0.8192 -0.2399 -0.6204
  395SOL     OW 2625   0.452   4.886   1.096  0.0670 -0.4082  0.1933
  395SOL    HW1 2626   0.439   4.887   1.001  3.3764  0.0207 -0.3625
  395SOL    HW2 2627   0.519   4.953   1.112 -1.5180  0.6576  3.0866
  396SOL     OW 2628   4.600   1.542   6.214  0.1824  0.2772 -0.4101
  396SOL    HW1 2629   4.611   1.637   6.209 -0.2803  0.3838  0.4030
  396SOL    HW2 2630   4.613   1.511   6.125 -0.8046  1.2377 -0.9114
  397SOL     OW 2631   3.991   3.339   1.538 -0.0987 -0.1667 -0.1622
  397SOL    HW1 2632   4.027   3.275   1.477  1.0677 -0.1409  0.4775
  397SOL    HW2 2633   3.958   3.287   1.611 -2.6204 -0.3053 -1.2769
  398SOL     OW 2634   3.838   7.093   1.706 -0.1252  0.2099 -0.0969
  398SOL    HW1 2635   3.780   7.063   1.776 -1.0882 -1.7884 -1.6265
  398SOL    HW2 2636   3.913   7.033   1.709 -0.7064 -0.6284 -1.4268
  399SOL     OW 2637   6.850   7.037   0.105  0.7824  0.4616 -0.2308
  399SOL    HW1 2638   6.778   7.043   0.041 -0.4426 -0.9267  0.9594
  399SOL    HW2 2639   6.894   6.955   0.083 -0.9224 -1.1395  1.8749
  400SOL     OW 2640   5.902   1.220   2.827  0.7067  0.1825 -0.1893
  400SOL    HW1 2641   5.927   1.158   2.758 -0.9803  1.3203 -1.9283
  400SOL    HW2 2642   5.809   1.203   2.842  0.5436  1.3669  0.2666
  401SOL     OW 2643   5.864   4.511   1.179 -0.5143 -0.3615 -0.0219
  401SOL    HW1 2644   5.943   4.553   1.212  0.3009 -0.9336 -1.1785
  401SOL    HW2 2645   5.822   4.475   1.257  0.7174 -0.6109  0.5581
  402SOL     OW 2646   2.224   4.222   7.243  0.3919 -0.0380 -0.0144
  402SOL    HW1 2647   2.279   4.162   7.191 -3.0211 -2.0364 -1.6938
  402SOL    HW2 2648   2.218   4.301   7.190 -1.4161 -1.3073 -1.8509
  403SOL     OW 2649   6.395   4.110   4.738 -1.0733  0.3561  0.5347
  403SOL    HW1 2650   6.352   4.145   4.816  1.0026  0.6843  1.6003
  403SOL    HW2 2651   6.461   4.176   4.716 -1.7185  0.3359 -1.6199
  404SOL     OW 2652   5.713   6.009   9.776  0.5006 -0.3889 -0.2436
  404SOL    HW1 2653   5.753   5.928   9.806  0.9613 -0.3371 -0.6966
  404SOL    HW2 2654   5.785   6.072   9.774  0.3822 -0.2651 -0.9454
  405SOL     OW 2655   4.439   3.562  11.820  0.0116  0.3172  0.1575
  405SOL    HW1 2656   4.370   3.628  11.825 -0.1151  0.2540 -0.5785
  405SOL    HW2 2657   4.483   3.566  11.904 -0.2931  1.0175  0.2869
  406SOL     OW 2658   5.785   7.633   1.913  0.4221  0.3795 -0.3058
  406SOL    HW1 2659   5.854   7.699   1.923  0.6360  0.1185 -0.0421
  406SOL    HW2 2660   5.710   7.682   1.880  0.1919  0.9791  1.0514
  407SOL     OW 2661   2.411   6.789   1.797  0.4770  0.2469 -0.3762
  407SOL    HW1 2662   2.344   6.768   1.861  0.5459  1.9798  0.3152
  407SOL    HW2 2663   2.373   6.762   1.713  0.8515 -3.1073  0.4132
  408SOL     OW 2664   3.100   4.252  11.204 -0.4400 -0.3124 -0.2149
  408SOL    HW1 2665   3.133   4.342  11.212 -1.5674  0.1311 -0.4501
  408SOL    HW2 2666   3.013   4.261  11.165 -1.2596 -1.3792  1.2551
  409SOL     OW 2667   1.055   5.467  11.945  0.0631  0.9209  0.7650
  409SOL    HW1 2668   1.084   5.469  12.036  0.0620 -0.3548  0.8000
  409SOL    HW2 2669   1.135   5.483  11.894  0.6207 -1.0842  0.9161
  410SOL     OW 2670   1.446   0.866   4.347  0.0794 -0.3828  0.5927
  410SOL    HW1 2671   1.380   0.931   4.371  0.7748  0.8745 -0.7385
  410SOL    HW2 2672   1.529   0.914   4.352  0.8357 -1.7177  1.4523
  411SOL     OW 2673   0.140   4.610   4.485  0.0321 -0.1389  0.3259
  411SOL    HW1 2674   0.063   4.667   4.485 -0.4518 -0.7793  0.8432
  411SOL    HW2 2675   0.127   4.552   4.410  0.1374 -0.0941  0.2714
  412SOL     OW 2676   4.414   1.725   2.563  0.4488  0.6697 -0.1977
  412SOL    HW1 2677   4.430   1.801   2.507  0.6613  0.5804 -0.2594
  412SOL    HW2 2678   4.473   1.657   2.529  0.7479  0.6851  0.2725
  413SOL     OW 2679   7.085   2.013   0.352  0.4248 -0.0755 -0.7151
  413SOL    HW1 2680   7.022   1.958   0.398  2.7144 -4.1857 -1.9647
  413SOL    HW2 2681   7.032   2.078   0.306 -2.5303 -1.1278  0.9252
  414SOL     OW 2682   1.563   7.530   3.700 -0.8293  0.4299  0.3332
  414SOL    HW1 2683   1.539   7.616   3.736  0.1374  0.1764  1.6536
  414SOL    HW2 2684   1.659   7.529   3.704 -0.7555 -0.1003 -1.1597
  415SOL     OW 2685   6.366   2.081   3.717 -0.0131 -0.0776  0.0299
  415SOL    HW1 2686   6.332   2.090   3.628 -1.4275 -1.2396  0.3979
  415SOL    HW2 2687   6.287   2.078   3.771  0.8369  1.1843  1.4055
  416SOL     OW 2688   7.627   1.888   4.721 -0.5199  0.4768  0.1653
  416SOL    HW1 2689   7.678   1.913   4.798 -0.8439 -0.1116  0.5770
  416SOL    HW2 2690   7.572   1.816   4.751 -1.1996  0.7439 -0.4193
  417SOL     OW 2691   2.998   4.362   2.942 -0.0871 -0.0814  0.1080
  417SOL    HW1 2692   3.052   4.288   2.914 -0.6054 -0.4232  0.0115
  417SOL    HW2 2693   2.912   4.325   2.958  0.0910  0.1544  1.8522
  418SOL     OW 2694   4.852   6.128   2.749  0.6825 -0.1112  0.2256
  418SOL    HW1 2695   4.894   6.174   2.677  1.9271 -0.0154  0.9971
  418SOL    HW2 2696   4.758   6.142   2.734  0.9203  0.0951 -1.2353
  419SOL     OW 2697   6.894   4.295   2.975  0.1729  0.0719 -0.2818
  419SOL    HW1 2698   6.966   4.249   2.932 -0.4023 -0.5620 -0.5731
  419SOL    HW2 2699   6.830   4.227   2.995  0.7424  0.1754  2.3198
  420SOL     OW 2700   0.732   1.750   7.093 -0.0230  0.1121  0.0188
  420SOL    HW1 2701   0.699   1.750   7.183 -0.7675 -0.1241 -0.2460
  420SOL    HW2 2702   0.826   1.735   7.102 -0.0090  0.6244  0.7807
  421SOL     OW 2703   6.285   2.975  11.587 -0.1745  0.1295  0.1098
  421SOL    HW1 2704   6.271   2.967  11.681 -0.8527  0.1047  0.0099
  421SOL    HW2 2705   6.369   3.019  11.579  0.5604 -1.0889  0.7203
  422SOL     OW 2706   7.793   2.074   6.623  0.0775 -0.1622 -0.3421
  422SOL    HW1 2707   7.817   1.983   6.642 -1.4238 -0.9303 -1.7822
  422SOL    HW2 2708   7.797   2.080   6.527 -1.4853  0.7705 -0.3795
  423SOL     OW 2709   7.749   5.203   9.124 -0.0334  0.2677  0.1871
  423SOL    HW1 2710   7.738   5.154   9.042 -0.6418  0.8513 -0.0872
  423SOL    HW2 2711   7.676   5.264   9.126  0.1123  0.4341  1.0529
  424SOL     OW 2712   4.369   5.298   2.200 -0.0850  0.4026 -0.2632
  424SOL    HW1 2713   4.308   5.225   2.215  0.5908 -0.0635  0.2743
  424SOL    HW2 2714   4.424   5.300   2.279 -0.5265  1.9373  0.0318
  425SOL     OW 2715   7.969   2.701   0.430  0.2706  0.3165  0.1146
  425SOL    HW1 2716   7.882   2.661   0.423 -0.0792  0.5880  2.2343
  425SOL    HW2 2717   8.026   2.644   0.378 -1.0810 -0.1025 -0.9622
  426SOL     OW 2718   7.879   5.138  10.195 -0.5827 -0.0574 -0.2834
  426SOL    HW1 2719   7.925   5.079  10.255 -1.2016  0.0068  0.2716
  426SOL    HW2 2720   7.933   5.139  10.116  1.9757  2.2456  1.3032
  427SOL     OW 2721   0.125   0.954   9.057 -0.8094 -0.2783 -0.2618
  427SOL    HW1 2722   0.167   0.894   9.118 -0.9855 -1.9771 -1.7264
  427SOL    HW2 2723   0.034   0.925   9.053 -0.8546 -0.0445 -1.1459
  428SOL     OW 2724   6.097   6.672   0.646  0.1503  0.3903  0.1562
  428SOL    HW1 2725   6.128   6.598   0.594  0.4830 -0.5402  1.6015
  428SOL    HW2 2726   6.161   6.742   0.630  1.4119 -0.5600  0.8829
  429SOL     OW 2727   2.243   0.109   7.061 -0.2629 -0.1871 -0.0043
  429SOL    HW1 2728   2.236   0.018   7.088 -0.0561  0.6413  3.2888
  429SOL    HW2 2729   2.157   0.130   7.025 -0.5564 -1.4840 -0.0981
  430SOL     OW 2730   6.124   6.015  12.472  0.7411  0.0589  0.2726
  430SOL    HW1 2731   6.103   6.001  12.380 -0.2182  0.5721  0.3934
  430SOL    HW2 2732   6.201   6.073  12.471  1.6798 -1.1643 -0.1913
  431SOL     OW 2733   4.517   6.710   2.063 -0.4026  0.0564  0.3800
  431SOL    HW1 2734   4.474   6.645   2.118  0.1119 -0.6125  0.0019
  431SOL    HW2 2735   4.575   6.659   2.007  1.1549  0.9801  1.1115
  432SOL     OW 2736   7.087   4.263   4.957  0.1896 -0.0466  0.9601
  432SOL    HW1 2737   7.031   4.310   5.019 -0.0464 -0.0036  0.7172
  432SOL    HW2 2738   7.117   4.186   5.005 -0.8369 -0.5689  0.7916
  433SOL     OW 2739   5.842   4.689   5.040 -0.2306 -0.3670 -0.0992
  433SOL    HW1 2740   5.872   4.630   4.972 -0.5254 -1.4225  0.6604
  433SOL    HW2 2741   5.754   4.715   5.012  0.8648  1.8582 -1.7665
  434SOL     OW 2742   1.977   1.442   1.437  0.1863  0.2182  0.0288
  434SOL    HW1 2743   1.903   1.500   1.417 -0.3754 -0.3447  0.3968
  434SOL    HW2 2744   1.970   1.372   1.372 -1.8889 -1.8342  2.2347
  435SOL     OW 2745   4.189   1.574  11.291  0.3596  0.3572 -0.5726
  435SOL    HW1 2746   4.258   1.509  11.300  0.5881  0.5321 -1.0071
  435SOL    HW2 2747   4.123   1.532  11.236 -0.6830 -0.4319  1.1815
  436SOL     OW 2748   3.105   0.335   0.132 -0.2446  0.5383 -0.5023
  436SOL    HW1 2749   3.147   0.268   0.079  0.7734  1.0898 -0.4244
  436SOL    HW2 2750   3.014   0.307   0.139  0.0312 -0.5139 -0.9625
  437SOL     OW 2751   3.712   1.713   9.328  0.4229  0.3393  0.1670
  437SOL    HW1 2752   3.807   1.713   9.320  0.3893  1.0336 -0.3615
  437SOL    HW2 2753   3.685   1.796   9.288 -0.4276 -0.0141 -0.0056
  438SOL     OW 2754   5.744   0.112   4.579  0.4130 -0.0692 -0.2801
  438SOL    HW1 2755   5.667   0.169   4.582  0.1133 -0.3824 -1.4341
  438SOL    HW2 2756   5.725   0.041   4.640  0.4480  0.6385  0.5688
  439SOL     OW 2757   1.835   7.846  11.975  0.2223 -0.1515  0.6549
  439SOL    HW1 2758   1.804   7.865  11.887 -0.5369  2.5097  1.3924
  439SOL    HW2 2759   1.757   7.813  12.021 -0.4174  2.0578  1.2630
  440SOL     OW 2760   2.226   4.056   4.816  0.1811 -0.0387 -0.4727
  440SOL    HW1 2761   2.291   4.124   4.836  0.1295  0.1305 -0.8750
  440SOL    HW2 2762   2.184   4.038   4.900 -0.8222  1.4657 -0.6194
  441SOL     OW 2763   7.582   4.963   8.516 -0.3564 -0.3046 -0.0091
  441SOL    HW1 2764   7.622   4.919   8.591  0.7839  1.0829  0.2592
  441SOL    HW2 2765   7.614   4.916   8.439 -1.1523 -1.4441  0.3369
  442SOL     OW 2766   5.418   1.415   3.368 -0.0908 -0.3764 -0.3097
  442SOL    HW1 2767   5.436   1.322   3.357  0.3357 -0.3142 -0.1894
  442SOL    HW2 2768   5.346   1.419   3.431 -0.9020 -0.6526 -1.2186
  443SOL     OW 2769   7.014   3.917   0.979  0.0953 -0.1456  0.2817
  443SOL    HW1 2770   6.927   3.896   1.013 -0.5447  0.9040 -0.6069
  443SOL    HW2 2771   7.031   4.006   1.011  0.6862 -0.1991  0.1345
  444SOL     OW 2772   3.539   2.599  10.317  0.3173  0.2949  0.2394
  444SOL    HW1 2773   3.613   2.539  10.303 -0.5417 -0.7798  0.1447
  444SOL    HW2 2774   3.462   2.542  10.317 -0.5499  1.4355 -0.0070
  445SOL     OW 2775   4.959   0.258   3.749 -0.3517 -0.0974 -0.0585
  445SOL    HW1 2776   4.865   0.270   3.737 -0.5666  0.4907  1.8155
  445SOL    HW2 2777   4.982   0.186   3.691 -2.1388 -0.8830  0.1307
  446SOL     OW 2778   3.572   0.848   3.928  0.2342  0.3796  0.6674
  446SOL    HW1 2779   3.600   0.820   3.841 -0.6310  1.0472  0.1546
  446SOL    HW2 2780   3.589   0.773   3.985  1.5299  0.2113  0.0833
  447SOL     OW 2781   4.396   5.860   5.494 -0.6611  0.3516  0.1438
  447SOL    HW1 2782   4.321   5.864   5.553 -0.2715 -0.5663  0.7222
  447SOL    HW2 2783   4.358   5.856   5.406 -1.3050 -0.7110  0.4543
  448SOL     OW 2784   5.047   0.005   6.995 -0.3755  0.0448 -0.1503
  448SOL    HW1 2785   4.978   0.071   6.981 -0.9399 -0.4243  0.3466
  448SOL    HW2 2786   5.100   0.042   7.065 -1.2764 -0.4503  0.8284
  449SOL     OW 2787   1.689   7.279   4.826 -0.6995 -0.3058  0.3695
  449SOL    HW1 2788   1.607   7.310   4.788  0.2316  0.9829 -0.6674
  449SOL    HW2 2789   1.665   7.199   4.872 -2.4148 -0.3086 -0.4513
  450SOL     OW 2790   3.703   6.000   6.814  0.0420 -0.1628  0.2932
  450SOL    HW1 2791   3.713   5.927   6.752 -0.4359  0.3520 -0.3967
  450SOL    HW2 2792   3.770   5.983   6.881  2.4465  0.6782 -1.7340
  451SOL     OW 2793   4.012   6.034  10.057 -0.2388  0.1292  0.3406
  451SOL    HW1 2794   4.047   5.971   9.994  1.2731  0.3296  0.9410
  451SOL    HW2 2795   3.918   6.015  10.059 -0.4184  0.4066 -2.2408
  452SOL     OW 2796   4.380   6.306   2.417 -0.1532  0.2546  0.3890
  452SOL    HW1 2797   4.386   6.210   2.415 -1.6178  0.1478 -0.8593
  452SOL    HW2 2798   4.318   6.324   2.488  0.9108  0.3631  1.3183
  453SOL     OW 2799   4.060   4.776   5.974  0.0730 -0.1421  0.1913
  453SOL    HW1 2800   3.983   4.775   6.031 -0.2499 -1.5250 -0.2488
  453SOL    HW2 2801   4.045   4.850   5.915 -1.3145 -0.8385 -0.3884
  454SOL     OW 2802   7.477   3.066   8.069 -0.2363 -0.5230 -0.0875
  454SOL    HW1 2803   7.458   3.017   8.149  0.6730  0.0561  0.5022
  454SOL    HW2 2804   7.455   3.005   7.998  0.6083 -1.6890  0.6215
  455SOL     OW 2805   7.016   0.867  12.334 -0.0043  0.3819  0.3806
  455SOL    HW1 2806   6.954   0.843  12.403 -2.7885 -1.8755 -2.6224
  455SOL    HW2 2807   7.061   0.786  12.313 -0.7375  0.4584 -1.7591
  456SOL     OW 2808   6.709   2.525   8.081  0.4714  0.1500 -0.2644
  456SOL    HW1 2809   6.685   2.433   8.068 -0.5610  0.1799  1.1329
  456SOL    HW2 2810   6.687   2.542   8.173 -0.6616  2.1687 -0.8607
  457SOL     OW 2811   4.881   7.510  11.665  0.0449  0.5307  0.4022
  457SOL    HW1 2812   4.967   7.491  11.702 -1.0168  0.5748  3.1109
  457SOL    HW2 2813   4.820   7.463  11.722 -1.7944  1.1982 -0.9292
  458SOL     OW 2814   6.944   5.205  11.587 -0.3407 -0.0097 -0.0935
  458SOL    HW1 2815   6.878   5.196  11.519  0.2332 -0.4156 -0.6065
  458SOL    HW2 2816   6.955   5.117  11.622  0.0092  0.0333 -0.0881
  459SOL     OW 2817   5.369   6.090  12.210  0.7173  0.8131  0.0395
  459SOL    HW1 2818   5.403   6.119  12.125 -1.5686 -2.2803 -2.1261
  459SOL    HW2 2819   5.300   6.153  12.231  0.2786  0.7768 -1.1968
  460SOL     OW 2820   4.476   5.268  10.419  0.6367  0.3464  0.3468
  460SOL    HW1 2821   4.396   5.307  10.454  0.0539 -0.7905  0.3384
  460SOL    HW2 2822   4.451   5.236  10.332  0.7635 -0.9920  0.7715
  461SOL     OW 2823   2.835   0.340   0.863 -0.1121  0.2268 -0.0053
  461SOL    HW1 2824   2.860   0.321   0.953  2.7048 -0.6944 -0.8944
  461SOL    HW2 2825   2.782   0.265   0.836  0.1188 -0.1130  0.4845
  462SOL     OW 2826   6.023   3.046   4.037  0.2814 -0.3325 -0.0159
  462SOL    HW1 2827   6.097   2.986   4.033  0.4839 -0.1384  0.7554
  462SOL    HW2 2828   6.037   3.097   4.117 -0.6691 -0.2779  0.1297
  463SOL     OW 2829   1.738   7.012   1.963 -0.6531  0.3374  0.2336
  463SOL    HW1 2830   1.741   7.071   1.888 -0.5845 -1.2806 -1.0978
  463SOL    HW2 2831   1.829   7.000   1.989 -0.6225  0.3778  0.1424
  464SOL     OW 2832   3.438   5.859   3.849 -0.4786 -0.3291 -0.3575
  464SOL    HW1 2833   3.479   5.773   3.843  0.7924  0.1723  0.7466
  464SOL    HW2 2834   3.373   5.859   3.778  2.1387 -0.7770 -2.9494
  465SOL     OW 2835   2.658   1.337   0.544  0.5018  0.3797 -0.1254
  465SOL    HW1 2836   2.617   1.424   0.539  0.0405  0.1313 -0.7479
  465SOL    HW2 2837   2.741   1.347   0.496  0.8280  0.6805  0.4868
  466SOL     OW 2838   3.492   2.486   9.042  0.0695 -0.0912  0.3750
  466SOL    HW1 2839   3.403   2.502   9.075  0.1598 -0.7175  0.9327
  466SOL    HW2 2840   3.549   2.516   9.113  0.4625  3.4833 -1.2050
  467SOL     OW 2841   4.652   6.539  11.818  0.3398 -0.0359  0.6934
  467SOL    HW1 2842   4.681   6.604  11.754  0.5690 -1.6572 -0.9347
  467SOL    HW2 2843   4.609   6.471  11.766 -1.9154 -0.1613  2.5369
  468SOL     OW 2844   0.406   1.467   5.493 -0.3202 -0.0329 -0.3798
  468SOL    HW1 2845   0.466   1.542   5.498 -0.8491  0.4109 -0.5684
  468SOL    HW2 2846   0.332   1.491   5.548  0.7075 -1.5902  1.8328
  469SOL     OW 2847   0.605   5.824   2.832 -0.2890  0.0418  0.3855
  469SOL    HW1 2848   0.667   5.817   2.905 -0.3698  1.7871  0.6556
  469SOL    HW2 2849   0.521   5.841   2.874 -0.5354 -0.0003 -0.0810
  470SOL     OW 2850   0.008   4.433   0.756 -0.1873  0.5642  0.2343
  470SOL    HW1 2851   0.077   4.398   0.699 -0.8968 -1.3793  0.4732
  470SOL    HW2 2852  -0.047   4.485   0.698  0.9976  1.4773 -0.1213
  471SOL     OW 2853   1.430   5.681   9.051 -0.1256 -0.5492  0.1719
  471SOL    HW1 2854   1.462   5.694   8.962  0.6817 -0.2816  0.4843
  471SOL    HW2 2855   1.510   5.679   9.104 -0.6016 -0.6316  0.8931
  472SOL     OW 2856   2.288   6.998   9.704 -0.5510  0.2209 -0.0258
  472SOL    HW1 2857   2.362   6.993   9.764  1.0080  1.2716 -1.7586
  472SOL    HW2 2858   2.244   7.080   9.726 -1.1322 -0.3077  0.8703
  473SOL     OW 2859   6.873   3.399   7.023 -0.4642  0.6266  0.3765
  473SOL    HW1 2860   6.823   3.437   7.094  0.7303  0.7555  1.1797
  473SOL    HW2 2861   6.910   3.474   6.976 -0.0633  0.5232  0.5171
  474SOL     OW 2862   2.714   3.355   7.413 -0.5829  0.8066 -0.1732
  474SOL    HW1 2863   2.806   3.340   7.390 -0.7123  1.9645 -1.5662
  474SOL    HW2 2864   2.666   3.287   7.367 -0.5862  1.4232 -1.1049
  475SOL     OW 2865   4.174   5.341   4.951  0.3090  0.3792  0.5106
  475SOL    HW1 2866   4.101   5.287   4.919 -1.1583  1.1923  2.2545
  475SOL    HW2 2867   4.247   5.281   4.959 -0.1909 -0.5106 -1.1771
  476SOL     OW 2868   3.016   0.716   4.175  0.2860 -0.7388  0.0087
  476SOL    HW1 2869   3.034   0.662   4.251  0.6299 -0.7267 -0.0591
  476SOL    HW2 2870   3.044   0.663   4.100  2.3962  0.2087  0.0427
  477SOL     OW 2871   0.260   3.619   9.560  0.6163 -0.2228  0.2883
  477SOL    HW1 2872   0.170   3.622   9.527  0.3971  0.8914  0.9485
  477SOL    HW2 2873   0.310   3.673   9.497  0.6552 -0.1066  0.4188
  478SOL     OW 2874   6.585   1.367   9.116 -0.0963  0.0691  0.5996
  478SOL    HW1 2875   6.537   1.398   9.039  0.0419  0.8746  0.8229
  478SOL    HW2 2876   6.534   1.293   9.148 -0.2431 -0.1754 -0.1692
  479SOL     OW 2877   2.976   2.268   7.388 -0.0564 -0.5544  0.7946
  479SOL    HW1 2878   2.960   2.358   7.363  0.6407 -1.2602 -2.6112
  479SOL    HW2 2879   3.045   2.273   7.454 -0.7756  1.4043  1.4720
  480SOL     OW 2880   5.975   6.462   3.382  1.2059  0.2418 -0.2970
  480SOL    HW1 2881   5.968   6.367   3.383  0.3471  0.2703 -1.4123
  480SOL    HW2 2882   6.034   6.482   3.309  2.5021  0.5325  0.7959
  481SOL     OW 2883   4.491   4.165   1.779  0.0197 -0.3361 -0.3350
  481SOL    HW1 2884   4.456   4.110   1.848 -0.4328  0.3437 -0.0150
  481SOL    HW2 2885   4.415   4.209   1.741  0.2302 -0.8670 -1.4272
  482SOL     OW 2886   7.871   6.444   5.784  0.1263 -0.5863 -0.6268
  482SOL    HW1 2887   7.815   6.393   5.843  0.0362 -1.2795 -1.2983
  482SOL    HW2 2888   7.813   6.469   5.712 -0.5229  2.7058  0.8905
  483SOL     OW 2889   1.446   3.650   6.792  0.1944  0.0334 -0.1018
  483SOL    HW1 2890   1.475   3.564   6.821  0.7139 -0.4620 -1.9657
  483SOL    HW2 2891   1.390   3.682   6.863 -0.7470 -2.2166  0.2487
  484SOL     OW 2892   7.412   6.457  10.777  0.1792  0.4275  0.2131
  484SOL    HW1 2893   7.326   6.422  10.800  0.1189  0.6705  0.3691
  484SOL    HW2 2894   7.473   6.407  10.831  0.0898  0.6010  0.4757
  485SOL     OW 2895   1.300   6.221   9.617  0.2593  0.1682  0.3934
  485SOL    HW1 2896   1.314   6.246   9.525  1.2970 -1.0522  0.1946
  485SOL    HW2 2897   1.313   6.302   9.666  2.9929  0.2219 -0.2698
  486SOL     OW 2898   7.685   6.648  10.233  0.2361  0.2998  0.3648
  486SOL    HW1 2899   7.652   6.578  10.177  0.0116  1.2716 -0.7459
  486SOL    HW2 2900   7.624   6.721  10.220  1.4699  1.3228  0.0927
  487SOL     OW 2901   0.510   6.746   6.852  0.2325  0.3286  0.5428
  487SOL    HW1 2902   0.506   6.842   6.851 -1.4536  0.2821 -0.2876
  487SOL    HW2 2903   0.469   6.722   6.935 -0.2774  0.3101  0.2889
  488SOL     OW 2904   3.208   4.788   6.809  0.4592  0.1646 -0.3694
  488SOL    HW1 2905   3.134   4.758   6.756 -0.2989 -0.2424  0.8823
  488SOL    HW2 2906   3.212   4.882   6.792  1.3486 -0.1830 -2.4668
  489SOL     OW 2907   5.346   3.041   4.397  0.4418 -0.0970 -0.4113
  489SOL    HW1 2908   5.434   3.014   4.424  0.6212 -0.3517 -1.2000
  489SOL    HW2 2909   5.360   3.089   4.315 -0.0414  0.9846  0.1149
  490SOL     OW 2910   2.806   4.896   6.932 -0.0818  0.6598  0.1156
  490SOL    HW1 2911   2.729   4.884   6.987 -1.0237  0.8863 -1.1084
  490SOL    HW2 2912   2.804   4.820   6.873 -0.0783  1.3091 -0.7328
  491SOL     OW 2913   1.624   0.920  11.242  0.0520 -0.2289 -0.1891
  491SOL    HW1 2914   1.572   0.901  11.165  0.1659  2.2432 -0.9846
  491SOL    HW2 2915   1.578   0.878  11.314 -1.8139  0.0399 -1.1725
  492SOL     OW 2916   3.908   3.311   7.730 -0.1216 -0.1058 -0.5260
  492SOL    HW1 2917   3.845   3.377   7.700 -0.1839  0.8359  1.4655
  492SOL    HW2 2918   3.991   3.359   7.737  0.0392 -0.4622  0.0699
  493SOL     OW 2919   3.929   2.943  10.398  0.0828  0.2498  0.1094
  493SOL    HW1 2920   3.909   2.919  10.307 -0.8457 -0.5147  0.4918
  493SOL    HW2 2921   3.864   3.010  10.420  0.9644  1.1915 -0.1030
  494SOL     OW 2922   2.399   0.772   3.427  0.3153  0.5941  0.0804
  494SOL    HW1 2923   2.436   0.833   3.363  1.5672 -0.0204  0.1739
  494SOL    HW2 2924   2.399   0.687   3.382  1.3423  0.1259  0.9103
  495SOL     OW 2925   5.773   5.807   1.078 -0.1372  0.4885  0.2459
  495SOL    HW1 2926   5.793   5.716   1.102  1.3214  0.1448 -2.0062
  495SOL    HW2 2927   5.683   5.803   1.044 -0.4111  0.0905  0.9845
  496SOL     OW 2928   1.943   6.458   6.531  0.1717 -0.5441 -0.2698
  496SOL    HW1 2929   1.892   6.446   6.451  1.9228 -0.3551 -1.4682
  496SOL    HW2 2930   1.971   6.370   6.557  0.4306 -0.5089 -0.4303
  497SOL     OW 2931   6.975   7.163   3.179 -0.7337  0.3449  0.5867
  497SOL    HW1 2932   6.974   7.249   3.137 -0.8934 -0.1509 -0.4563
  497SOL    HW2 2933   6.885   7.150   3.209 -1.4032 -0.5348 -1.5874
  498SOL     OW 2934   5.143   0.928   8.259 -0.3342 -0.4313  0.4902
  498SOL    HW1 2935   5.106   0.909   8.345  1.1846 -1.2009  1.0034
  498SOL    HW2 2936   5.072   0.972   8.212 -1.6082 -1.0920  1.7033
  499SOL     OW 2937   1.490   1.004   1.829 -0.0926  0.5076  0.0609
  499SOL    HW1 2938   1.505   1.005   1.734  0.2198  0.7416  0.1104
  499SOL    HW2 2939   1.400   1.037   1.839  0.1847  1.3425 -0.1039
  500SOL     OW 2940   5.523   1.031  11.820  0.0953 -0.7148 -0.0992
  500SOL    HW1 2941   5.530   1.110  11.768  1.8642 -1.2790 -0.7934
  500SOL    HW2 2942   5.560   1.054  11.905 -0.2018 -0.5749 -0.0043
  501SOL     OW 2943   0.022   5.234  11.860  0.5670 -0.4362  0.0681
  501SOL    HW1 2944   0.048   5.145  11.883  1.0033  0.0986  1.8703
  501SOL    HW2 2945  -0.067   5.226  11.828 -0.2937 -1.3227  2.4360
  502SOL     OW 2946   6.748   4.583   5.143  0.1196  0.1474 -0.0690
  502SOL    HW1 2947   6.803   4.638   5.087 -2.0085  3.0552  0.4475
  502SOL    HW2 2948   6.672   4.561   5.088 -0.5620  0.4541  0.7331
  503SOL     OW 2949   6.435   6.532   7.604  0.0520 -0.7503 -0.4180
  503SOL    HW1 2950   6.381   6.513   7.681 -1.5250 -0.1308 -1.3102
  503SOL    HW2 2951   6.438   6.628   7.601  0.4467 -0.7748 -0.8981
  504SOL     OW 2952   3.756   7.604  10.318 -0.1090  0.1954  0.3122
  504SOL    HW1 2953   3.831   7.663  10.307 -0.3639  0.5491  0.4370
  504SOL    HW2 2954   3.771   7.534  10.254 -0.3484  0.9686 -0.6146
  505SOL     OW 2955   4.669   3.533  12.458  0.5118  0.1142 -0.2156
  505SOL    HW1 2956   4.611   3.457  12.465  0.2297  0.1666 -1.7128
  505SOL    HW2 2957   4.751   3.498  12.423 -0.0498  0.6384 -2.2131
  506SOL     OW 2958   2.828   3.107   3.025 -0.0667 -0.2985  0.1863
  506SOL    HW1 2959   2.820   3.039   2.958  0.5305 -0.3859  0.2007
  506SOL    HW2 2960   2.763   3.173   2.999 -0.0706 -0.4829 -0.2972
  507SOL     OW 2961   6.078   2.539  11.406 -0.0383 -0.1418  0.1279
  507SOL    HW1 2962   6.053   2.595  11.332 -1.2191 -1.1254 -0.2546
  507SOL    HW2 2963   6.137   2.593  11.458  1.7359  0.2440 -2.0951
  508SOL     OW 2964   5.209   5.689   8.364 -0.4977 -0.5706 -0.1438
  508SOL    HW1 2965   5.171   5.705   8.450  0.2886 -0.0440  0.1175
  508SOL    HW2 2966   5.139   5.648   8.314 -1.0374 -0.6651  0.6734
  509SOL     OW 2967   5.595   4.539   6.901  0.5064  0.0610 -0.2010
  509SOL    HW1 2968   5.652   4.609   6.931  1.3812 -0.4873 -0.5264
  509SOL    HW2 2969   5.516   4.583   6.870  0.8395  0.8507  0.0500
  510SOL     OW 2970   0.999   4.513   9.865  0.4182 -0.4759 -0.0998
  510SOL    HW1 2971   1.066   4.568   9.824  0.0779 -0.4552 -0.6352
  510SOL    HW2 2972   1.005   4.430   9.818 -0.7092 -0.1016 -0.9468
  511SOL     OW 2973   2.856   1.858   6.577  0.4643  0.6658  0.4309
  511SOL    HW1 2974   2.816   1.891   6.658 -0.6153 -0.6466  0.4747
  511SOL    HW2 2975   2.837   1.764   6.578  1.2182  0.4749 -0.9155
  512SOL     OW 2976   3.665   5.904   8.173 -0.5529  0.3270 -0.2908
  512SOL    HW1 2977   3.649   5.996   8.157  0.7075  0.4019 -1.1532
  512SOL    HW2 2978   3.689   5.867   8.088 -1.0754 -0.8079  0.0270
  513SOL     OW 2979   6.218   1.417  11.946  0.4026  0.8855 -0.0992
  513SOL    HW1 2980   6.176   1.486  11.894 -0.6051  2.2906  2.4048
  513SOL    HW2 2981   6.289   1.462  11.992 -0.9405  0.6153  2.4115
  514SOL     OW 2982   2.331   7.360  11.781 -0.3172 -0.5349 -0.0906
  514SOL    HW1 2983   2.246   7.368  11.738 -1.3059 -3.6360  1.0320
  514SOL    HW2 2984   2.311   7.359  11.875  1.4355  2.5159  0.4431
  515SOL     OW 2985   0.743   0.857  10.750 -0.3947  0.1258 -0.1957
  515SOL    HW1 2986   0.700   0.864  10.835  1.6022  0.9439  0.8261
  515SOL    HW2 2987   0.831   0.892  10.765 -0.0193  0.3990 -2.6445
  516SOL     OW 2988   5.768   5.566   8.502 -0.2223  0.6502 -0.0425
  516SOL    HW1 2989   5.736   5.621   8.431 -0.6720 -0.3909 -0.6567
  516SOL    HW2 2990   5.848   5.609   8.531  0.5452  0.5253 -1.8740
  517SOL     OW 2991   0.148   1.652  11.126 -0.2394 -0.0396 -0.1605
  517SOL    HW1 2992   0.221   1.687  11.074 -0.9896 -1.2094 -2.0974
  517SOL    HW2 2993   0.190   1.620  11.206  1.2366  0.1305 -0.8197
  518SOL     OW 2994   3.293   7.966  10.222  0.5524  0.3818 -0.0911
  518SOL    HW1 2995   3.305   8.026  10.149 -0.4039 -1.3098 -1.7247
  518SOL    HW2 2996   3.200   7.974  10.245 -0.1479 -1.8657 -1.7416
  519SOL     OW 2997   4.424   1.749   1.710  0.1003  0.3665 -0.1316
  519SOL    HW1 2998   4.420   1.807   1.634  1.8851 -0.4522 -0.8831
  519SOL    HW2 2999   4.480   1.677   1.683  0.7308  0.0154  1.9423
  520SOL     OW 3000   1.529   4.403   5.452  0.0914  0.1367 -0.1512
  520SOL    HW1 3001   1.521   4.362   5.538  2.6093 -0.3784 -0.0953
  520SOL    HW2 3002   1.515   4.497   5.469  2.1126  0.2636  1.1531
  521SOL     OW 3003   2.486   6.370  10.139 -0.0070  0.2452 -1.0960
  521SOL    HW1 3004   2.451   6.291  10.179 -1.6528  0.4519 -2.0559
  521SOL    HW2 3005   2.424   6.439  10.163  0.4416  0.8899 -1.7319
  522SOL     OW 3006   5.387   2.449   8.660  0.3230  0.3734  0.2459
  522SOL    HW1 3007   5.364   2.519   8.721 -2.2757 -1.2780  1.3368
  522SOL    HW2 3008   5.408   2.374   8.715 -1.0088 -0.8460 -0.8283
  523SOL     OW 3009   2.862   5.891   3.925 -0.2623  0.0309 -0.8532
  523SOL    HW1 3010   2.829   5.897   4.015 -0.3762  0.3262 -0.9124
  523SOL    HW2 3011   2.946   5.846   3.933  0.8048  1.9667 -0.3177
  524SOL     OW 3012   4.338   3.759   0.179 -0.0087  0.3500  0.2963
  524SOL    HW1 3013   4.415   3.715   0.214  1.1558  1.1901 -1.1023
  524SOL    HW2 3014   4.349   3.851   0.205 -0.0192  0.6509 -0.7206
  525SOL     OW 3015   7.147   6.511   6.367  0.3120  0.2528 -0.1543
  525SOL    HW1 3016   7.212   6.506   6.297 -1.1410 -0.3972 -1.5263
  525SOL    HW2 3017   7.063   6.507   6.321 -0.6930  0.4578  1.6004
  526SOL     OW 3018   7.871   6.987   6.114 -0.0108 -0.6349  0.4076
  526SOL    HW1 3019   7.916   6.936   6.181 -1.7042 -0.2229  1.9109
  526SOL    HW2 3020   7.854   7.072   6.156 -0.6727 -0.1888 -0.7168
  527SOL     OW 3021   4.245   6.586  11.610 -0.3390  0.0377  0.0079
  527SOL    HW1 3022   4.292   6.576  11.693 -0.0706 -0.6766 -0.2251
  527SOL    HW2 3023   4.314   6.583  11.543 -0.6697 -0.6130 -0.3104
  528SOL     OW 3024   6.705   0.798   1.519  0.3246 -0.5094  0.0827
  528SOL    HW1 3025   6.668   0.857   1.585  1.1066  0.9428 -0.7311
  528SOL    HW2 3026   6.741   0.725   1.570 -2.3814 -1.3334  0.9799
  529SOL     OW 3027   7.382   7.237   8.693 -0.1330 -0.1134 -0.1031
  529SOL    HW1 3028   7.472   7.260   8.671 -0.0344 -0.0912  0.3090
  529SOL    HW2 3029   7.360   7.294   8.767 -0.6429  0.1982 -0.4907
  530SOL     OW 3030   0.178   3.559   7.855 -1.1766  0.2273 -0.5350
  530SOL    HW1 3031   0.188   3.645   7.813 -1.3915  0.3014 -0.4366
  530SOL    HW2 3032   0.237   3.501   7.806 -0.5676  0.5686 -0.2139
  531SOL     OW 3033   4.546   6.883   2.602 -0.2407 -0.0027 -0.1960
  531SOL    HW1 3034   4.617   6.947   2.604  0.0256 -0.2751 -0.5802
  531SOL    HW2 3035   4.564   6.830   2.524 -0.9159 -0.0232 -0.3453
  532SOL     OW 3036   2.407   5.959   2.228  0.2297  0.1693  0.5981
  532SOL    HW1 3037   2.468   5.902   2.274  1.2681  0.1208 -0.7637
  532SOL    HW2 3038   2.360   6.006   2.297 -0.2674 -1.8934  1.7713
  533SOL     OW 3039   2.754   1.450   0.850 -0.2028  0.4178  0.7900
  533SOL    HW1 3040   2.661   1.452   0.828  0.1819 -1.9664 -1.6249
  533SOL    HW2 3041   2.756   1.459   0.945 -2.9897 -0.4030  1.0290
  534SOL     OW 3042   5.707   5.709   9.158 -0.2806  0.0335 -0.0009
  534SOL    HW1 3043   5.772   5.640   9.169  0.6490  0.8563 -0.2566
  534SOL    HW2 3044   5.623   5.662   9.156  0.4510 -1.3085 -2.1452
  535SOL     OW 3045   7.739   6.485   3.452 -0.6804  0.1632 -0.0584
  535SOL    HW1 3046   7.740   6.443   3.366 -0.4057  0.5067 -0.2262
  535SOL    HW2 3047   7.701   6.571   3.436 -1.3013 -0.0455  0.2955
  536SOL     OW 3048   6.489   0.064  11.510  0.2293  0.0484  0.0187
  536SOL    HW1 3049   6.542   0.094  11.436 -1.0126 -1.3597 -1.5120
  536SOL    HW2 3050   6.553   0.039  11.576  1.3817  1.3937 -0.5224
  537SOL     OW 3051   6.722   5.108  10.627  0.1183 -0.2937  0.1428
  537SOL    HW1 3052   6.758   5.121  10.540  0.0916 -1.0579  0.0084
  537SOL    HW2 3053   6.794   5.132  10.686  0.7408 -1.4484 -0.1186
  538SOL     OW 3054   2.108   3.228   1.327 -0.1556  0.1263 -0.2580
  538SOL    HW1 3055   2.174   3.168   1.293  0.5355  1.2823 -1.0513
  538SOL    HW2 3056   2.025   3.195   1.294  0.4270  0.8345 -2.6122
  539SOL     OW 3057   0.739   2.149   1.850 -0.7752  0.1329 -0.0230
  539SOL    HW1 3058   0.740   2.117   1.760 -0.9505  1.4915 -0.5403
  539SOL    HW2 3059   0.646   2.159   1.870 -0.7674 -0.9748  0.6325
  540SOL     OW 3060   4.130   7.409   5.792  0.3543  0.2963 -0.0724
  540SOL    HW1 3061   4.053   7.358   5.815 -0.4084  1.5651  0.3058
  540SOL    HW2 3062   4.142   7.394   5.698 -0.2301 -0.0829 -0.0886
  541SOL     OW 3063   3.676   4.979  10.273 -0.5030  0.1639 -0.0521
  541SOL    HW1 3064   3.665   4.910  10.207  0.4855  0.1672 -0.2329
  541SOL    HW2 3065   3.733   4.940  10.339 -0.4903  0.5802  0.1851
  542SOL     OW 3066   5.708   1.173   8.007  0.0556  0.0802 -0.1815
  542SOL    HW1 3067   5.733   1.201   7.919  1.1956 -0.1714  0.0519
  542SOL    HW2 3068   5.704   1.078   8.002  0.2140  0.0606  0.0629
  543SOL     OW 3069   0.408   0.827   5.466  0.1358  0.4649  0.6570
  543SOL    HW1 3070   0.336   0.884   5.439  1.1215  2.0794  1.3210
  543SOL    HW2 3071   0.479   0.848   5.405 -0.0532 -1.4997 -0.3441
  544SOL     OW 3072   5.521   4.348   0.223 -0.5183 -0.3752 -0.6658
  544SOL    HW1 3073   5.612   4.357   0.252 -0.6405  0.9926 -0.6017
  544SOL    HW2 3074   5.523   4.276   0.161  0.6807 -0.1552 -0.9234
  545SOL     OW 3075   1.674   4.898   5.625  0.1832 -0.9827 -0.1708
  545SOL    HW1 3076   1.663   4.808   5.593  0.0237 -0.7752 -0.7151
  545SOL    HW2 3077   1.648   4.894   5.717 -2.5383 -0.9566 -0.8562
  546SOL     OW 3078   4.078   5.785   0.199 -0.2650 -0.4168  0.6446
  546SOL    HW1 3079   4.000   5.761   0.248 -0.9201 -0.7370 -0.5065
  546SOL    HW2 3080   4.122   5.701   0.182 -0.3067 -0.3615  0.2622
  547SOL     OW 3081   3.138   2.203   4.061 -0.1808  0.2429 -0.7120
  547SOL    HW1 3082   3.141   2.213   3.965  0.9811  0.6046 -0.6484
  547SOL    HW2 3083   3.165   2.288   4.095 -1.2787  0.3425 -0.0380
  548SOL     OW 3084   4.344   2.573   2.752 -0.0727  0.5817 -0.3380
  548SOL    HW1 3085   4.315   2.559   2.662 -0.6758  2.7301 -0.5283
  548SOL    HW2 3086   4.376   2.488   2.780 -3.1634 -1.0660 -1.3544
  549SOL     OW 3087   4.197   5.522   4.758 -0.2262 -0.1173 -0.1667
  549SOL    HW1 3088   4.197   5.482   4.845  1.1603  1.0068  0.4015
  549SOL    HW2 3089   4.236   5.456   4.701  1.1990  0.0247  0.5837
  550SOL     OW 3090   1.014   0.492   7.729 -0.2249 -0.4982 -0.2561
  550SOL    HW1 3091   1.072   0.517   7.801 -1.5761  0.2653  0.6094
  550SOL    HW2 3092   0.954   0.429   7.768 -0.5148 -0.6364 -0.9156
  551SOL     OW 3093   6.772   3.522   7.790  0.0397  0.3771  0.0772
  551SOL    HW1 3094   6.777   3.428   7.775  0.4999  0.6643 -1.7239
  551SOL    HW2 3095   6.689   3.549   7.751 -0.4860  0.6255  1.3021
  552SOL     OW 3096   2.336   1.071   3.720 -0.3239  0.2513  0.7600
  552SOL    HW1 3097   2.390   0.996   3.746 -0.4568  0.3891  1.4292
  552SOL    HW2 3098   2.267   1.076   3.785 -0.1294  1.1569  0.9155
  553SOL     OW 3099   6.249   6.228   1.591  0.3726  0.2036  0.1191
  553SOL    HW1 3100   6.223   6.136   1.580  0.6195  0.2312 -0.8129
  553SOL    HW2 3101   6.170   6.278   1.569  0.3283  0.2221  0.3194
  554SOL     OW 3102   6.686   5.621  11.083 -0.3532 -0.0370  0.0930
  554SOL    HW1 3103   6.636   5.569  11.146 -2.7709  0.0583 -1.6083
  554SOL    HW2 3104   6.652   5.710  11.092  0.1597  0.2262 -0.4993
  555SOL     OW 3105   1.284   3.790   4.352 -0.5158 -0.1271 -0.9549
  555SOL    HW1 3106   1.260   3.849   4.423 -0.3383  0.3226 -1.2621
  555SOL    HW2 3107   1.373   3.814   4.329 -0.0926 -1.1533 -0.4593
  556SOL     OW 3108   3.754   7.457   2.517 -0.2624  0.1316 -0.1712
  556SOL    HW1 3109   3.705   7.440   2.436  0.5423 -0.2208 -0.5948
  556SOL    HW2 3110   3.822   7.390   2.519 -0.4064  0.0041  0.9214
  557SOL     OW 3111   2.879   2.721  12.225 -0.1087  0.0788 -0.2630
  557SOL    HW1 3112   2.854   2.719  12.317  2.0103  0.3959  0.3725
  557SOL    HW2 3113   2.906   2.631  12.206  0.9834  0.3541 -0.0851
  558SOL     OW 3114   7.590   3.773   3.385 -0.2129  0.5158 -0.2914
  558SOL    HW1 3115   7.671   3.735   3.418 -1.5888 -2.5133 -0.0758
  558SOL    HW2 3116   7.613   3.810   3.300  1.2373 -1.0384 -0.6104
  559SOL     OW 3117   0.378   1.260   2.891  0.0622 -0.1709  0.5384
  559SOL    HW1 3118   0.327   1.340   2.900  0.2846  0.4075 -2.3038
  559SOL    HW2 3119   0.334   1.211   2.821  0.0084 -2.5388  2.1050
  560SOL     OW 3120   7.252   0.513   0.285 -0.0614 -0.4115  0.1477
  560SOL    HW1 3121   7.189   0.571   0.328  1.1590  1.0232  0.0871
  560SOL    HW2 3122   7.261   0.440   0.346 -2.8151 -1.4191 -0.4966
  561SOL     OW 3123   3.698   6.525  11.408 -0.3136  0.4431 -0.1179
  561SOL    HW1 3124   3.631   6.461  11.433  1.6301 -1.2870  1.0099
  561SOL    HW2 3125   3.700   6.588  11.480 -1.0233  0.7640 -0.3767
  562SOL     OW 3126   7.910   7.319   9.875 -0.7320  0.1223 -0.3397
  562SOL    HW1 3127   7.914   7.279   9.788 -0.2851  1.2587 -0.8578
  562SOL    HW2 3128   7.898   7.245   9.935 -0.8771 -0.6894 -1.3450
  563SOL     OW 3129   2.090   3.172   9.596  0.1565 -0.3420 -0.1842
  563SOL    HW1 3130   2.148   3.180   9.521 -0.2375  1.1172 -0.3548
  563SOL    HW2 3131   2.135   3.110   9.654  1.0904 -0.4846 -1.0263
  564SOL     OW 3132   6.143   5.383  10.325  0.3923  0.1085 -0.0045
  564SOL    HW1 3133   6.187   5.432  10.394  2.7727  0.3701 -1.6098
  564SOL    HW2 3134   6.063   5.432  10.308  0.5812  0.9531  1.4119
  565SOL     OW 3135   1.154   0.640  11.956 -0.2529  0.5304 -0.0534
  565SOL    HW1 3136   1.130   0.593  11.876 -1.1003 -1.4917  1.3041
  565SOL    HW2 3137   1.243   0.671  11.940 -0.9965  1.6345 -2.3749
  566SOL     OW 3138   5.954   2.968   8.177 -0.6274  0.4512  0.2809
  566SOL    HW1 3139   5.955   3.039   8.113 -0.3565  0.0499 -0.1666
  566SOL    HW2 3140   6.010   3.000   8.248 -0.7208  0.7908  0.2077
  567SOL     OW 3141   2.171   1.361   3.761  0.1716 -0.6076 -1.0154
  567SOL    HW1 3142   2.188   1.281   3.710  1.4244 -0.8565 -0.2456
  567SOL    HW2 3143   2.246   1.417   3.742 -0.3431  0.1024 -0.9735
  568SOL     OW 3144   7.917   3.301   3.316 -0.8222  0.1095 -0.1305
  568SOL    HW1 3145   7.863   3.351   3.377  1.0938  0.5379  1.3041
  568SOL    HW2 3146   7.997   3.353   3.307  1.0060 -2.3470  0.9134
  569SOL     OW 3147   4.551   3.060   9.917 -0.2068  0.0492  0.2203
  569SOL    HW1 3148   4.515   3.125   9.857  0.2858 -0.3467 -0.5167
  569SOL    HW2 3149   4.621   3.018   9.868 -0.2079 -0.7206  0.8540
  570SOL     OW 3150   4.197   5.257   2.934 -0.5235  0.3261  0.3146
  570SOL    HW1 3151   4.214   5.170   2.972 -0.3481 -0.8178 -2.1786
  570SOL    HW2 3152   4.282   5.301   2.938 -0.3881  0.0330  0.7669
  571SOL     OW 3153   4.421   7.248   0.706  0.3505 -0.0987  0.1815
  571SOL    HW1 3154   4.452   7.205   0.786  0.2397  3.0231  2.0770
  571SOL    HW2 3155   4.331   7.272   0.725  0.0503 -0.0191 -1.2293
  572SOL     OW 3156   0.627   6.329   1.054  1.0668  0.6616 -0.3574
  572SOL    HW1 3157   0.722   6.331   1.044  1.0467  0.8343 -0.5230
  572SOL    HW2 3158   0.611   6.364   1.141  1.1199  1.2461 -0.5787
  573SOL     OW 3159   2.394   0.729   5.768  0.4656  0.0466  0.3275
  573SOL    HW1 3160   2.469   0.782   5.740 -0.9409  1.2473 -1.4145
  573SOL    HW2 3161   2.369   0.766   5.853  0.4816  1.1552 -0.1330
  574SOL     OW 3162   5.328   6.775   8.363 -0.3911 -0.3533 -0.5123
  574SOL    HW1 3163   5.400   6.769   8.301 -0.7193 -0.3528 -0.8970
  574SOL    HW2 3164   5.294   6.685   8.370 -0.3468 -0.3565 -0.3244
  575SOL     OW 3165   3.833   2.620   2.037 -0.1769  0.8020 -0.2606
  575SOL    HW1 3166   3.778   2.546   2.062  2.8021 -1.8088 -0.8340
  575SOL    HW2 3167   3.877   2.646   2.118  1.4593 -0.5572 -0.6504
  576SOL     OW 3168   1.581   2.127   7.053 -0.3076  0.2918  0.1037
  576SOL    HW1 3169   1.492   2.118   7.087 -0.6361 -1.8158 -1.1206
  576SOL    HW2 3170   1.587   2.219   7.027 -2.5923  0.2328 -0.9103
  577SOL     OW 3171   0.035   5.239   2.311  0.0652 -0.3574  0.2049
  577SOL    HW1 3172   0.036   5.332   2.335 -2.1411 -0.0934 -0.4448
  577SOL    HW2 3173   0.051   5.193   2.393 -1.1730  0.5974  1.0280
  578SOL     OW 3174   2.542   0.478   4.690  0.2215  0.3712  0.1447
  578SOL    HW1 3175   2.517   0.463   4.599  0.3747  2.6287 -0.3255
  578SOL    HW2 3176   2.636   0.494   4.687  0.2517  0.3292  0.7238
  579SOL     OW 3177   3.201   7.855   7.794  0.1633  0.1016  0.0055
  579SOL    HW1 3178   3.226   7.817   7.878 -0.5722 -0.4836 -0.0305
  579SOL    HW2 3179   3.182   7.946   7.813  1.1253  0.2658  0.2513
  580SOL     OW 3180   6.074   1.869   1.860 -0.1221  0.5271 -0.5958
  580SOL    HW1 3181   6.105   1.882   1.949 -2.1054 -1.3249  0.4780
  580SOL    HW2 3182   6.148   1.891   1.804  2.3958 -1.6047  1.6479
  581SOL     OW 3183   3.795   6.460   1.008 -0.6350 -0.4046  0.1820
  581SOL    HW1 3184   3.890   6.466   1.011 -0.5815 -1.1738  0.3809
  581SOL    HW2 3185   3.767   6.482   1.097 -0.6809  0.3209 -0.0086
  582SOL     OW 3186   6.807   0.083   4.732 -0.0449  0.0805 -0.3603
  582SOL    HW1 3187   6.827   0.135   4.810  1.1003 -1.9610  0.7974
  582SOL    HW2 3188   6.862   0.120   4.663 -0.7468  1.6416 -0.1288
  583SOL     OW 3189   1.332   2.840   5.502  0.1340  0.2626  0.0848
  583SOL    HW1 3190   1.290   2.776   5.560 -0.0942 -0.2406 -0.6242
  583SOL    HW2 3191   1.426   2.824   5.513  0.0678 -0.9726 -0.9147
  584SOL     OW 3192   4.076   5.415   7.976 -0.7736 -0.5179  0.4209
  584SOL    HW1 3193   4.104   5.487   8.032  0.4915 -0.5112 -0.1825
  584SOL    HW2 3194   4.043   5.457   7.897  1.2010 -0.5699 -0.4946
  585SOL     OW 3195   4.478   1.721   5.182 -0.1075 -0.1515  0.2021
  585SOL    HW1 3196   4.495   1.691   5.093  1.6792  0.4516  0.2862
  585SOL    HW2 3197   4.472   1.816   5.175  0.0314 -0.1022  0.7212
  586SOL     OW 3198   3.115   4.051   8.777  0.1109  0.1163  0.4505
  586SOL    HW1 3199   3.205   4.076   8.755 -0.2743  0.7447 -0.4482
  586SOL    HW2 3200   3.080   4.014   8.696 -0.1156 -1.1384  1.0877
  587SOL     OW 3201   7.949   7.076  10.087  0.0443 -0.2216  0.5788
  587SOL    HW1 3202   7.939   7.123  10.170 -0.0682  1.1110 -0.1600
  587SOL    HW2 3203   7.920   6.987  10.106 -2.1282  0.6036  1.4471
  588SOL     OW 3204   3.181   1.750   0.547  0.1337  0.3158 -0.2477
  588SOL    HW1 3205   3.165   1.786   0.634  2.5980 -1.5328  1.0867
  588SOL    HW2 3206   3.220   1.823   0.498 -1.6607  1.4938 -0.0189
  589SOL     OW 3207   6.977   3.964   8.703  0.0611 -0.0181  0.7761
  589SOL    HW1 3208   7.005   3.925   8.620 -1.6152  0.1977  0.0791
  589SOL    HW2 3209   7.012   3.906   8.770 -0.3111 -1.3577 -0.1585
  590SOL     OW 3210   5.776   3.498  11.814  0.2000 -0.2411  0.0373
  590SOL    HW1 3211   5.776   3.429  11.747  0.6769 -0.5668  0.3626
  590SOL    HW2 3212   5.750   3.577  11.768  2.3422 -0.0574 -0.9638
  591SOL     OW 3213   5.721   1.531   0.481 -0.3638  0.1003 -0.2715
  591SOL    HW1 3214   5.800   1.577   0.451 -1.0625  1.3277 -0.2747
  591SOL    HW2 3215   5.693   1.578   0.559  0.4853 -2.0695  1.4451
  592SOL     OW 3216   4.086   4.222   2.771 -0.1346 -0.5018 -0.5547
  592SOL    HW1 3217   4.141   4.148   2.744 -0.2971 -0.3417 -1.3624
  592SOL    HW2 3218   4.004   4.182   2.799 -0.0397 -0.6634 -0.5068
  593SOL     OW 3219   2.983   5.158   7.195  0.5719 -0.4810  1.1879
  593SOL    HW1 3220   2.889   5.168   7.182  0.7527  0.4862  0.5688
  593SOL    HW2 3221   3.003   5.071   7.160  0.0025 -0.4579  0.7920
  594SOL     OW 3222   7.480   6.835   4.523  0.0342  0.0402 -0.0343
  594SOL    HW1 3223   7.455   6.857   4.613  1.1580  1.2510  0.0229
  594SOL    HW2 3224   7.576   6.838   4.524  0.0519  1.1185 -1.5116
  595SOL     OW 3225   7.084   6.690   3.828 -0.1669 -0.0900 -0.3598
  595SOL    HW1 3226   7.026   6.719   3.757 -0.3759 -0.2497 -0.2568
  595SOL    HW2 3227   7.042   6.611   3.861  0.4964 -0.6110 -0.7552
  596SOL     OW 3228   4.630   5.258   6.737  0.2177  0.2918 -0.0665
  596SOL    HW1 3229   4.580   5.181   6.709 -0.1057  0.3309  0.4075
  596SOL    HW2 3230   4.703   5.262   6.675  0.1433 -0.2978 -0.1989
  597SOL     OW 3231   4.689   5.512   8.952 -0.3739 -0.6348 -0.1939
  597SOL    HW1 3232   4.760   5.480   9.007  0.1045 -0.2456 -0.5791
  597SOL    HW2 3233   4.668   5.439   8.895 -0.1993 -0.7087 -0.1640
  598SOL     OW 3234   7.668   2.123   5.638  0.4498  0.3964 -0.1824
  598SOL    HW1 3235   7.737   2.117   5.704  1.0041  0.9878 -0.6960
  598SOL    HW2 3236   7.587   2.105   5.686  1.0791 -1.7708  0.1565
  599SOL     OW 3237   2.572   7.851   4.577  0.5962 -0.6694 -0.5250
  599SOL    HW1 3238   2.667   7.838   4.569  0.6581 -2.4791  1.9445
  599SOL    HW2 3239   2.560   7.882   4.667 -1.1233  0.5503 -1.1258
  600SOL     OW 3240   0.432   2.616   8.964 -0.3976 -0.1608  0.0521
  600SOL    HW1 3241   0.383   2.553   9.017 -0.3601  0.5444  0.9466
  600SOL    HW2 3242   0.420   2.699   9.010 -0.1151  0.4105 -0.8925
  601SOL     OW 3243   1.931   4.192   5.558 -0.3101 -0.1231 -0.3288
  601SOL    HW1 3244   1.992   4.174   5.486 -0.9501 -1.8302 -0.4970
  601SOL    HW2 3245   1.968   4.146   5.633 -0.0388  1.0316  0.2667
  602SOL     OW 3246   1.387   4.825  11.046  0.1925 -0.3824 -0.3909
  602SOL    HW1 3247   1.436   4.874  10.980  0.6115 -1.5240 -0.9561
  602SOL    HW2 3248   1.451   4.807  11.115  0.4316 -1.3304 -0.8390
  603SOL     OW 3249   7.704   4.715   1.209  0.2105 -0.1684 -0.0065
  603SOL    HW1 3250   7.703   4.787   1.147  1.8379 -0.4183 -0.3628
  603SOL    HW2 3251   7.615   4.680   1.207 -0.2569  1.0134 -0.7702
  604SOL     OW 3252   0.722   7.285   9.629 -0.4411  0.1653  0.0592
  604SOL    HW1 3253   0.633   7.290   9.596 -0.4909 -1.5077 -0.1350
  604SOL    HW2 3254   0.773   7.248   9.557  0.0865 -0.4073  0.7077
  605SOL     OW 3255   6.395   3.449  10.637 -0.0967  0.3935 -0.4221
  605SOL    HW1 3256   6.305   3.432  10.608 -0.0028 -0.7663 -0.1109
  605SOL    HW2 3257   6.450   3.415  10.566  0.1199 -1.7459  0.6894
  606SOL     OW 3258   3.825   7.420   4.255 -0.1698 -0.1870 -0.0432
  606SOL    HW1 3259   3.775   7.342   4.280 -0.8641 -0.3265 -1.7384
  606SOL    HW2 3260   3.916   7.397   4.274 -0.5556 -0.6041  1.4180
  607SOL     OW 3261   7.541   1.206   9.432 -0.3934 -0.1286 -0.0640
  607SOL    HW1 3262   7.547   1.220   9.526 -0.4057 -0.9758  0.0761
  607SOL    HW2 3263   7.567   1.289   9.393  1.4852 -0.3345  0.6593
  608SOL     OW 3264   6.350   5.838   9.524  0.1217 -0.0003 -0.0351
  608SOL    HW1 3265   6.362   5.891   9.446  0.2725 -0.3063 -0.2180
  608SOL    HW2 3266   6.438   5.825   9.559 -0.0782  1.6610  1.2047
  609SOL     OW 3267   1.210   3.600   8.810  0.0368 -0.4170  0.1548
  609SOL    HW1 3268   1.197   3.604   8.715  0.3749  2.9569  0.1186
  609SOL    HW2 3269   1.282   3.538   8.822  0.6640 -0.1580 -1.8949
  610SOL     OW 3270   4.119   4.977   4.973 -0.5549  0.0095  0.2524
  610SOL    HW1 3271   4.213   4.983   4.961 -0.6513 -0.1049 -0.6236
  610SOL    HW2 3272   4.099   4.884   4.966 -0.7943  0.0845 -0.1141
  611SOL     OW 3273   3.699   4.768   2.942  0.0573 -0.1243  0.0323
  611SOL    HW1 3274   3.731   4.846   2.987  1.5736  1.4572 -3.4226
  611SOL    HW2 3275   3.615   4.795   2.904  1.1655  0.3850 -2.2277
  612SOL     OW 3276   1.199   2.178   5.211  0.4510 -0.2304  0.1250
  612SOL    HW1 3277   1.190   2.119   5.285  1.7390 -0.9816 -0.2805
  612SOL    HW2 3278   1.274   2.233   5.233  2.5727 -2.1942 -1.6629
  613SOL     OW 3279   2.119   3.594   3.921  0.4038  0.2607  0.0478
  613SOL    HW1 3280   2.125   3.530   3.992 -3.6914 -1.3207 -0.7202
  613SOL    HW2 3281   2.115   3.678   3.965  1.2887 -0.3823  1.4339
  614SOL     OW 3282   2.329   4.845   7.362  0.0322 -0.1545 -0.6647
  614SOL    HW1 3283   2.345   4.759   7.322  0.7717 -1.2123  1.6994
  614SOL    HW2 3284   2.245   4.836   7.405  1.1728 -0.5917  1.6176
  615SOL     OW 3285   0.054   3.648  11.631  0.0616 -0.4151  0.9981
  615SOL    HW1 3286  -0.003   3.720  11.605  0.1328  0.0181  2.0096
  615SOL    HW2 3287   0.094   3.677  11.713  1.6434 -0.7565  0.3877
  616SOL     OW 3288   0.113   7.013   9.846  0.1097  0.1691 -0.5317
  616SOL    HW1 3289   0.071   7.019   9.932 -0.2329  0.9532 -0.7403
  616SOL    HW2 3290   0.071   6.939   9.803 -0.3457  0.3233 -0.3529
  617SOL     OW 3291   2.683   6.212   2.654 -0.0340  0.4501  0.3760
  617SOL    HW1 3292   2.718   6.133   2.696  0.2280  0.3540 -0.0166
  617SOL    HW2 3293   2.761   6.264   2.634 -0.0817  0.0696 -0.8492
  618SOL     OW 3294   2.046   0.774   8.051  0.4590 -0.6036  0.6749
  618SOL    HW1 3295   1.988   0.699   8.064  1.8938 -1.6364  1.3688
  618SOL    HW2 3296   2.065   0.773   7.958 -0.2595 -0.5293  0.5197
  619SOL     OW 3297   5.391   0.322   1.277 -0.0157 -0.2161 -0.1238
  619SOL    HW1 3298   5.484   0.326   1.301  0.0085  0.8628 -0.3677
  619SOL    HW2 3299   5.385   0.368   1.194 -0.9623  0.7996  0.4808
  620SOL     OW 3300   7.224   0.848   6.317 -0.6175  0.3480 -0.1070
  620SOL    HW1 3301   7.254   0.887   6.399 -0.9234 -0.0855  0.2106
  620SOL    HW2 3302   7.199   0.923   6.263  0.8036  0.7111 -0.2968
  621SOL     OW 3303   4.518   1.365   7.448  0.4719 -0.4545  0.0964
  621SOL    HW1 3304   4.571   1.412   7.383 -0.6418  1.2219  0.3442
  621SOL    HW2 3305   4.485   1.434   7.506 -0.8988 -1.6031  0.7177
  622SOL     OW 3306   7.424   6.742  12.006  0.3546 -0.5358  0.3509
  622SOL    HW1 3307   7.411   6.660  11.959 -0.7151  0.9103 -2.1431
  622SOL    HW2 3308   7.342   6.790  11.993  0.4310  0.4178  2.9034
  623SOL     OW 3309   1.345   1.243   4.240  0.2950 -0.1300 -0.2641
  623SOL    HW1 3310   1.263   1.292   4.235 -0.4098 -1.3084 -0.6678
  623SOL    HW2 3311   1.412   1.309   4.259 -0.9193  0.6705  1.4492
  624SOL     OW 3312   5.463   1.730  11.011 -0.5333  0.6136  0.3685
  624SOL    HW1 3313   5.373   1.698  11.015 -0.1264 -0.5078  1.0472
  624SOL    HW2 3314   5.455   1.825  11.022 -1.4998  0.3256  2.7926
  625SOL     OW 3315   3.321   5.313   4.243  0.3741 -0.4684 -0.3943
  625SOL    HW1 3316   3.400   5.347   4.200 -0.0648  1.5213  0.2679
  625SOL    HW2 3317   3.349   5.295   4.333  0.8900 -3.1376 -0.9809
  626SOL     OW 3318   7.719   2.368   3.744  0.3175 -0.3944 -0.2924
  626SOL    HW1 3319   7.758   2.443   3.788  0.5305  0.8133 -2.3851
  626SOL    HW2 3320   7.659   2.330   3.808  1.0395  0.8815  1.1936
  627SOL     OW 3321   3.117   1.067   8.687  0.1702  0.3091 -0.2601
  627SOL    HW1 3322   3.157   0.980   8.685 -0.3100  0.0881 -0.2954
  627SOL    HW2 3323   3.182   1.124   8.644  0.8855  0.1432  0.5796
  628SOL     OW 3324   4.264   0.412  10.668 -0.2762 -0.5780  0.6078
  628SOL    HW1 3325   4.338   0.437  10.614  1.7139 -0.7698  3.0833
  628SOL    HW2 3326   4.253   0.318  10.650  0.8772 -0.8189  1.0943
  629SOL     OW 3327   3.789   6.560   2.133 -0.0153  0.3898  0.2313
  629SOL    HW1 3328   3.867   6.522   2.174 -1.0297  1.5900  3.6582
  629SOL    HW2 3329   3.823   6.633   2.081  1.2798 -0.0890  0.3554
  630SOL     OW 3330   6.598   2.760   0.167  0.5039  0.5325  0.4835
  630SOL    HW1 3331   6.633   2.724   0.249 -0.3016  0.4992  0.8179
  630SOL    HW2 3332   6.534   2.695   0.138 -0.8234  1.5770  0.9846
  631SOL     OW 3333   7.228   2.499   1.496  0.2693 -0.8592  0.0386
  631SOL    HW1 3334   7.179   2.509   1.578 -0.3829  1.7961 -0.5935
  631SOL    HW2 3335   7.316   2.474   1.524  0.5282  1.5888  1.7402
  632SOL     OW 3336   3.235   7.961   2.874  0.2466  0.5160 -0.6062
  632SOL    HW1 3337   3.267   7.912   2.798  0.6189  0.3422 -0.3399
  632SOL    HW2 3338   3.294   7.936   2.945  1.1475  2.2230 -0.7100
  633SOL     OW 3339   3.841   2.248  11.969 -0.8316 -0.4447  0.1332
  633SOL    HW1 3340   3.811   2.339  11.958  1.1931  0.2967  0.2648
  633SOL    HW2 3341   3.829   2.208  11.884 -0.8256  0.2656 -0.2145
  634SOL     OW 3342   1.996   6.572   1.026 -0.3852  0.1318 -0.1701
  634SOL    HW1 3343   2.023   6.646   1.080  2.6980 -0.6689 -0.4359
  634SOL    HW2 3344   1.980   6.610   0.940  1.5193  0.4958 -0.3982
  635SOL     OW 3345   3.215   0.979  11.563  0.4814  0.6188 -0.5847
  635SOL    HW1 3346   3.306   0.997  11.588  0.1673  0.0324  1.1437
  635SOL    HW2 3347   3.167   1.057  11.592  0.5720  1.5645 -2.7694
  636SOL     OW 3348   5.988   0.438   2.758  0.1145  0.7222  0.0793
  636SOL    HW1 3349   6.003   0.379   2.832 -0.6280  0.7413  0.2501
  636SOL    HW2 3350   5.966   0.522   2.798 -2.1906  0.2620 -0.1186
  637SOL     OW 3351   5.823   2.965   3.199  0.0529 -0.4186  0.1731
  637SOL    HW1 3352   5.843   3.011   3.281 -0.7856 -0.9227  0.6744
  637SOL    HW2 3353   5.850   3.026   3.130 -1.2120  0.9441  0.8215
  638SOL     OW 3354   2.623   0.414   7.774  0.2528  0.1720  0.1227
  638SOL    HW1 3355   2.693   0.382   7.832 -0.6730  0.7504  1.6355
  638SOL    HW2 3356   2.643   0.375   7.689  1.6685 -0.7468  0.8196
  639SOL     OW 3357   6.937   4.812   6.472  0.1676 -0.1855 -0.2594
  639SOL    HW1 3358   6.854   4.824   6.519 -1.6611  1.1110 -3.5207
  639SOL    HW2 3359   7.004   4.838   6.535 -1.9031 -0.6905  2.3193
  640SOL     OW 3360   6.612   5.576  11.407  0.1200 -0.4838  0.5951
  640SOL    HW1 3361   6.586   5.637  11.476  0.2626 -1.2011  1.2979
  640SOL    HW2 3362   6.701   5.601  11.384  0.7799 -1.4182  2.0207
  641SOL     OW 3363   0.690   3.651   1.194 -0.1987  0.4079 -0.5187
  641SOL    HW1 3364   0.665   3.560   1.214 -0.6293  0.9207  1.5067
  641SOL    HW2 3365   0.653   3.667   1.107 -1.3802 -0.9081 -0.3023
  642SOL     OW 3366   4.010   2.422   8.643 -0.8288  0.4563 -0.0628
  642SOL    HW1 3367   4.039   2.331   8.641 -1.2387  0.3238 -1.4343
  642SOL    HW2 3368   4.089   2.473   8.626 -1.0435  0.1651 -2.3674
  643SOL     OW 3369   0.124   4.948   0.211  0.4017 -0.1447 -0.0138
  643SOL    HW1 3370   0.132   4.930   0.117  2.0966 -0.7681  0.2022
  643SOL    HW2 3371   0.034   4.923   0.233  0.4398 -1.4784 -1.1900
  644SOL     OW 3372   0.219   4.217   7.554  0.0286  0.5853  0.1115
  644SOL    HW1 3373   0.184   4.304   7.537  1.6652  1.1767 -0.3597
  644SOL    HW2 3374   0.221   4.210   7.649 -2.9193 -0.1552  0.2112
  645SOL     OW 3375   5.681   1.170   9.524 -0.0439 -0.5020 -0.0533
  645SOL    HW1 3376   5.728   1.214   9.453  0.0040  1.0628  0.9092
  645SOL    HW2 3377   5.630   1.239   9.565 -0.1841 -1.4102  1.3540
  646SOL     OW 3378   1.372   7.389   1.619  0.0508 -0.0872  0.6079
  646SOL    HW1 3379   1.320   7.452   1.569 -0.3394 -2.0684 -1.6877
  646SOL    HW2 3380   1.457   7.390   1.576 -0.2619 -1.7584 -0.1402
  647SOL     OW 3381   1.065   7.539  11.392  0.0420 -0.0205 -0.5123
  647SOL    HW1 3382   1.021   7.573  11.470  1.4331 -2.0337  1.2835
  647SOL    HW2 3383   1.133   7.603  11.373  2.0002 -1.1056  2.2098
  648SOL     OW 3384   0.107   6.184   1.112 -0.0747 -0.5088  0.2659
  648SOL    HW1 3385   0.018   6.199   1.143  0.4845 -0.5651  2.0148
  648SOL    HW2 3386   0.119   6.248   1.042 -0.9952  0.5585  1.0465
  649SOL     OW 3387   5.556   2.343   5.191 -0.1162  0.5173 -0.8490
  649SOL    HW1 3388   5.650   2.360   5.203 -0.4338  2.3549 -0.6493
  649SOL    HW2 3389   5.513   2.407   5.248 -1.5056 -0.4215 -0.7936
  650SOL     OW 3390   2.061   2.671   8.042  0.4463 -0.6104 -0.2258
  650SOL    HW1 3391   1.968   2.689   8.036  0.4956 -0.6892 -1.6224
  650SOL    HW2 3392   2.068   2.599   8.105 -0.5211 -1.1613 -0.7295
  651SOL     OW 3393   4.561   3.600   8.372 -0.6118 -1.0056  0.2195
  651SOL    HW1 3394   4.582   3.693   8.381 -0.9315 -0.9128  0.0266
  651SOL    HW2 3395   4.555   3.586   8.277 -2.8036 -0.7085  0.2812
  652SOL     OW 3396   6.998   4.766   0.611 -0.2309 -0.0613 -0.5599
  652SOL    HW1 3397   6.913   4.726   0.630 -0.3772  0.6955  0.4472
  652SOL    HW2 3398   7.028   4.722   0.531  0.2569 -3.1004  1.1804
  653SOL     OW 3399   3.108   0.982   4.134 -0.1581 -0.3496  0.4744
  653SOL    HW1 3400   3.084   0.891   4.150  1.9503 -0.8237  1.2976
  653SOL    HW2 3401   3.164   0.979   4.056 -0.8901  0.3967 -0.0962
  654SOL     OW 3402   4.583   2.878   9.554  0.8022 -0.9605  0.3092
  654SOL    HW1 3403   4.601   2.963   9.513 -0.2458 -0.0350  1.6444
  654SOL    HW2 3404   4.489   2.882   9.575  0.4524 -2.9621 -0.6932
  655SOL     OW 3405   4.998   3.903  11.905 -0.2670 -0.1163 -0.2561
  655SOL    HW1 3406   5.072   3.887  11.847 -1.2951  0.9895 -1.9316
  655SOL    HW2 3407   4.928   3.846  11.872 -0.3184 -0.8815  1.0834
  656SOL     OW 3408   6.412   4.923   2.674  0.1820  0.0115  0.3081
  656SOL    HW1 3409   6.339   4.965   2.719  0.0081  0.6295 -0.5233
  656SOL    HW2 3410   6.421   4.838   2.716 -0.7785  0.0818  0.6675
  657SOL     OW 3411   1.973   3.430   2.590  0.6115 -0.7671  0.3726
  657SOL    HW1 3412   1.989   3.465   2.678 -0.5457  1.8644 -0.3463
  657SOL    HW2 3413   1.905   3.364   2.602 -1.2045  1.1501  1.2754
  658SOL     OW 3414   4.024   5.592   2.929 -0.2498  0.2318 -0.6745
  658SOL    HW1 3415   4.050   5.570   3.019 -1.1283 -0.8727 -0.6781
  658SOL    HW2 3416   4.106   5.591   2.880  0.1402  0.1041 -0.0358
  659SOL     OW 3417   3.031   0.029  10.308  0.3566  0.0658 -0.2071
  659SOL    HW1 3418   3.061   0.004  10.395  2.1702  0.3814 -0.6909
  659SOL    HW2 3419   2.980   0.109  10.322 -2.7157 -1.9503  0.9571
  660SOL     OW 3420   0.906   1.297   1.236 -0.2969 -0.4435  0.4945
  660SOL    HW1 3421   0.823   1.317   1.191 -1.9525 -0.7100  3.1905
  660SOL    HW2 3422   0.927   1.377   1.284 -0.0156 -0.9718  1.2747
  661SOL     OW 3423   6.772   7.694   5.018 -0.2322 -0.1284 -0.0103
  661SOL    HW1 3424   6.864   7.684   5.044  0.0902  1.0650 -0.6423
  661SOL    HW2 3425   6.766   7.652   4.933 -0.1600  0.1828 -0.1711
  662SOL     OW 3426   3.253   3.111   8.291 -0.4400 -0.1890 -0.1782
  662SOL    HW1 3427   3.346   3.110   8.268 -0.7770 -0.1858 -1.6927
  662SOL    HW2 3428   3.209   3.085   8.210 -1.8331  1.1089  0.1302
  663SOL     OW 3429   3.851   2.699   4.701  0.3836  0.1367 -0.2147
  663SOL    HW1 3430   3.765   2.682   4.739 -0.4858  0.9077 -1.7134
  663SOL    HW2 3431   3.849   2.793   4.680  1.3693  0.0375 -0.7918
  664SOL     OW 3432   7.672   0.705   8.404 -0.1008  0.4167 -0.4258
  664SOL    HW1 3433   7.648   0.617   8.434  1.0195 -0.2310 -1.3277
  664SOL    HW2 3434   7.768   0.705   8.407 -0.0919  2.1192  0.9181
  665SOL     OW 3435   0.149   2.322   8.277  0.5160  0.6342 -0.2636
  665SOL    HW1 3436   0.091   2.253   8.310 -0.7931  1.5645 -0.5251
  665SOL    HW2 3437   0.160   2.382   8.350  0.7183  0.7428 -0.3806
  666SOL     OW 3438   4.277   1.069   5.648 -0.6187  0.0898  0.1483
  666SOL    HW1 3439   4.244   1.143   5.699  0.0868  0.0511  0.6814
  666SOL    HW2 3440   4.361   1.099   5.613  0.3761 -0.9132  1.5562
  667SOL     OW 3441   2.464   6.229   3.154  0.1422  0.1495  0.1521
  667SOL    HW1 3442   2.465   6.306   3.211 -1.4282  0.4418 -0.1605
  667SOL    HW2 3443   2.494   6.262   3.069  1.5167 -0.0730  0.5228
  668SOL     OW 3444   4.553   1.397  12.365 -0.1123  0.1267 -0.0715
  668SOL    HW1 3445   4.579   1.488  12.351 -1.4263  0.8930  2.0287
  668SOL    HW2 3446   4.633   1.347  12.347  0.8496  1.7380 -0.5560
  669SOL     OW 3447   3.792   1.392   2.436  0.1405  0.4340  0.3585
  669SOL    HW1 3448   3.730   1.450   2.480  0.0865  0.2865  0.4799
  669SOL    HW2 3449   3.843   1.354   2.507 -0.5705 -0.5233  0.3770
  670SOL     OW 3450   4.270   6.290   0.925  0.1819 -0.1272  0.3186
  670SOL    HW1 3451   4.224   6.273   0.842  2.7317  0.1266 -1.2471
  670SOL    HW2 3452   4.254   6.212   0.978 -1.6727 -0.2100 -0.2806
  671SOL     OW 3453   0.616   7.433  10.341  0.2660  0.2820 -0.1864
  671SOL    HW1 3454   0.628   7.413  10.249 -1.7461  0.9322 -0.6477
  671SOL    HW2 3455   0.660   7.517  10.354  1.0394 -0.0817 -0.3972
  672SOL     OW 3456   2.681   0.452   2.700 -0.5343  0.6855 -0.6758
  672SOL    HW1 3457   2.747   0.416   2.640 -0.5058  0.7111 -0.6594
  672SOL    HW2 3458   2.732   0.501   2.765 -0.5666  0.6678 -0.6374
  673SOL     OW 3459   1.688   0.856   1.585  0.6275 -0.7542  0.1868
  673SOL    HW1 3460   1.720   0.939   1.622 -0.4109 -1.3381  2.5563
  673SOL    HW2 3461   1.767   0.814   1.551  1.6315 -0.0345  1.5222
  674SOL     OW 3462   7.479   3.671   0.527 -0.0288  0.6736  0.3692
  674SOL    HW1 3463   7.405   3.646   0.471 -0.7721  0.7010  1.3068
  674SOL    HW2 3464   7.462   3.763   0.548  2.0594  1.7406 -2.0928
  675SOL     OW 3465   7.883   6.352   6.224  0.2751 -0.1386  0.2076
  675SOL    HW1 3466   7.914   6.442   6.230  0.5604 -0.1185 -1.1841
  675SOL    HW2 3467   7.806   6.356   6.168 -0.0585 -0.6898  0.6123
  676SOL     OW 3468   0.910   3.451   5.874  0.1839  0.2896 -0.4695
  676SOL    HW1 3469   0.826   3.425   5.911  0.5503 -0.5461 -0.2067
  676SOL    HW2 3470   0.946   3.371   5.835  0.5799  0.7757 -1.1322
  677SOL     OW 3471   7.743   2.399   8.387 -0.3592 -0.2076  0.0110
  677SOL    HW1 3472   7.785   2.369   8.467 -3.5574  2.1422  2.8697
  677SOL    HW2 3473   7.661   2.348   8.383  0.3859 -1.3636 -2.7401
  678SOL     OW 3474   3.039   2.790  11.753 -0.1216 -0.1884 -0.0798
  678SOL    HW1 3475   2.977   2.780  11.825 -0.7196 -0.0984 -0.5760
  678SOL    HW2 3476   3.125   2.789  11.796 -0.4989  1.1021  0.7845
  679SOL     OW 3477   1.039   4.375   6.549  0.4735  0.6527 -0.5544
  679SOL    HW1 3478   1.089   4.341   6.475  0.9987  2.6663 -1.2026
  679SOL    HW2 3479   1.100   4.432   6.596  0.4440 -1.3138  2.0681
  680SOL     OW 3480   2.306   2.702  10.602 -0.3476  0.0616  0.1010
  680SOL    HW1 3481   2.331   2.684  10.512  0.3998  0.6944  0.1676
  680SOL    HW2 3482   2.216   2.735  10.597 -0.9696 -1.5549 -0.2176
  681SOL     OW 3483   7.850   0.111   0.318  0.4071  0.4668  0.0261
  681SOL    HW1 3484   7.771   0.105   0.372  0.2304 -0.1392 -0.2992
  681SOL    HW2 3485   7.907   0.041   0.350  0.0187 -0.3602 -1.0171
  682SOL     OW 3486   7.535   2.367  11.576 -0.0879 -0.0528  0.3915
  682SOL    HW1 3487   7.473   2.434  11.548 -0.4748 -0.0472  1.2162
  682SOL    HW2 3488   7.610   2.416  11.610 -1.5211  0.1281  3.6800
  683SOL     OW 3489   2.323   7.154   3.106 -0.2220 -0.4629  0.5799
  683SOL    HW1 3490   2.282   7.236   3.135  2.0368  0.5209  1.3053
  683SOL    HW2 3491   2.338   7.105   3.187  0.8468 -0.3590  0.4583
  684SOL     OW 3492   2.681   4.724  10.323 -0.2254  0.0509 -0.4399
  684SOL    HW1 3493   2.616   4.753  10.386  0.5666 -0.0591  0.4530
  684SOL    HW2 3494   2.637   4.658  10.271 -1.2302  0.9231 -0.7371
  685SOL     OW 3495   0.135   1.371   9.415  0.0501  0.1881 -0.0541
  685SOL    HW1 3496   0.204   1.390   9.479 -0.1095 -0.1462  0.2184
  685SOL    HW2 3497   0.084   1.300   9.455  0.5955 -0.7665 -1.0267
  686SOL     OW 3498   1.470   0.669   6.858 -0.0261 -0.0972  0.2191
  686SOL    HW1 3499   1.459   0.759   6.829 -1.3005 -0.6335 -1.0955
  686SOL    HW2 3500   1.539   0.634   6.800 -0.6723 -0.4061 -0.3779
  687SOL     OW 3501   3.204   7.662   9.768 -0.5814  0.0055 -0.0335
  687SOL    HW1 3502   3.209   7.691   9.859 -0.9040 -0.3618  0.1033
  687SOL    HW2 3503   3.273   7.711   9.723 -0.8472  0.6634  0.2770
  688SOL     OW 3504   6.102   7.443   1.183 -0.2669  0.4049 -0.2075
  688SOL    HW1 3505   6.132   7.391   1.109 -1.0405  2.1310 -1.8020
  688SOL    HW2 3506   6.032   7.391   1.222  0.2597 -0.5976 -0.5713
  689SOL     OW 3507   5.553   6.834  11.574  0.0743 -0.0636 -0.0718
  689SOL    HW1 3508   5.538   6.869  11.486 -0.2435  0.3785  0.1527
  689SOL    HW2 3509   5.615   6.896  11.613  1.9631 -1.4361 -0.7206
  690SOL     OW 3510   3.432   5.690   4.629  0.5589 -0.7508 -0.0132
  690SOL    HW1 3511   3.388   5.680   4.545  0.5840 -0.0737 -0.1119
  690SOL    HW2 3512   3.522   5.663   4.612  0.7440  0.0580 -0.3952
  691SOL     OW 3513   1.202   3.567   9.785  0.0180  0.1747 -0.0261
  691SOL    HW1 3514   1.133   3.613   9.738  0.8289  0.6267 -0.7980
  691SOL    HW2 3515   1.163   3.482   9.807 -0.3631 -0.0778 -1.5738
  692SOL     OW 3516   0.309   5.344   1.123 -0.0818 -0.0890  0.1029
  692SOL    HW1 3517   0.371   5.415   1.106  0.6629 -0.7699 -0.0596
  692SOL    HW2 3518   0.333   5.312   1.210  0.3765 -0.9258 -0.3166
  693SOL     OW 3519   2.766   2.582   7.049  0.0636  0.4240  0.3491
  693SOL    HW1 3520   2.723   2.657   7.091 -1.6100 -0.1276 -0.2968
  693SOL    HW2 3521   2.843   2.619   7.006  0.0147  1.5357  1.1818
  694SOL     OW 3522   0.092   1.249  10.079 -0.4943 -1.2707 -0.1966
  694SOL    HW1 3523   0.060   1.268  10.167 -0.9231 -1.5868 -0.2790
  694SOL    HW2 3524   0.182   1.282  10.079 -1.5965  2.0704 -0.7953
  695SOL     OW 3525   6.284   3.449   7.888  0.1627  0.1485 -0.3256
  695SOL    HW1 3526   6.312   3.363   7.919 -0.6938  0.1428  0.4847
  695SOL    HW2 3527   6.337   3.465   7.810  0.6191 -0.9332 -0.2546
  696SOL     OW 3528   1.555   7.611  10.084 -0.6844  0.1717  0.3371
  696SOL    HW1 3529   1.472   7.586  10.044  0.5371 -1.3834 -1.4165
  696SOL    HW2 3530   1.611   7.534  10.071  0.2123  0.0108  4.0482
  697SOL     OW 3531   6.151   0.962   2.294 -0.0750 -0.5738 -0.0817
  697SOL    HW1 3532   6.080   0.910   2.256 -1.3570  0.3578  0.9506
  697SOL    HW2 3533   6.112   1.048   2.311  2.3706  1.3837 -3.1934
  698SOL     OW 3534   5.149   2.719  11.066 -0.2211  0.1047 -0.2534
  698SOL    HW1 3535   5.058   2.747  11.060 -0.9464 -1.4775  2.0228
  698SOL    HW2 3536   5.185   2.736  10.979 -2.9989 -0.3012 -1.5928
  699SOL     OW 3537   2.429   1.831   5.761 -0.2905  0.2390 -0.3374
  699SOL    HW1 3538   2.444   1.790   5.846 -0.2438  1.4911  0.2931
  699SOL    HW2 3539   2.496   1.793   5.703  1.4247  1.2559  0.8662
  700SOL     OW 3540   6.886   1.844  10.638 -0.0233 -0.2024  0.0721
  700SOL    HW1 3541   6.808   1.793  10.659 -0.3418  0.6505  1.0526
  700SOL    HW2 3542   6.869   1.930  10.677  0.9199  0.3463 -0.6888
  701SOL     OW 3543   6.378   6.388   6.672 -0.5652  0.1267  0.1460
  701SOL    HW1 3544   6.419   6.462   6.718 -0.7534  1.7774 -2.1449
  701SOL    HW2 3545   6.370   6.418   6.581 -0.2858 -2.8960 -0.9980
  702SOL     OW 3546   6.268   3.963   2.193  0.6109 -0.0953  0.1786
  702SOL    HW1 3547   6.182   4.003   2.188  1.0814  0.8500 -0.8543
  702SOL    HW2 3548   6.251   3.872   2.218 -0.6754  0.0935  0.0536
  703SOL     OW 3549   0.076   4.990   3.531 -0.0446 -0.2694 -0.4005
  703SOL    HW1 3550  -0.002   5.036   3.501 -0.2038 -0.7555 -0.7414
  703SOL    HW2 3551   0.090   5.024   3.620 -1.8037 -1.5787  0.4605
  704SOL     OW 3552   3.201   0.770   6.301  0.9133  0.3530 -0.1470
  704SOL    HW1 3553   3.278   0.815   6.265  1.8190 -1.4195 -0.5682
  704SOL    HW2 3554   3.227   0.745   6.390  0.2668  0.9982  0.2312
  705SOL     OW 3555   3.280   7.709   5.028  0.1616  0.3217  0.0267
  705SOL    HW1 3556   3.270   7.776   5.096 -1.0582 -0.9515  1.1609
  705SOL    HW2 3557   3.349   7.652   5.060  0.2639  0.2684 -0.2842
  706SOL     OW 3558   3.495   2.617   5.863  0.2304 -0.4944  0.2625
  706SOL    HW1 3559   3.503   2.627   5.958  4.0708 -0.4687  0.0799
  706SOL    HW2 3560   3.542   2.692   5.827  0.0033 -1.2190 -1.6427
  707SOL     OW 3561   2.813   4.605   7.974  0.4381  0.3040  0.2613
  707SOL    HW1 3562   2.881   4.603   8.041 -0.5443 -1.1589  1.2611
  707SOL    HW2 3563   2.733   4.576   8.019 -0.6241  0.8940 -1.1436
  708SOL     OW 3564   4.468   1.380   0.138  0.6480  0.3042 -0.8366
  708SOL    HW1 3565   4.472   1.390   0.043  0.8264 -0.5342 -0.9201
  708SOL    HW2 3566   4.547   1.331   0.160  0.1524 -0.2817 -0.3520
  709SOL     OW 3567   3.484   1.809   5.707 -0.7420 -1.2978 -0.0142
  709SOL    HW1 3568   3.391   1.790   5.714 -1.1328  0.7756  1.4041
  709SOL    HW2 3569   3.491   1.864   5.628 -0.5028 -2.4727 -0.8286
  710SOL     OW 3570   6.892   5.706  12.291  0.0764 -0.3306  0.0804
  710SOL    HW1 3571   6.865   5.614  12.285  0.7850 -0.5315 -0.1037
  710SOL    HW2 3572   6.979   5.708  12.251  0.0443  0.4321  0.0415
  711SOL     OW 3573   1.347   7.010   8.465 -0.4542  0.2669 -0.3970
  711SOL    HW1 3574   1.367   7.081   8.404  0.9860 -1.1401 -1.6638
  711SOL    HW2 3575   1.280   6.958   8.419 -0.9721  0.3991  0.1999
  712SOL     OW 3576   4.682   1.803   8.117 -0.4360 -0.2816 -0.1107
  712SOL    HW1 3577   4.608   1.749   8.145 -1.7122  0.5229 -1.7639
  712SOL    HW2 3578   4.755   1.741   8.109  0.0889 -0.6260  4.6230
  713SOL     OW 3579   3.827   7.805   0.611  0.0224  0.2018  0.4359
  713SOL    HW1 3580   3.908   7.830   0.657 -0.9216  2.0131  1.2250
  713SOL    HW2 3581   3.772   7.767   0.680  0.5414 -2.0444 -0.3080
  714SOL     OW 3582   4.185   1.076   7.421  0.1896 -0.0490 -0.1643
  714SOL    HW1 3583   4.214   1.051   7.509  0.8032 -0.6522 -0.5368
  714SOL    HW2 3584   4.262   1.067   7.366  0.0861  1.3808 -0.5760
  715SOL     OW 3585   6.435   0.558   0.745 -0.3376 -0.1027 -0.3890
  715SOL    HW1 3586   6.512   0.531   0.796  0.5578 -0.1220 -1.6966
  715SOL    HW2 3587   6.393   0.625   0.799 -0.0017 -0.8229  0.8223
  716SOL     OW 3588   4.258   0.236   5.951 -0.2464 -0.4061  0.1160
  716SOL    HW1 3589   4.271   0.167   5.885  0.8605  0.3008 -0.4277
  716SOL    HW2 3590   4.289   0.197   6.032  0.0602 -0.6625 -0.1236
  717SOL     OW 3591   7.369   5.899   0.846 -0.1960 -0.3302 -0.0480
  717SOL    HW1 3592   7.361   5.925   0.755  1.0066 -0.8640 -0.3153
  717SOL    HW2 3593   7.376   5.804   0.844 -0.6499 -0.3875  0.6385
  718SOL     OW 3594   2.678   0.847   2.179  0.1520  0.1885 -0.3676
  718SOL    HW1 3595   2.755   0.880   2.133 -0.1472  0.3526 -0.7582
  718SOL    HW2 3596   2.710   0.773   2.231  0.7743  0.8957  0.2772
  719SOL     OW 3597   4.314   5.250   1.097  0.4067 -0.0501 -0.4987
  719SOL    HW1 3598   4.298   5.188   1.168  1.8329  0.1446  0.0292
  719SOL    HW2 3599   4.384   5.307   1.131 -1.0445  2.0503 -0.8373
  720SOL     OW 3600   1.826   3.120   0.370  1.3507 -0.5985  0.3860
  720SOL    HW1 3601   1.734   3.096   0.385  1.2989 -2.4510 -2.2168
  720SOL    HW2 3602   1.859   3.143   0.456 -1.1357 -1.4306  1.6635
  721SOL     OW 3603   0.347   6.759  11.765 -0.4570 -0.6127  0.0498
  721SOL    HW1 3604   0.268   6.812  11.759  0.7339  1.3118  0.4236
  721SOL    HW2 3605   0.365   6.752  11.859  0.7884  0.5790 -0.0593
  722SOL     OW 3606   0.219   7.176   1.103  0.6742  0.6370 -0.4152
  722SOL    HW1 3607   0.313   7.161   1.114  0.4731 -2.0278 -1.4929
  722SOL    HW2 3608   0.206   7.180   1.008 -0.4882 -1.0658 -0.3824
  723SOL     OW 3609   5.469   2.453  11.296  0.3082 -0.3732  0.7003
  723SOL    HW1 3610   5.377   2.462  11.272  0.5216 -1.1535 -0.5216
  723SOL    HW2 3611   5.469   2.440  11.391 -0.7728  0.4277  0.8191
  724SOL     OW 3612   1.662   7.782  11.443 -0.2509  0.1366 -0.9287
  724SOL    HW1 3613   1.681   7.765  11.351  0.5276  3.3973 -1.4878
  724SOL    HW2 3614   1.625   7.870  11.444  2.3790  1.4238  2.0474
  725SOL     OW 3615   5.047   3.756   3.604  0.1118  0.8093 -0.0874
  725SOL    HW1 3616   4.967   3.809   3.612 -1.1803 -0.8446 -1.3552
  725SOL    HW2 3617   5.106   3.811   3.552 -0.6412  1.5859 -0.1588
  726SOL     OW 3618   6.434   3.489   0.476 -1.0603 -0.0369  0.2405
  726SOL    HW1 3619   6.390   3.551   0.419 -0.9577 -1.0612 -0.9994
  726SOL    HW2 3620   6.525   3.516   0.476 -0.9802 -0.2951 -0.4592
  727SOL     OW 3621   2.240   2.875  10.943  0.0274 -0.2164 -0.1376
  727SOL    HW1 3622   2.160   2.837  10.906  0.1596  0.8514 -1.5742
  727SOL    HW2 3623   2.223   2.969  10.947  0.7273 -0.1115  0.8102
  728SOL     OW 3624   6.678   2.154   4.322  0.4317 -0.6286  0.2451
  728SOL    HW1 3625   6.746   2.091   4.299 -0.4690 -0.9013 -1.9156
  728SOL    HW2 3626   6.596   2.108   4.305 -0.3542 -0.2562  2.6640
  729SOL     OW 3627   0.586   7.891   7.756  0.0648  0.0632 -0.4893
  729SOL    HW1 3628   0.593   7.908   7.850  1.8506  2.8819 -1.0000
  729SOL    HW2 3629   0.530   7.961   7.724 -0.8387 -1.0997 -1.5197
  730SOL     OW 3630   3.230   1.427  10.473  0.0329 -0.7499 -0.1614
  730SOL    HW1 3631   3.151   1.372  10.474 -0.3924 -0.1630 -0.4722
  730SOL    HW2 3632   3.227   1.474  10.556 -0.2418 -0.3209 -0.4126
  731SOL     OW 3633   2.774   5.062   0.761  0.2491 -0.2096 -0.1279
  731SOL    HW1 3634   2.853   5.102   0.798 -0.7380  0.5628  1.2243
  731SOL    HW2 3635   2.752   4.992   0.823 -0.1210 -0.4131 -0.4875
  732SOL     OW 3636   6.189   1.571   3.323 -0.3274  0.1495  0.1363
  732SOL    HW1 3637   6.164   1.654   3.283  2.6445  1.1488  0.0803
  732SOL    HW2 3638   6.201   1.591   3.415 -0.1158 -0.3465  0.2187
  733SOL     OW 3639   5.415   7.069   9.789  0.0562 -0.3241 -0.2345
  733SOL    HW1 3640   5.356   6.994   9.793  0.4668 -0.6370  0.2364
  733SOL    HW2 3641   5.358   7.146   9.796 -0.2954 -0.6216  0.2665
  734SOL     OW 3642   4.334   3.976  10.443 -0.0737  0.6171  0.1904
  734SOL    HW1 3643   4.267   4.000  10.379 -0.9440  0.7578  1.1109
  734SOL    HW2 3644   4.290   3.912  10.500  0.7509  0.3133  0.4929
  735SOL     OW 3645   4.117   5.817   3.535  0.7095  0.2225  0.3173
  735SOL    HW1 3646   4.143   5.886   3.597  0.8397  0.7520 -0.3081
  735SOL    HW2 3647   4.054   5.764   3.583 -0.6159  1.7084  0.3311
  736SOL     OW 3648   2.965   5.261   6.258  0.0416 -0.3030 -0.4946
  736SOL    HW1 3649   3.027   5.200   6.219 -0.6415 -0.1150 -1.9459
  736SOL    HW2 3650   2.885   5.250   6.206  0.1352  2.3745 -1.3779
  737SOL     OW 3651   4.330   0.968  11.898 -0.0924  0.2839  0.0396
  737SOL    HW1 3652   4.346   1.028  11.826  1.0627 -0.6010 -0.4743
  737SOL    HW2 3653   4.409   0.973  11.952  0.2302 -1.1145 -0.2776
  738SOL     OW 3654   0.803   1.344  10.517  0.1861  0.1429 -0.2857
  738SOL    HW1 3655   0.807   1.283  10.443  2.0851  0.9300 -0.8939
  738SOL    HW2 3656   0.717   1.329  10.556 -0.6016 -0.7926 -2.2401
  739SOL     OW 3657   4.309   2.228   0.913 -0.0107  0.3771  0.1031
  739SOL    HW1 3658   4.396   2.240   0.875 -0.5246  0.4237 -1.1240
  739SOL    HW2 3659   4.318   2.256   1.004  1.6777 -1.2845  0.5087
  740SOL     OW 3660   6.689   0.343   2.035  0.1804  0.5844  0.6979
  740SOL    HW1 3661   6.781   0.338   2.011 -0.1122  1.8443 -0.8279
  740SOL    HW2 3662   6.663   0.252   2.048  1.2553  0.0846 -0.3929
  741SOL     OW 3663   1.375   1.416   2.659 -0.3962 -0.5228 -0.2720
  741SOL    HW1 3664   1.457   1.460   2.638 -0.1662  0.0497  1.6514
  741SOL    HW2 3665   1.399   1.325   2.677 -0.0405 -0.1854  1.0390
  742SOL     OW 3666   6.556   2.350   1.321 -0.0164 -0.4453  0.5254
  742SOL    HW1 3667   6.485   2.287   1.305  1.6038 -1.7562 -2.3072
  742SOL    HW2 3668   6.558   2.359   1.416 -1.8522 -2.8822  0.9181
  743SOL     OW 3669   0.033   3.049   8.954  0.2789 -0.1425 -0.8075
  743SOL    HW1 3670  -0.050   3.083   8.988 -0.5291 -1.2445 -1.6208
  743SOL    HW2 3671   0.073   3.124   8.911 -0.1492  0.4821 -0.1437
  744SOL     OW 3672   1.080   2.580   7.894  0.8214  0.4471  0.3029
  744SOL    HW1 3673   1.172   2.561   7.911  0.4176 -0.3492  1.8032
  744SOL    HW2 3674   1.035   2.557   7.976 -1.1956 -2.8045 -1.4628
  745SOL     OW 3675   7.589   0.466   6.079  0.1397 -0.0695 -0.1929
  745SOL    HW1 3676   7.581   0.390   6.137 -0.3969 -1.0931 -1.5628
  745SOL    HW2 3677   7.536   0.444   6.003  2.4641  0.3203 -2.0326
  746SOL     OW 3678   1.454   7.433   2.723 -0.4901 -0.2953 -0.7311
  746SOL    HW1 3679   1.392   7.421   2.651 -0.1220 -0.2299 -1.0616
  746SOL    HW2 3680   1.490   7.521   2.710  0.0748 -0.5396 -0.8592
  747SOL     OW 3681   7.828   0.264   3.268 -0.0183 -0.3312  0.3948
  747SOL    HW1 3682   7.746   0.302   3.236 -0.0492 -1.6061 -1.1652
  747SOL    HW2 3683   7.810   0.171   3.275  1.6994 -0.8550 -1.3968
  748SOL     OW 3684   0.933   0.346   6.337 -0.1098 -0.2223 -0.1106
  748SOL    HW1 3685   0.976   0.343   6.423 -0.6856 -3.4547  0.1753
  748SOL    HW2 3686   0.913   0.439   6.324  1.0997  0.5428  2.6757
  749SOL     OW 3687   7.336   7.875   5.223 -0.1337 -0.4283 -0.2467
  749SOL    HW1 3688   7.293   7.960   5.218  1.0243  0.2284  0.5930
  749SOL    HW2 3689   7.328   7.839   5.135 -0.8632  0.4275 -0.5479
  750SOL     OW 3690   1.619   0.148   1.199  0.4080  0.0075  0.0702
  750SOL    HW1 3691   1.670   0.114   1.272 -0.9990  1.1319  1.6510
  750SOL    HW2 3692   1.564   0.217   1.238 -1.3512 -0.2611 -1.7786
  751SOL     OW 3693   1.843   3.527   0.991 -0.1757  0.4049  0.2457
  751SOL    HW1 3694   1.868   3.467   1.061  0.4368  0.9970  0.5513
  751SOL    HW2 3695   1.885   3.610   1.015 -1.2782  1.0559  0.0253
  752SOL     OW 3696   6.369   1.318   3.296 -0.2728  0.1266  0.0085
  752SOL    HW1 3697   6.342   1.278   3.379  1.5090  1.0897  1.1217
  752SOL    HW2 3698   6.349   1.411   3.306  0.6624  0.3777 -0.3116
  753SOL     OW 3699   0.458   2.954   7.203  0.3509 -0.4272  0.0751
  753SOL    HW1 3700   0.519   2.881   7.191  0.0345 -0.4105 -1.9988
  753SOL    HW2 3701   0.514   3.028   7.226  0.9164 -0.7945 -0.0896
  754SOL     OW 3702   4.624   0.158  11.787 -0.0961 -0.4761  0.1341
  754SOL    HW1 3703   4.701   0.207  11.813 -0.1077  0.1748 -0.9725
  754SOL    HW2 3704   4.658   0.074  11.754  0.3974  0.5853 -2.3045
  755SOL     OW 3705   1.837   7.064   2.629 -0.3986 -0.5621  0.0956
  755SOL    HW1 3706   1.821   6.993   2.567  0.8366 -1.4708  0.7870
  755SOL    HW2 3707   1.749   7.095   2.652 -0.9265 -1.2312 -0.9212
  756SOL     OW 3708   2.777   5.386  12.288  0.2665  0.5266 -0.0182
  756SOL    HW1 3709   2.756   5.388  12.381  2.9874  3.1830  0.7430
  756SOL    HW2 3710   2.712   5.444  12.247 -0.2858  0.2146  0.4137
  757SOL     OW 3711   0.268   3.342   2.331  0.3521  0.3269 -0.1736
  757SOL    HW1 3712   0.178   3.329   2.361  1.0051  0.4905  2.0219
  757SOL    HW2 3713   0.322   3.309   2.402  2.0725 -0.7071 -1.8577
  758SOL     OW 3714   4.158   1.981   2.806 -0.4567  0.2132 -0.0702
  758SOL    HW1 3715   4.241   1.991   2.761 -0.3139  1.2324  0.3864
  758SOL    HW2 3716   4.112   1.913   2.758 -0.0841  0.8930 -1.4238
  759SOL     OW 3717   0.754   2.877   4.723 -0.4795 -0.2319 -0.1725
  759SOL    HW1 3718   0.846   2.898   4.709 -0.8243  1.3139 -0.2699
  759SOL    HW2 3719   0.730   2.823   4.648 -0.0421  0.6618 -0.9780
  760SOL     OW 3720   1.085   1.034   5.888 -0.5067  0.1557 -0.4765
  760SOL    HW1 3721   1.028   0.979   5.834 -0.9173 -0.2423  0.3445
  760SOL    HW2 3722   1.027   1.102   5.921 -1.0750 -1.4612  2.1127
  761SOL     OW 3723   5.148   0.380   9.221  0.4355 -0.1482 -0.1447
  761SOL    HW1 3724   5.159   0.457   9.167 -3.0052  1.0607  0.5995
  761SOL    HW2 3725   5.126   0.414   9.308 -3.8029 -1.6521 -0.3581
  762SOL     OW 3726   3.919   1.875   4.752 -0.0710  0.2674  0.1790
  762SOL    HW1 3727   3.841   1.822   4.735  0.7984 -1.3793  1.0158
  762SOL    HW2 3728   3.921   1.939   4.681 -1.6425 -0.2872 -0.4022
  763SOL     OW 3729   3.210   6.529   2.492  0.2781  0.1775 -0.1488
  763SOL    HW1 3730   3.286   6.497   2.540 -0.6585 -2.9471 -0.4780
  763SOL    HW2 3731   3.169   6.593   2.551  1.3869 -0.5120  1.4331
  764SOL     OW 3732   2.714   1.196   5.278  0.2455 -0.0372  0.3212
  764SOL    HW1 3733   2.629   1.169   5.243  1.8131 -1.2179 -3.0377
  764SOL    HW2 3734   2.698   1.280   5.319 -2.8218 -0.9930  1.3809
  765SOL     OW 3735   2.118   2.641   5.574 -0.2044  0.2671 -0.3352
  765SOL    HW1 3736   2.024   2.626   5.565 -0.2246 -0.2260  0.5826
  765SOL    HW2 3737   2.148   2.571   5.633  0.5738  0.9468  0.0978
  766SOL     OW 3738   1.174   3.298  10.645  0.1095 -0.3736  0.2400
  766SOL    HW1 3739   1.233   3.335  10.579  1.3053  1.8246  2.3632
  766SOL    HW2 3740   1.231   3.248  10.703 -0.3078  0.5699  1.5097
  767SOL     OW 3741   5.172   3.733   5.885 -0.5878 -0.0305  0.3773
  767SOL    HW1 3742   5.102   3.683   5.928 -0.4046  0.4328  1.2516
  767SOL    HW2 3743   5.252   3.706   5.930 -0.3235  0.1062 -0.0102
  768SOL     OW 3744   0.968   7.763   4.121  0.1505  0.1057  0.2672
  768SOL    HW1 3745   0.983   7.827   4.052  0.0287  0.2608  0.3836
  768SOL    HW2 3746   0.874   7.749   4.122  0.2634 -0.8047 -0.4040
  769SOL     OW 3747   5.683   6.650   5.615 -0.7104  0.2748 -0.1483
  769SOL    HW1 3748   5.632   6.574   5.587 -0.3615  0.0655 -0.2146
  769SOL    HW2 3749   5.646   6.723   5.565 -1.7411  0.3425  0.6688
  770SOL     OW 3750   1.654   5.978   1.871  0.2044 -0.5654  0.2427
  770SOL    HW1 3751   1.623   6.048   1.813  1.3612 -0.6593 -0.5197
  770SOL    HW2 3752   1.749   5.992   1.877  0.2757 -1.3183  1.1059
  771SOL     OW 3753   6.419   0.370   2.492 -0.5170 -0.3889  0.1500
  771SOL    HW1 3754   6.410   0.428   2.417  2.1069  0.1768  0.1930
  771SOL    HW2 3755   6.474   0.298   2.461 -1.0647 -1.2041  1.0002
  772SOL     OW 3756   2.763   3.983   9.420 -0.3502 -0.3168 -0.1233
  772SOL    HW1 3757   2.804   4.026   9.494  3.0866  0.2023 -2.1082
  772SOL    HW2 3758   2.785   3.890   9.431 -0.5000 -0.3497 -0.1005
  773SOL     OW 3759   3.588   3.009   0.963 -0.7483  0.1952  0.3135
  773SOL    HW1 3760   3.593   2.952   0.887  1.3782  1.1311 -0.3149
  773SOL    HW2 3761   3.588   2.949   1.038  1.3983 -0.7015 -0.3272
  774SOL     OW 3762   5.838   4.946   7.398 -0.0359 -0.6013 -0.1479
  774SOL    HW1 3763   5.903   4.906   7.456 -1.8229 -2.2417  0.8156
  774SOL    HW2 3764   5.874   4.935   7.311  1.6985 -0.0367  0.4530
  775SOL     OW 3765   0.462   4.099   9.230 -0.0561  0.1999  0.1693
  775SOL    HW1 3766   0.558   4.100   9.231  0.0057  2.1500  2.0176
  775SOL    HW2 3767   0.439   4.015   9.190  2.4070 -0.3788 -0.2259
  776SOL     OW 3768   2.112   0.855  10.298  0.3826 -0.1510 -0.7987
  776SOL    HW1 3769   2.017   0.865  10.309  0.7175  1.6023  1.1338
  776SOL    HW2 3770   2.128   0.761  10.311 -1.0069 -0.3661 -0.4787
  777SOL     OW 3771   5.031   0.473  12.305 -0.1741  0.2662  0.9641
  777SOL    HW1 3772   4.993   0.552  12.344  0.1479  0.7045  0.4118
  777SOL    HW2 3773   4.964   0.406  12.315 -0.7046  0.7760  0.8852
  778SOL     OW 3774   6.807   6.326   8.868 -0.3666  0.0195 -0.3145
  778SOL    HW1 3775   6.758   6.404   8.844  1.6450  0.9898 -1.5393
  778SOL    HW2 3776   6.819   6.333   8.963 -0.2768  1.1588 -0.4032
  779SOL     OW 3777   6.222   3.692   1.387 -0.6098 -0.5063  0.4891
  779SOL    HW1 3778   6.308   3.735   1.393 -0.4047 -0.6635 -0.9846
  779SOL    HW2 3779   6.242   3.601   1.365 -1.1254  0.2021 -3.7596
  780SOL     OW 3780   4.614   2.792   1.100 -0.0414  0.2306 -0.2392
  780SOL    HW1 3781   4.586   2.881   1.078  2.6795  1.0941 -0.5208
  780SOL    HW2 3782   4.603   2.786   1.195  2.7619  2.0937  0.2917
  781SOL     OW 3783   6.714   4.069   3.002 -0.2537 -0.7520 -0.3719
  781SOL    HW1 3784   6.730   3.984   3.043 -0.8092 -0.4396  0.5337
  781SOL    HW2 3785   6.707   4.130   3.076 -1.4427 -0.1960 -0.9212
  782SOL     OW 3786   2.201   1.976   6.017  0.2085  0.4248 -0.3835
  782SOL    HW1 3787   2.123   2.026   6.041 -0.6570 -0.7173 -0.7696
  782SOL    HW2 3788   2.182   1.941   5.930  0.4381 -1.2936  0.2320
  783SOL     OW 3789   4.406   7.130   8.463 -0.2232 -0.3141 -0.0641
  783SOL    HW1 3790   4.425   7.211   8.510 -0.5682 -0.6775  0.7251
  783SOL    HW2 3791   4.460   7.063   8.506  0.1397 -0.4873 -0.7757
  784SOL     OW 3792   2.197   7.812   2.236  0.0869  0.0699  0.2726
  784SOL    HW1 3793   2.139   7.812   2.160  0.4380 -1.0596 -0.0043
  784SOL    HW2 3794   2.235   7.724   2.238  1.2326  0.5567  0.8790
  785SOL     OW 3795   0.706   5.739   1.330 -0.1641 -0.4127 -0.3530
  785SOL    HW1 3796   0.757   5.665   1.362 -0.8507 -1.0100 -0.6007
  785SOL    HW2 3797   0.721   5.809   1.394  1.4102 -0.3762 -0.7353
  786SOL     OW 3798   2.404   5.420   8.410 -0.2516 -0.1319 -0.6346
  786SOL    HW1 3799   2.442   5.407   8.497  0.0849 -0.0413 -0.7653
  786SOL    HW2 3800   2.475   5.400   8.349 -1.1105 -2.4636 -0.9706
  787SOL     OW 3801   2.133   6.811  11.205 -0.5246  0.2299 -0.1376
  787SOL    HW1 3802   2.219   6.785  11.170 -0.1593 -0.7031  1.3452
  787SOL    HW2 3803   2.153   6.849  11.291 -1.6140 -0.4432  0.4446
  788SOL     OW 3804   7.267   7.148   8.266 -0.4900 -0.1376  0.2276
  788SOL    HW1 3805   7.292   7.228   8.312 -0.5167 -0.1277  0.2255
  788SOL    HW2 3806   7.344   7.091   8.271 -0.6355 -0.3033  0.6526
  789SOL     OW 3807   5.517   2.808   7.868 -0.4303  0.3077 -0.0840
  789SOL    HW1 3808   5.526   2.882   7.808  1.4207  0.4740  0.3357
  789SOL    HW2 3809   5.512   2.731   7.811  0.1995  0.5550 -0.4799
  790SOL     OW 3810   3.058   4.682   9.280  0.1362 -0.1976  0.0655
  790SOL    HW1 3811   3.106   4.605   9.312 -1.5751 -0.8904  1.1148
  790SOL    HW2 3812   3.011   4.651   9.203 -1.8272 -0.7358  1.3987
  791SOL     OW 3813   2.189   3.291  11.749 -0.0994 -0.2510  0.1786
  791SOL    HW1 3814   2.267   3.287  11.693  0.5287  0.4504  0.9544
  791SOL    HW2 3815   2.117   3.264  11.693  0.6331 -0.4066 -0.7123
  792SOL     OW 3816   2.381   7.773   3.624  0.9143 -0.4660 -0.1629
  792SOL    HW1 3817   2.308   7.833   3.642 -1.8537 -3.1260 -1.5353
  792SOL    HW2 3818   2.417   7.752   3.710  1.4282  2.3508  0.4114
  793SOL     OW 3819   3.960   6.097   7.230 -0.0941 -0.0651  0.1012
  793SOL    HW1 3820   4.013   6.129   7.303  0.8075  0.8740 -0.9296
  793SOL    HW2 3821   3.916   6.175   7.196 -0.4642 -0.4809 -0.3897
  794SOL     OW 3822   2.092   1.101   2.518  0.2375 -0.3161 -0.6644
  794SOL    HW1 3823   2.074   1.113   2.612 -0.3682 -2.5602 -0.4249
  794SOL    HW2 3824   2.166   1.158   2.501 -1.5733  2.5589  0.4103
  795SOL     OW 3825   4.246   7.357   5.557 -0.0019  0.3518  0.6331
  795SOL    HW1 3826   4.245   7.278   5.611  0.7176  1.3235  2.1497
  795SOL    HW2 3827   4.237   7.326   5.467  3.1419 -1.7482  0.8743
  796SOL     OW 3828   6.107   5.973   7.912 -0.4921  0.1542  0.5659
  796SOL    HW1 3829   6.047   6.033   7.956 -1.3646  0.2271 -0.6888
  796SOL    HW2 3830   6.116   6.007   7.824  0.8176 -0.2922  0.5010
  797SOL     OW 3831   1.127   4.948   1.795 -0.0263 -0.2166 -0.5305
  797SOL    HW1 3832   1.097   4.914   1.879  2.3594 -0.7111  0.1906
  797SOL    HW2 3833   1.048   4.981   1.753 -1.1628  0.9506  2.2931
  798SOL     OW 3834   1.626   4.461  11.387 -0.7428  0.3219  0.3255
  798SOL    HW1 3835   1.563   4.481  11.457 -2.0496  0.5594 -0.8684
  798SOL    HW2 3836   1.574   4.414  11.321  0.9615 -1.9184  0.4775
  799SOL     OW 3837   7.424   4.638  10.898 -0.3968  0.0859 -0.4151
  799SOL    HW1 3838   7.345   4.585  10.888 -0.3127  0.1202 -1.2608
  799SOL    HW2 3839   7.457   4.651  10.809  0.0827  0.7991 -0.1463
  800SOL     OW 3840   6.663   6.128   3.718  0.2425 -0.1603  0.4036
  800SOL    HW1 3841   6.600   6.064   3.754  1.0675 -1.5144 -0.4554
  800SOL    HW2 3842   6.748   6.086   3.731  0.9854  1.5381  1.3253
  801SOL     OW 3843   4.222   1.343   5.748  0.2825 -0.3412  0.2847
  801SOL    HW1 3844   4.146   1.399   5.731 -0.6265 -1.3818  0.7815
  801SOL    HW2 3845   4.297   1.398   5.727 -0.5737  1.0550  0.7272
  802SOL     OW 3846   0.690   1.572   2.338  0.1172 -0.4663 -0.3149
  802SOL    HW1 3847   0.780   1.562   2.304  0.0354  0.8009 -0.9902
  802SOL    HW2 3848   0.664   1.659   2.309 -1.1309 -0.5866  0.3892
  803SOL     OW 3849   0.770   0.489   1.594  0.2851 -0.1857 -0.4482
  803SOL    HW1 3850   0.731   0.519   1.676 -0.2419 -1.0525 -0.3572
  803SOL    HW2 3851   0.697   0.489   1.532 -0.1260 -2.5889 -0.0759
  804SOL     OW 3852   3.025   7.747  11.567  0.1057 -0.1743 -0.0859
  804SOL    HW1 3853   3.088   7.731  11.497  1.4414  1.3156  0.6717
  804SOL    HW2 3854   2.940   7.751  11.524  0.4360 -2.5909 -1.1021
  805SOL     OW 3855   4.031   5.236   9.394  0.1998 -0.4085 -0.0120
  805SOL    HW1 3856   4.058   5.211   9.306 -0.0540 -2.7905  0.5027
  805SOL    HW2 3857   4.012   5.153   9.437 -0.3163  0.7307  2.0953
  806SOL     OW 3858   7.273   1.972  11.098  0.7094  0.7288  0.5994
  806SOL    HW1 3859   7.312   2.057  11.074  1.2196  0.2118 -0.4859
  806SOL    HW2 3860   7.253   1.931  11.014 -0.6230  0.2546  1.1294
  807SOL     OW 3861   0.053   2.625   4.881  0.1305 -0.1820 -0.7911
  807SOL    HW1 3862   0.108   2.614   4.804  1.7026  0.2498  0.2312
  807SOL    HW2 3863  -0.036   2.606   4.850  0.9588 -2.0602 -2.2218
  808SOL     OW 3864   2.232   7.584   0.216  0.0408 -0.3102  0.0342
  808SOL    HW1 3865   2.192   7.510   0.169 -1.0164 -0.3317  0.9131
  808SOL    HW2 3866   2.302   7.544   0.267  0.9956 -0.3339 -1.2270
  809SOL     OW 3867   7.035   4.938  11.523 -0.2365  0.0885 -0.4799
  809SOL    HW1 3868   7.111   4.964  11.470  0.6049  0.8430  1.0207
  809SOL    HW2 3869   6.997   4.864  11.476  1.4409 -0.3139 -1.2775
  810SOL     OW 3870   6.828   7.880   2.059 -0.2107  0.0720  0.0272
  810SOL    HW1 3871   6.864   7.954   2.107 -1.2588  0.6704 -0.0768
  810SOL    HW2 3872   6.798   7.819   2.127  0.5205 -0.1967  0.1129
  811SOL     OW 3873   2.210   7.674   1.256  0.3628  0.2818  0.2841
  811SOL    HW1 3874   2.275   7.665   1.326 -0.0509  0.3385  0.6849
  811SOL    HW2 3875   2.126   7.665   1.301  0.1077 -1.2871 -0.4470
  812SOL     OW 3876   0.011   4.008   2.480  0.0184  0.1059  0.7884
  812SOL    HW1 3877   0.017   3.924   2.434  0.5668 -0.7490  2.3561
  812SOL    HW2 3878  -0.039   4.064   2.420  0.0107 -1.1885 -0.4853
  813SOL     OW 3879   3.250   7.141   7.926  0.0574  0.0159 -0.1990
  813SOL    HW1 3880   3.171   7.088   7.912  0.0533  0.1989 -0.8784
  813SOL    HW2 3881   3.305   7.123   7.850 -0.1072  1.2909 -0.6361
  814SOL     OW 3882   1.202   6.562   3.644 -0.4339  0.8048  0.7369
  814SOL    HW1 3883   1.273   6.622   3.620  0.0514 -0.5288 -1.4813
  814SOL    HW2 3884   1.155   6.547   3.562 -0.8394 -1.4459  1.3233
  815SOL     OW 3885   2.293   7.279   8.629  0.0717  0.4975  0.3726
  815SOL    HW1 3886   2.253   7.241   8.707  1.0486  0.5572  0.9273
  815SOL    HW2 3887   2.278   7.214   8.560 -0.7649  0.4236  0.6148
  816SOL     OW 3888   7.142   3.689   6.671 -0.6130 -0.1707 -0.2925
  816SOL    HW1 3889   7.225   3.692   6.719  0.0426 -0.1304 -1.3889
  816SOL    HW2 3890   7.077   3.720   6.734  0.3899  0.9771  0.2222
  817SOL     OW 3891   5.727   0.886   1.052  0.1838 -0.0488 -0.1095
  817SOL    HW1 3892   5.724   0.932   1.136 -1.9167 -1.1696  0.4994
  817SOL    HW2 3893   5.676   0.941   0.993  1.9731  0.9306 -0.8232
  818SOL     OW 3894   1.300   0.070  11.493 -0.2229 -0.5283  0.2884
  818SOL    HW1 3895   1.337   0.126  11.424 -1.8534  0.0236 -0.1869
  818SOL    HW2 3896   1.255   0.000  11.446 -0.7591 -0.5372  0.8009
  819SOL     OW 3897   1.138   6.949   8.283  0.3812  0.2647  0.4793
  819SOL    HW1 3898   1.054   6.915   8.312 -0.7823  1.5317 -1.1565
  819SOL    HW2 3899   1.116   7.004   8.207  2.7568  0.1395 -0.3741
  820SOL     OW 3900   5.130   5.696  10.534 -0.4645 -0.2556  0.3404
  820SOL    HW1 3901   5.089   5.771  10.578 -1.3011 -1.2251  1.2405
  820SOL    HW2 3902   5.218   5.727  10.511 -0.7677  0.9730  0.7676
  821SOL     OW 3903   2.447   4.397   7.139  0.3352 -0.3091 -0.7837
  821SOL    HW1 3904   2.469   4.402   7.046 -0.4836 -1.7170 -1.0666
  821SOL    HW2 3905   2.476   4.310   7.166  1.1628  0.3229  0.4560
  822SOL     OW 3906   6.196   1.233  12.218  0.0099 -0.1944  0.0796
  822SOL    HW1 3907   6.168   1.325  12.224 -0.2547 -0.2905  0.3253
  822SOL    HW2 3908   6.143   1.188  12.283  0.1990 -0.5107  0.0132
  823SOL     OW 3909   0.536   1.471   5.897 -0.4015 -0.0712 -0.0092
  823SOL    HW1 3910   0.549   1.437   5.986 -0.3104 -2.0905 -0.7464
  823SOL    HW2 3911   0.454   1.519   5.902 -0.2840  0.0525  1.2145
  824SOL     OW 3912   4.911   3.404  12.346  0.5102 -0.2094 -0.0220
  824SOL    HW1 3913   4.951   3.455  12.276  0.0805 -0.0001 -0.1230
  824SOL    HW2 3914   4.983   3.356  12.386  0.8536  0.1528 -0.2035
  825SOL     OW 3915   3.394   7.917   4.884 -0.3964  0.3257 -0.1467
  825SOL    HW1 3916   3.468   7.937   4.942 -0.7342  1.5203 -0.1040
  825SOL    HW2 3917   3.361   7.833   4.916  1.5425 -0.7326 -0.7839
  826SOL     OW 3918   4.538   0.830   9.210  0.5473  0.5279 -0.1242
  826SOL    HW1 3919   4.504   0.741   9.217 -0.8157  0.9346 -1.1087
  826SOL    HW2 3920   4.603   0.836   9.279 -1.3966 -0.3041  1.9213
  827SOL     OW 3921   2.811   0.242   5.753 -0.1678  0.3146 -0.1456
  827SOL    HW1 3922   2.738   0.297   5.783  1.0604  2.1788 -0.3942
  827SOL    HW2 3923   2.781   0.205   5.670 -1.0590  0.5057  0.0744
  828SOL     OW 3924   3.196   2.888   3.156 -0.7789  0.1732 -0.1572
  828SOL    HW1 3925   3.126   2.858   3.098  0.0045  0.7182 -1.4247
  828SOL    HW2 3926   3.181   2.982   3.165  1.2811  0.8913 -2.7202
  829SOL     OW 3927   7.727   4.446  10.139  0.2718 -1.0435 -0.0137
  829SOL    HW1 3928   7.697   4.471  10.226  3.4694 -1.1098  1.2565
  829SOL    HW2 3929   7.698   4.356  10.128 -2.8394 -0.0936 -0.4413
  830SOL     OW 3930   6.549   0.978   1.677  0.1131  0.3006  1.3536
  830SOL    HW1 3931   6.478   0.942   1.730  0.5410 -1.0950  1.0178
  830SOL    HW2 3932   6.505   1.012   1.599 -0.1518 -1.3542  0.7278
  831SOL     OW 3933   6.779   1.047   6.025  0.1874  0.1536  0.0919
  831SOL    HW1 3934   6.693   1.084   6.004  0.1632 -0.2388 -0.5207
  831SOL    HW2 3935   6.841   1.100   5.976  0.2344 -0.0227 -0.0395
  832SOL     OW 3936   7.887   5.110   4.917  0.6592 -0.2191  0.2043
  832SOL    HW1 3937   7.848   5.145   4.997 -0.5012 -0.7893 -0.0882
  832SOL    HW2 3938   7.853   5.166   4.847 -1.3323 -1.9272 -0.2867
  833SOL     OW 3939   4.137   0.700   0.123 -0.2604 -0.0825  0.1686
  833SOL    HW1 3940   4.225   0.666   0.109 -0.2549  0.1241 -0.3282
  833SOL    HW2 3941   4.112   0.737   0.038 -0.7889 -0.0572  0.3293
  834SOL     OW 3942   2.379   1.878   3.983  0.2981 -0.1321 -0.3344
  834SOL    HW1 3943   2.435   1.939   3.933 -0.0807  0.5984  0.1251
  834SOL    HW2 3944   2.424   1.794   3.975  0.5973  0.1043 -1.3572
  835SOL     OW 3945   2.444   1.197   2.999 -0.2207  0.4650  0.0478
  835SOL    HW1 3946   2.437   1.165   2.909  2.2130 -0.4757  0.1038
  835SOL    HW2 3947   2.514   1.262   2.996  0.8862 -0.6049  1.4668
  836SOL     OW 3948   4.416   7.675  11.404  0.1290  0.2242  0.3558
  836SOL    HW1 3949   4.351   7.685  11.334  0.8481 -1.3327 -0.5711
  836SOL    HW2 3950   4.500   7.694  11.362  0.5478 -0.5339  0.8362
  837SOL     OW 3951   5.415   7.811   5.085  0.3182  0.2295  0.2606
  837SOL    HW1 3952   5.486   7.820   5.149  0.1755 -2.3727  0.8983
  837SOL    HW2 3953   5.356   7.747   5.124  0.4771 -1.8626 -2.6551
  838SOL     OW 3954   7.581   4.298   2.719  0.4964 -0.6595 -0.0885
  838SOL    HW1 3955   7.625   4.250   2.788 -0.8606 -1.1250  0.4814
  838SOL    HW2 3956   7.496   4.322   2.756 -0.0563 -0.4715 -1.4044
  839SOL     OW 3957   1.915   6.337   6.969 -0.0803 -0.3857 -0.3678
  839SOL    HW1 3958   1.866   6.272   6.920  1.2377 -0.0702 -2.1892
  839SOL    HW2 3959   1.865   6.348   7.050 -1.6499 -1.8409 -1.0741
  840SOL     OW 3960   3.158   4.035   1.295 -0.8261  0.5473  0.0438
  840SOL    HW1 3961   3.122   3.960   1.343 -0.4283  0.2892 -0.0568
  840SOL    HW2 3962   3.144   4.013   1.203  0.6415 -0.1035 -0.0431
  841SOL     OW 3963   2.634   4.197  10.857  0.2978  0.2573  0.1107
  841SOL    HW1 3964   2.684   4.139  10.798 -1.8992 -2.3944  0.6560
  841SOL    HW2 3965   2.665   4.285  10.835  3.3297 -0.9975 -1.3033
  842SOL     OW 3966   4.018   3.062   3.212 -0.0629 -0.0053  0.0816
  842SOL    HW1 3967   4.033   3.137   3.153  0.6845 -1.2296 -1.3488
  842SOL    HW2 3968   4.104   3.021   3.221 -0.5471 -0.9606  0.4517
  843SOL     OW 3969   3.640   0.226   8.464 -0.1670 -0.0574  0.1860
  843SOL    HW1 3970   3.600   0.139   8.467  0.8847 -0.5274  1.1977
  843SOL    HW2 3971   3.709   0.218   8.399 -0.3610  0.1652 -0.0517
  844SOL     OW 3972   1.617   0.474   3.361 -0.7040  0.3556 -0.0898
  844SOL    HW1 3973   1.647   0.549   3.310 -2.1311 -0.2099 -1.8691
  844SOL    HW2 3974   1.696   0.440   3.403  0.3629  1.4454 -1.1444
  845SOL     OW 3975   0.998   2.705  10.869  0.1132  0.4094 -0.3459
  845SOL    HW1 3976   0.996   2.612  10.892  0.8643  0.3362 -0.5297
  845SOL    HW2 3977   1.087   2.719  10.836 -0.7293  0.6061 -2.7337
  846SOL     OW 3978   3.483   4.642  10.219  0.4053 -0.7705  0.0195
  846SOL    HW1 3979   3.445   4.647  10.131  2.5330 -0.9965 -0.9877
  846SOL    HW2 3980   3.578   4.641  10.204  0.8262 -2.7878  2.2033
  847SOL     OW 3981   3.424   7.107  12.316  0.0675 -0.5580 -0.2673
  847SOL    HW1 3982   3.389   7.037  12.261  0.8638 -0.0316 -1.4733
  847SOL    HW2 3983   3.491   7.149  12.263  2.3132 -1.2768  1.7855
  848SOL     OW 3984   2.221   4.730   1.627 -0.2169 -0.0542  0.0630
  848SOL    HW1 3985   2.308   4.699   1.602  0.8228  0.8133  2.3109
  848SOL    HW2 3986   2.223   4.824   1.611 -0.4485  0.0898  0.8229
  849SOL     OW 3987   1.662   1.411   4.829  0.1154 -0.2482  0.0666
  849SOL    HW1 3988   1.683   1.503   4.811  0.2121 -0.4008 -0.6029
  849SOL    HW2 3989   1.572   1.414   4.863 -0.8191 -0.1291 -2.2801
  850SOL     OW 3990   2.834   2.943   9.822 -0.1483 -0.3415 -0.1682
  850SOL    HW1 3991   2.917   2.928   9.868  0.6782 -1.1300 -1.8585
  850SOL    HW2 3992   2.772   2.965   9.892  1.3372 -0.2974  1.1882
  851SOL     OW 3993   4.604   2.193   6.602  0.6577 -0.3387 -0.6223
  851SOL    HW1 3994   4.617   2.187   6.507  1.1111  0.2769 -0.6058
  851SOL    HW2 3995   4.510   2.179   6.614 -0.0230  2.6830 -1.4754
  852SOL     OW 3996   3.951   3.671  10.256  0.2597  0.2956  0.3122
  852SOL    HW1 3997   4.045   3.684  10.250  0.6652 -1.4268  2.0070
  852SOL    HW2 3998   3.923   3.734  10.323  0.6086 -0.7357  1.4541
  853SOL     OW 3999   2.526   1.236   7.180  0.5360 -0.6688  0.1447
  853SOL    HW1 4000   2.488   1.250   7.267  1.4921 -0.2504  0.5096
  853SOL    HW2 4001   2.460   1.184   7.133  0.1758 -1.2503  1.2508
  854SOL     OW 4002   1.753   1.237   0.631 -0.1533 -0.1472  0.5932
  854SOL    HW1 4003   1.802   1.165   0.669 -1.2683 -1.8778 -1.0808
  854SOL    HW2 4004   1.664   1.203   0.622 -0.5353  1.1608 -0.9407
  855SOL     OW 4005   0.872   6.272   0.082  0.0674 -0.5585  0.0121
  855SOL    HW1 4006   0.843   6.332   0.151 -2.0442  1.3000 -2.2979
  855SOL    HW2 4007   0.926   6.326   0.024  1.7053 -2.0530  0.0636
  856SOL     OW 4008   6.604   2.142  11.438  0.1749  0.1013  0.3756
  856SOL    HW1 4009   6.533   2.128  11.376  1.6152  0.4217 -1.4137
  856SOL    HW2 4010   6.623   2.235  11.432  1.6775 -0.2240 -0.2346
  857SOL     OW 4011   0.843   7.334   1.249  0.8453 -0.8693 -0.1599
  857SOL    HW1 4012   0.856   7.424   1.279 -0.5637 -1.1696  1.5658
  857SOL    HW2 4013   0.759   7.335   1.204 -0.4586 -1.7111  2.0681
  858SOL     OW 4014   5.687   5.408   5.561 -0.3983 -0.0164  0.2951
  858SOL    HW1 4015   5.769   5.453   5.580 -0.8128 -0.0047  2.2467
  858SOL    HW2 4016   5.619   5.471   5.587 -1.0402 -0.3075 -0.6117
  859SOL     OW 4017   4.838   1.914   4.150 -0.1458  0.4436  0.2708
  859SOL    HW1 4018   4.819   2.008   4.146 -1.0727  0.2383 -0.2541
  859SOL    HW2 4019   4.770   1.878   4.206 -1.7843 -0.3721 -2.0675
  860SOL     OW 4020   4.011   3.046   0.359 -0.9162 -0.4276  0.8660
  860SOL    HW1 4021   3.965   2.963   0.357 -0.8646 -0.4348 -0.2732
  860SOL    HW2 4022   3.994   3.086   0.274  0.2915  0.0439  0.8205
  861SOL     OW 4023   4.881   4.915  10.793  0.3553  0.2266 -0.1190
  861SOL    HW1 4024   4.786   4.907  10.777  0.5040  0.0890 -1.0167
  861SOL    HW2 4025   4.920   4.906  10.706  1.2683 -0.8460  0.3863
  862SOL     OW 4026   6.602   0.897  11.073 -0.1486  0.0180  0.1726
  862SOL    HW1 4027   6.683   0.846  11.078 -0.0987  0.2311  2.1400
  862SOL    HW2 4028   6.630   0.988  11.082 -0.5654  0.1302  0.3394
  863SOL     OW 4029   1.399   5.325   1.594 -0.8328  0.8242 -0.5032
  863SOL    HW1 4030   1.420   5.346   1.503 -0.2912 -1.8179 -1.0722
  863SOL    HW2 4031   1.483   5.325   1.639 -0.7455 -0.4014 -0.6255
  864SOL     OW 4032   1.084   1.368   6.290 -0.1078 -0.1240  0.1282
  864SOL    HW1 4033   1.068   1.287   6.338 -1.2162  0.3047  0.4986
  864SOL    HW2 4034   1.050   1.437   6.347  2.2437  0.7849  0.5522
  865SOL     OW 4035   4.371   6.765   6.823 -0.0712  0.1930  0.7658
  865SOL    HW1 4036   4.407   6.787   6.910 -0.2173  0.3918  0.7760
  865SOL    HW2 4037   4.281   6.737   6.841 -1.8969  4.8388  0.2802
  866SOL     OW 4038   2.800   2.787  11.953  0.1020  0.1892 -0.3572
  866SOL    HW1 4039   2.718   2.759  11.912  0.3351 -2.2111  0.6437
  866SOL    HW2 4040   2.801   2.742  12.038  0.7510  3.1046  1.3238
  867SOL     OW 4041   2.558   2.794   6.228 -0.1567  0.3681 -0.3988
  867SOL    HW1 4042   2.540   2.836   6.144 -1.3508  2.1708  0.7051
  867SOL    HW2 4043   2.578   2.866   6.287  2.2720 -0.9579  0.5490
  868SOL     OW 4044   2.918   3.664   2.099 -0.4535  0.2763 -0.1301
  868SOL    HW1 4045   2.966   3.669   2.016  1.7706 -1.7410  0.9113
  868SOL    HW2 4046   2.883   3.574   2.102  0.5112 -0.0912  1.5828
  869SOL     OW 4047   3.871   5.088   2.061 -0.3406 -0.8727 -0.9016
  869SOL    HW1 4048   3.951   5.135   2.036  0.1497 -2.1216 -1.7595
  869SOL    HW2 4049   3.805   5.118   1.999 -1.0591  1.4027  0.7883
  870SOL     OW 4050   5.437   1.429  10.278 -0.4804  0.3671 -0.2980
  870SOL    HW1 4051   5.346   1.445  10.302 -0.2642 -0.7747  1.5366
  870SOL    HW2 4052   5.447   1.334  10.285  1.3558  0.6316  1.6540
  871SOL     OW 4053   4.453   2.293   9.037 -0.4049 -0.5983 -0.8685
  871SOL    HW1 4054   4.394   2.252   9.099 -1.9623  1.5592 -0.8302
  871SOL    HW2 4055   4.398   2.320   8.964 -0.0905  3.5832  0.1814
  872SOL     OW 4056   6.286   3.298   4.111 -0.6493 -0.6377 -0.1386
  872SOL    HW1 4057   6.276   3.382   4.155 -0.7886 -0.6391 -0.1690
  872SOL    HW2 4058   6.218   3.242   4.149 -0.2975 -0.8594  0.1761
  873SOL     OW 4059   6.047   3.916   4.593  0.1645 -0.4598  0.4576
  873SOL    HW1 4060   6.136   3.899   4.622 -0.3901 -1.4291  1.6990
  873SOL    HW2 4061   6.051   3.912   4.498  1.5707  0.2264  0.4615
  874SOL     OW 4062   6.749   3.472   9.684 -0.2351 -0.2499 -0.4130
  874SOL    HW1 4063   6.673   3.504   9.635 -0.1116  0.0740 -0.3959
  874SOL    HW2 4064   6.792   3.411   9.624 -0.2485 -0.0787 -0.5973
  875SOL     OW 4065   4.426   2.123   2.773 -0.3275  0.0015  0.9145
  875SOL    HW1 4066   4.472   2.073   2.706  1.0940  1.9994  0.3115
  875SOL    HW2 4067   4.437   2.072   2.853  0.6964 -0.8523  0.2574
  876SOL     OW 4068   1.660   6.832  12.044 -0.0463  0.1258 -0.3137
  876SOL    HW1 4069   1.652   6.835  11.949  2.1500 -1.4645 -0.6489
  876SOL    HW2 4070   1.609   6.755  12.070  0.0399  0.0670 -0.3182
  877SOL     OW 4071   0.560   1.938   5.746 -0.0971  0.1996  0.0443
  877SOL    HW1 4072   0.554   1.984   5.829  1.1830 -1.0869  0.8991
  877SOL    HW2 4073   0.613   1.995   5.690  1.3365 -0.1106  1.0362
  878SOL     OW 4074   2.408   4.393   3.819  0.0917  0.5285 -0.8296
  878SOL    HW1 4075   2.378   4.472   3.863 -0.1405  1.0269 -1.8477
  878SOL    HW2 4076   2.503   4.398   3.822  0.2388 -1.2190  2.7034
  879SOL     OW 4077   0.589   2.262   3.399 -0.3215  0.0221  0.3454
  879SOL    HW1 4078   0.508   2.309   3.381  0.4789  0.8468 -1.3381
  879SOL    HW2 4079   0.572   2.172   3.370 -1.0311 -0.1408  1.2215
  880SOL     OW 4080   1.610   4.012   9.391  0.5110 -0.2977 -0.0876
  880SOL    HW1 4081   1.673   4.053   9.450  1.4893 -0.7004 -0.8229
  880SOL    HW2 4082   1.573   3.940   9.442  1.5112 -0.7817 -0.0231
  881SOL     OW 4083   2.631   0.344   1.583 -0.5726 -0.1131  0.1235
  881SOL    HW1 4084   2.710   0.328   1.532 -0.1887 -0.2215  0.7324
  881SOL    HW2 4085   2.628   0.272   1.646 -0.7623  0.2851  0.5786
  882SOL     OW 4086   7.749   0.295   5.045  0.1292  0.2051  0.5112
  882SOL    HW1 4087   7.660   0.278   5.016  0.3852  0.8640 -0.7265
  882SOL    HW2 4088   7.740   0.332   5.132 -0.8640  1.0572  0.0637
  883SOL     OW 4089   6.356   2.491  11.514 -0.2500  0.2664 -0.1805
  883SOL    HW1 4090   6.280   2.537  11.548 -0.1687 -0.1756  0.6142
  883SOL    HW2 4091   6.414   2.481  11.589  0.0208 -0.5554 -0.4848
  884SOL     OW 4092   2.360   2.511   6.107  0.6024  0.0265  0.3310
  884SOL    HW1 4093   2.376   2.541   6.018  0.1865 -2.6920 -0.7670
  884SOL    HW2 4094   2.293   2.570   6.141 -0.1854  0.3416 -1.6325
  885SOL     OW 4095   0.077   7.003   6.673  0.5720 -0.1559 -0.4515
  885SOL    HW1 4096  -0.011   6.966   6.683 -0.2035  1.6533 -0.1968
  885SOL    HW2 4097   0.135   6.927   6.673 -0.9401 -1.3609 -0.0495
  886SOL     OW 4098   2.419   7.339   3.393 -0.3400 -0.1734 -0.4048
  886SOL    HW1 4099   2.386   7.428   3.404 -0.1710 -0.3102  1.4885
  886SOL    HW2 4100   2.379   7.290   3.464  1.9104 -0.9263  0.4219
  887SOL     OW 4101   0.788   7.127   3.929 -0.0064  0.3184 -0.3893
  887SOL    HW1 4102   0.877   7.102   3.951  0.4426  1.3349 -0.9992
  887SOL    HW2 4103   0.734   7.053   3.958  1.1871 -1.0127 -1.4614
  888SOL     OW 4104   5.364   5.204  12.004 -0.0579 -0.4126 -0.3432
  888SOL    HW1 4105   5.371   5.300  12.004 -0.3924 -0.3861 -0.1174
  888SOL    HW2 4106   5.297   5.186  12.070  0.6624 -0.8435  0.2915
  889SOL     OW 4107   1.332   1.385   9.190 -0.0371  0.2227  0.4260
  889SOL    HW1 4108   1.342   1.436   9.109  0.3916  0.2527  0.4921
  889SOL    HW2 4109   1.421   1.358   9.212 -0.2878 -0.8152  0.2329
  890SOL     OW 4110   5.412   3.464   4.468 -0.1111  0.2951  0.3587
  890SOL    HW1 4111   5.473   3.512   4.411  0.7313  0.9286  1.7428
  890SOL    HW2 4112   5.469   3.416   4.529 -0.9914 -0.1051  0.8884
  891SOL     OW 4113   2.969   4.441   8.828  0.0193 -0.4127 -0.6046
  891SOL    HW1 4114   2.973   4.352   8.862  2.1839 -0.1049  0.0491
  891SOL    HW2 4115   2.956   4.430   8.734  1.5764 -1.4919 -0.7244
  892SOL     OW 4116   5.217   7.591   8.458  0.1466 -0.4925 -0.0772
  892SOL    HW1 4117   5.122   7.595   8.450  0.1204 -1.4464 -0.3654
  892SOL    HW2 4118   5.233   7.556   8.545  0.2694  0.8646  0.4635
  893SOL     OW 4119   5.302   0.153  10.816 -0.0132  0.0338  0.2635
  893SOL    HW1 4120   5.274   0.229  10.765  2.5105 -0.1940 -1.6720
  893SOL    HW2 4121   5.308   0.186  10.906 -1.9676  1.2121  0.0200
  894SOL     OW 4122   4.640   7.562   1.862  0.1208 -0.1205 -0.0930
  894SOL    HW1 4123   4.622   7.543   1.770 -1.7501 -0.2195  0.2405
  894SOL    HW2 4124   4.661   7.477   1.901 -3.3045 -0.9070  0.3739
  895SOL     OW 4125   7.027   2.321  10.799  0.2562  0.6990  0.3416
  895SOL    HW1 4126   6.975   2.380  10.854 -0.1675  0.8631 -0.2234
  895SOL    HW2 4127   6.964   2.257  10.767  0.8400 -0.5049  1.5172
  896SOL     OW 4128   3.094   0.758   2.072 -0.2220 -0.0707 -0.0003
  896SOL    HW1 4129   3.119   0.678   2.025 -1.5244 -0.8409  0.5385
  896SOL    HW2 4130   3.114   0.738   2.164  0.7936  0.7979 -0.0161
  897SOL     OW 4131   1.580   3.333   3.495  0.0304 -0.2366 -0.3864
  897SOL    HW1 4132   1.536   3.389   3.431 -0.1045 -0.1810 -0.2463
  897SOL    HW2 4133   1.581   3.246   3.454 -2.1422 -0.7269  0.4825
  898SOL     OW 4134   4.533   5.697   8.638  0.3822  0.3085  0.1853
  898SOL    HW1 4135   4.514   5.660   8.724  0.3159  0.1798  0.1145
  898SOL    HW2 4136   4.482   5.644   8.577  0.1850  0.5962  0.0977
  899SOL     OW 4137   7.264   6.117   0.986 -0.7723 -0.7391  0.5457
  899SOL    HW1 4138   7.306   6.047   0.936 -0.2838 -0.0275 -0.0624
  899SOL    HW2 4139   7.197   6.073   1.039 -0.0530 -1.7394  0.6450
  900SOL     OW 4140   1.823   6.651   3.712 -0.8869 -0.1911  0.1222
  900SOL    HW1 4141   1.816   6.652   3.807 -1.1127  1.3854  0.1043
  900SOL    HW2 4142   1.732   6.660   3.682 -0.8214 -0.7283 -0.2570
  901SOL     OW 4143   3.191   1.099  10.594  0.9293  0.6998  0.1878
  901SOL    HW1 4144   3.210   1.118  10.502 -0.2380  2.6597  0.2953
  901SOL    HW2 4145   3.169   1.006  10.595  1.9340  0.4169 -1.3336
  902SOL     OW 4146   6.555   7.532   0.742  0.7658  0.3279  0.2113
  902SOL    HW1 4147   6.524   7.479   0.815  0.2062  0.1672 -0.1389
  902SOL    HW2 4148   6.640   7.494   0.720  1.3133  0.8775  1.2821
  903SOL     OW 4149   6.748   5.232   6.842 -0.0793  0.2638  0.2929
  903SOL    HW1 4150   6.706   5.310   6.805  0.8249  0.1122 -1.1098
  903SOL    HW2 4151   6.692   5.208   6.916 -2.5005  0.0449 -1.5058
  904SOL     OW 4152   2.748   7.985   6.179 -0.0523 -0.6512 -0.5810
  904SOL    HW1 4153   2.678   7.920   6.166 -0.5693  0.0273 -1.3146
  904SOL    HW2 4154   2.757   8.027   6.093  0.3336  0.1860 -0.1411
  905SOL     OW 4155   0.430   2.915   9.315  0.0839 -0.2607  0.3434
  905SOL    HW1 4156   0.396   2.833   9.349  0.4239  0.1719  1.7860
  905SOL    HW2 4157   0.409   2.980   9.382 -1.3736  1.1225 -1.3429
  906SOL     OW 4158   6.811   7.475   7.632 -0.4362  0.0562 -0.8369
  906SOL    HW1 4159   6.861   7.545   7.589 -2.0947  0.5975 -1.9773
  906SOL    HW2 4160   6.793   7.412   7.562  0.4645 -1.2308  0.0398
  907SOL     OW 4161   0.089   0.297   4.312  0.3308 -0.0282 -0.2916
  907SOL    HW1 4162   0.086   0.202   4.298 -0.5970 -0.1962  0.9110
  907SOL    HW2 4163   0.155   0.328   4.250 -0.5404 -1.2394 -1.9020
  908SOL     OW 4164   0.345   7.913   5.293 -0.1241  0.1387 -0.0359
  908SOL    HW1 4165   0.356   7.948   5.205  1.7480  0.2388  0.2096
  908SOL    HW2 4166   0.307   7.986   5.343 -0.1820  0.4253 -0.4982
  909SOL     OW 4167   1.129   6.009   2.783 -0.0374  0.4971  0.2499
  909SOL    HW1 4168   1.035   5.994   2.772  0.2075 -1.5436  0.6091
  909SOL    HW2 4169   1.167   5.922   2.786  2.0782  1.2928 -1.3234
  910SOL     OW 4170   5.499   0.790   3.294  0.4609 -0.3320 -0.3489
  910SOL    HW1 4171   5.513   0.738   3.373  2.8489 -0.2075 -0.6208
  910SOL    HW2 4172   5.524   0.731   3.222 -0.5566 -0.0546 -0.9493
  911SOL     OW 4173   4.618   2.790  11.120  0.2330  0.6248 -0.0045
  911SOL    HW1 4174   4.553   2.808  11.188 -0.5732 -2.8162  0.3193
  911SOL    HW2 4175   4.568   2.750  11.049  1.8186 -1.0058 -0.2528
  912SOL     OW 4176   4.360   5.678   6.428  0.1784 -0.5073 -0.2049
  912SOL    HW1 4177   4.378   5.694   6.336 -1.2735  0.1895 -0.3967
  912SOL    HW2 4178   4.265   5.686   6.436  0.4500  1.9340  1.7911
  913SOL     OW 4179   0.144   6.529  10.371  0.0579 -0.2623  0.2717
  913SOL    HW1 4180   0.049   6.525  10.385  0.2534 -0.7694  1.5577
  913SOL    HW2 4181   0.157   6.487  10.286 -0.9207  0.3630 -0.2061
  914SOL     OW 4182   3.793   3.254  11.599 -0.6039 -0.2993 -0.3942
  914SOL    HW1 4183   3.698   3.244  11.601 -0.7020  0.5982  0.0971
  914SOL    HW2 4184   3.827   3.165  11.605 -1.4085 -0.5683  0.3724
  915SOL     OW 4185   2.202   6.700   0.260 -0.2357  0.0222  0.4968
  915SOL    HW1 4186   2.172   6.609   0.259 -0.6266  0.1505  0.0037
  915SOL    HW2 4187   2.231   6.716   0.170 -2.3835  1.0966 -0.0730
  916SOL     OW 4188   4.795   5.379   6.280 -0.0557 -0.4182 -0.0390
  916SOL    HW1 4189   4.841   5.346   6.357  0.1825  0.6028  0.2787
  916SOL    HW2 4190   4.724   5.317   6.265 -0.0722 -0.6553  0.9747
  917SOL     OW 4191   3.279   4.581   4.030 -0.3753 -0.3566  0.5758
  917SOL    HW1 4192   3.301   4.598   4.122  0.5601  1.2862  0.0873
  917SOL    HW2 4193   3.343   4.632   3.981 -0.5827 -1.5762 -1.0079
  918SOL     OW 4194   1.545   5.081   9.281  0.2209  0.2390 -0.2428
  918SOL    HW1 4195   1.585   5.110   9.199 -0.4389 -1.0849 -1.0549
  918SOL    HW2 4196   1.484   5.012   9.256  1.0897 -1.2738  1.4934
  919SOL     OW 4197   3.354   3.403   1.972 -0.1619  0.2286  0.4870
  919SOL    HW1 4198   3.449   3.391   1.960 -0.2030 -0.1895  0.5676
  919SOL    HW2 4199   3.321   3.315   1.987 -0.5481  0.3922  0.5913
  920SOL     OW 4200   5.740   1.911  11.084  0.0968  0.3615 -0.1414
  920SOL    HW1 4201   5.690   1.833  11.061 -0.7561  0.9095 -0.2088
  920SOL    HW2 4202   5.725   1.972  11.012  1.5749  0.2352 -0.5797
  921SOL     OW 4203   2.719   6.133  12.440 -0.4925  0.1739 -0.3861
  921SOL    HW1 4204   2.643   6.077  12.423  0.1675 -0.9315  0.1957
  921SOL    HW2 4205   2.714   6.201  12.373 -1.4646 -0.4352 -0.9556
  922SOL     OW 4206   6.548   4.665   9.844 -0.1656 -0.2172 -0.1390
  922SOL    HW1 4207   6.544   4.743   9.789 -0.8846 -0.5389 -0.5560
  922SOL    HW2 4208   6.456   4.645   9.864 -0.0064 -1.1030 -0.2567
  923SOL     OW 4209   7.519   6.826   9.431  0.6189  0.4273 -0.2975
  923SOL    HW1 4210   7.522   6.903   9.374 -1.2268 -0.6725 -1.9905
  923SOL    HW2 4211   7.478   6.758   9.378 -1.1675 -0.6982  2.3072
  924SOL     OW 4212   3.314   3.480   4.282  0.2110 -0.3350  0.4528
  924SOL    HW1 4213   3.220   3.490   4.273  0.3330 -0.3314 -1.0569
  924SOL    HW2 4214   3.350   3.568   4.265  0.4864 -0.3088  1.1318
  925SOL     OW 4215   5.699   4.336   3.837 -0.3272 -0.2459  0.0770
  925SOL    HW1 4216   5.780   4.342   3.887 -1.3577  0.5025  1.7288
  925SOL    HW2 4217   5.703   4.409   3.775 -1.0901  1.8229  2.3024
  926SOL     OW 4218   7.636   7.779   6.905 -0.2699  0.1181  0.4808
  926SOL    HW1 4219   7.567   7.773   6.971 -0.7405 -0.0291 -0.0094
  926SOL    HW2 4220   7.674   7.691   6.903 -0.0077  0.2237  0.8158
  927SOL     OW 4221   6.591   2.632  11.033 -0.4134 -0.1688 -0.6979
  927SOL    HW1 4222   6.543   2.628  11.116 -0.9765  0.0020 -1.0138
  927SOL    HW2 4223   6.523   2.643  10.966  0.0233 -0.5131 -1.2020
  928SOL     OW 4224   3.416   6.581   7.042  0.3765  0.2543 -0.2163
  928SOL    HW1 4225   3.482   6.620   6.984 -0.0008  1.7755  0.3455
  928SOL    HW2 4226   3.336   6.630   7.024  0.0089  0.0801  0.8828
  929SOL     OW 4227   4.575   5.889  12.297 -0.2757  0.7761 -0.6917
  929SOL    HW1 4228   4.504   5.861  12.240  0.8026 -2.9962 -0.4906
  929SOL    HW2 4229   4.640   5.926  12.238 -0.2180 -0.7895 -1.6854
  930SOL     OW 4230   4.453   1.340   6.343  0.2210  0.5336 -0.5776
  930SOL    HW1 4231   4.525   1.402   6.328  0.3881  0.4619 -0.1017
  930SOL    HW2 4232   4.412   1.371   6.423  1.6340 -1.1711  0.8957
  931SOL     OW 4233   5.922   7.707   2.186 -0.0796  0.2881  0.2518
  931SOL    HW1 4234   5.835   7.671   2.204  0.4866 -0.2080  2.2428
  931SOL    HW2 4235   5.913   7.801   2.203 -1.1099  0.9446 -3.2321
  932SOL     OW 4236   1.670   0.606   8.491 -0.2911  0.2799  0.5714
  932SOL    HW1 4237   1.603   0.639   8.430  0.6757  0.2633 -0.5321
  932SOL    HW2 4238   1.639   0.634   8.577 -2.3095 -0.7042  0.2373
  933SOL     OW 4239   7.086   4.531   7.376 -0.4178  0.5882  0.2496
  933SOL    HW1 4240   7.082   4.463   7.442  1.0530 -0.9447 -1.1277
  933SOL    HW2 4241   7.086   4.613   7.425 -0.3887 -0.4538  2.0629
  934SOL     OW 4242   1.346   3.938   6.241  0.1463 -0.2543  0.6870
  934SOL    HW1 4243   1.365   3.858   6.192  0.4619 -0.4654  1.1491
  934SOL    HW2 4244   1.286   3.987   6.184  1.7056  0.2280 -0.6121
  935SOL     OW 4245   2.181   3.872   7.430  0.2900  0.7268  0.2314
  935SOL    HW1 4246   2.125   3.943   7.399 -1.3073 -1.0789 -1.2364
  935SOL    HW2 4247   2.131   3.832   7.502  0.1494 -0.2030 -0.3609
  936SOL     OW 4248   0.563   5.741  12.064 -0.9708  0.0927 -0.7278
  936SOL    HW1 4249   0.607   5.759  12.147 -3.1062  1.5198  0.1728
  936SOL    HW2 4250   0.581   5.817  12.009 -1.0876 -0.0022 -0.8989
  937SOL     OW 4251   3.290   3.933   4.736  0.3734  0.6346 -0.5563
  937SOL    HW1 4252   3.237   4.002   4.695  0.2752  1.2310  0.5312
  937SOL    HW2 4253   3.231   3.893   4.800  0.7970  0.3405 -0.3490
  938SOL     OW 4254   4.695   3.361  12.148 -0.1296 -0.2670  0.8094
  938SOL    HW1 4255   4.725   3.438  12.099  0.9078 -1.6424 -0.8546
  938SOL    HW2 4256   4.731   3.373  12.235  0.3627  0.9318  0.4674
  939SOL     OW 4257   4.762   2.535   2.723 -0.0498 -0.0173  0.0088
  939SOL    HW1 4258   4.853   2.563   2.724 -0.2180  0.5958 -0.9107
  939SOL    HW2 4259   4.754   2.478   2.647 -0.2006 -0.9405  0.6888
  940SOL     OW 4260   2.236   4.361   0.139 -0.7579 -0.8459  0.1440
  940SOL    HW1 4261   2.177   4.286   0.131 -1.7760  0.0101 -0.9448
  940SOL    HW2 4262   2.218   4.413   0.060  0.0863  0.4132  0.7516
  941SOL     OW 4263   1.714   4.382   3.135  0.0917  0.0122 -0.5334
  941SOL    HW1 4264   1.652   4.448   3.105 -0.0621  0.2611  0.3107
  941SOL    HW2 4265   1.797   4.408   3.096  0.2198  1.2228  0.4701
  942SOL     OW 4266   0.172   6.151   7.829 -0.4296  0.1112 -0.5288
  942SOL    HW1 4267   0.220   6.160   7.746 -0.8453 -1.2714 -0.9441
  942SOL    HW2 4268   0.239   6.140   7.895 -0.0278  2.4076 -0.4622
  943SOL     OW 4269   1.490   3.441   2.364  0.1052 -0.0942 -0.8437
  943SOL    HW1 4270   1.477   3.348   2.344 -2.0620 -0.6370  2.3342
  943SOL    HW2 4271   1.421   3.486   2.315 -0.6804 -0.5446 -0.1761
  944SOL     OW 4272   0.724   3.647  10.331  0.4002 -0.3604  0.2918
  944SOL    HW1 4273   0.733   3.675  10.422 -0.5532  1.0903 -0.0295
  944SOL    HW2 4274   0.629   3.641  10.317  0.4656  1.1180 -1.0741
  945SOL     OW 4275   5.811   0.242  10.229  0.3392 -0.2974 -0.5926
  945SOL    HW1 4276   5.867   0.319  10.238  0.7320 -0.2922 -2.6134
  945SOL    HW2 4277   5.729   0.276  10.194 -0.1835 -0.5814  0.3285
  946SOL     OW 4278   7.139   1.567   8.418  0.2862 -0.1126 -0.0675
  946SOL    HW1 4279   7.201   1.629   8.379  0.1120 -1.2453 -2.3229
  946SOL    HW2 4280   7.182   1.482   8.409 -1.3276 -0.8649 -1.2425
  947SOL     OW 4281   1.515   4.388   7.235 -0.0207  0.1492 -0.4160
  947SOL    HW1 4282   1.436   4.414   7.188  0.2920 -1.0463 -1.6703
  947SOL    HW2 4283   1.585   4.437   7.192  0.4518 -1.9391 -2.2061
  948SOL     OW 4284   1.521   1.540   9.730  0.2255 -0.1383  0.1053
  948SOL    HW1 4285   1.561   1.540   9.817  0.4758  0.2573 -0.0047
  948SOL    HW2 4286   1.427   1.538   9.747  0.2037  1.7001  0.4365
  949SOL     OW 4287   5.706   3.642  11.232  0.4570  0.2236  0.2471
  949SOL    HW1 4288   5.773   3.587  11.192 -0.4476 -1.5737  1.0925
  949SOL    HW2 4289   5.710   3.724  11.183  1.2482 -0.8960 -1.6888
  950SOL     OW 4290   3.354   6.404   4.486  0.0621  0.2214  0.0517
  950SOL    HW1 4291   3.270   6.417   4.441  0.2402  0.7528 -0.1301
  950SOL    HW2 4292   3.395   6.331   4.438  0.5739  1.2597 -1.1474
  951SOL     OW 4293   6.551   2.068   9.038  0.1508  0.7840 -0.1968
  951SOL    HW1 4294   6.545   1.984   8.992 -2.2140  0.0014  1.3388
  951SOL    HW2 4295   6.500   2.055   9.118 -0.5630  3.7899 -0.0384
  952SOL     OW 4296   4.204   0.097   8.285  0.1265 -0.1393  0.0912
  952SOL    HW1 4297   4.172   0.082   8.196  3.7572  1.0055 -1.6063
  952SOL    HW2 4298   4.150   0.041   8.340 -2.8431 -0.2609 -2.6879
  953SOL     OW 4299   1.886   5.169   2.491  0.0739 -0.1447 -0.0169
  953SOL    HW1 4300   1.835   5.122   2.424 -0.9112  0.2327  0.4504
  953SOL    HW2 4301   1.968   5.120   2.498 -1.0656 -2.0385  0.7268
  954SOL     OW 4302   3.259   0.261  10.872 -0.1472  0.0002 -0.1704
  954SOL    HW1 4303   3.171   0.225  10.856  0.2837 -2.7262  2.6602
  954SOL    HW2 4304   3.244   0.333  10.933 -0.4313 -1.1159  1.1326
  955SOL     OW 4305   3.792   5.326   8.385 -0.2247 -0.3424  0.6915
  955SOL    HW1 4306   3.884   5.322   8.412 -0.1320 -0.8456  0.3014
  955SOL    HW2 4307   3.750   5.377   8.455  0.1887 -0.8320  1.3123
  956SOL     OW 4308   7.299   4.743   3.664 -0.9623 -0.5837  0.4853
  956SOL    HW1 4309   7.384   4.769   3.629 -0.0179 -1.8901  1.6837
  956SOL    HW2 4310   7.280   4.659   3.624 -2.1261  0.0618 -0.4005
  957SOL     OW 4311   6.735   6.853   1.164 -0.0475 -0.0936 -0.5371
  957SOL    HW1 4312   6.652   6.901   1.163  0.4323  0.8201  0.6270
  957SOL    HW2 4313   6.767   6.858   1.074 -0.5163  0.9201 -0.6655
  958SOL     OW 4314   5.368   4.053  11.022  0.0897 -0.3480  0.3847
  958SOL    HW1 4315   5.364   3.979  11.083  0.8446 -1.0722 -0.4008
  958SOL    HW2 4316   5.376   4.012  10.936  0.2551  0.6585 -0.0930
  959SOL     OW 4317   0.182   6.799   3.528  0.1395  0.2957  0.1972
  959SOL    HW1 4318   0.106   6.771   3.578 -1.1662  0.9103 -1.3372
  959SOL    HW2 4319   0.255   6.748   3.563 -0.7064  0.6397  2.6005
  960SOL     OW 4320   5.692   5.531   3.798 -0.8770 -0.3705 -0.2084
  960SOL    HW1 4321   5.688   5.624   3.817  1.6346  0.3646 -2.5413
  960SOL    HW2 4322   5.618   5.514   3.740 -1.4517  0.1050  0.3777
  961SOL     OW 4323   0.211   3.743  11.839  0.0141 -0.1668  0.6929
  961SOL    HW1 4324   0.203   3.838  11.844  0.5121 -0.2057  3.0731
  961SOL    HW2 4325   0.303   3.728  11.818 -0.3036 -0.1685 -0.8998
  962SOL     OW 4326   4.638   2.011  10.795  0.2447 -0.1819 -0.4295
  962SOL    HW1 4327   4.570   1.945  10.786 -0.0744  0.1970 -0.8889
  962SOL    HW2 4328   4.593   2.094  10.777  0.9912  0.0008 -1.5996
  963SOL     OW 4329   2.709   2.933   2.059  0.4610  0.2799 -0.6532
  963SOL    HW1 4330   2.697   2.863   1.994  0.7883 -0.3864 -0.0220
  963SOL    HW2 4331   2.686   2.892   2.142 -0.4657  1.2778 -0.4031
  964SOL     OW 4332   2.167   3.956   3.833 -0.2216 -0.0148 -0.0688
  964SOL    HW1 4333   2.159   4.047   3.859  1.5762  0.1733  0.0110
  964SOL    HW2 4334   2.199   3.912   3.912  0.7139 -0.3430 -0.6147
  965SOL     OW 4335   7.224   3.858   5.144  0.1824  0.0479  0.0587
  965SOL    HW1 4336   7.318   3.863   5.162  0.3183 -0.1721 -0.5660
  965SOL    HW2 4337   7.203   3.765   5.152 -0.0431  0.1287  0.4625
  966SOL     OW 4338   5.554   5.027   8.383 -0.0549 -0.2650 -0.7159
  966SOL    HW1 4339   5.636   5.001   8.426  0.7005 -1.8632 -2.9706
  966SOL    HW2 4340   5.581   5.088   8.315 -0.7161 -0.8122 -1.4873
  967SOL     OW 4341   1.919   7.297   3.177 -0.2986 -0.3477  0.2927
  967SOL    HW1 4342   1.881   7.382   3.200  0.8804  0.4950 -0.7123
  967SOL    HW2 4343   2.013   7.312   3.175  0.1279 -2.2674  2.2382
  968SOL     OW 4344   0.637   4.945   2.603 -0.0314  0.0625  0.4906
  968SOL    HW1 4345   0.701   4.932   2.673  0.1633 -0.3581  0.2395
  968SOL    HW2 4346   0.636   5.039   2.589  2.2002 -0.0662 -1.0398
  969SOL     OW 4347   7.917   6.847   3.028  0.4155  0.7568 -0.4408
  969SOL    HW1 4348   7.963   6.828   2.946  0.4397  1.0281 -0.4907
  969SOL    HW2 4349   7.838   6.894   3.000 -0.7539 -1.1421 -0.5047
  970SOL     OW 4350   2.903   4.171  10.959  0.0444  0.3972  0.0124
  970SOL    HW1 4351   2.813   4.202  10.943 -0.2489 -0.2863  0.2940
  970SOL    HW2 4352   2.956   4.221  10.897  0.1079  3.9806  2.6614
  971SOL     OW 4353   3.060   3.143   1.330  0.7742 -0.5186 -0.3441
  971SOL    HW1 4354   3.144   3.103   1.352  1.2473 -0.4367 -1.9053
  971SOL    HW2 4355   3.059   3.226   1.379  1.3089 -0.8240  0.1930
  972SOL     OW 4356   6.296   3.232   1.946 -0.1144  0.0053 -0.1914
  972SOL    HW1 4357   6.323   3.323   1.933  1.0543 -0.7507 -4.6213
  972SOL    HW2 4358   6.378   3.182   1.941 -0.9593 -1.4589  0.0704
  973SOL     OW 4359   2.127   6.781   8.210 -0.4049  0.0747 -0.1003
  973SOL    HW1 4360   2.034   6.798   8.195 -0.6437 -0.2991  0.8691
  973SOL    HW2 4361   2.168   6.868   8.209 -0.8421  0.2846 -0.0511
  974SOL     OW 4362   2.851   4.444   6.621  0.0231 -0.1014 -0.1953
  974SOL    HW1 4363   2.905   4.382   6.671 -0.6204 -1.8815 -1.5820
  974SOL    HW2 4364   2.894   4.451   6.536 -0.9144 -0.0949 -0.6851
  975SOL     OW 4365   0.814   5.625   3.100  0.1482  0.4812 -0.0600
  975SOL    HW1 4366   0.814   5.575   3.019  0.7487  1.8568 -0.9647
  975SOL    HW2 4367   0.853   5.567   3.165 -0.0070 -0.5178 -0.8469
  976SOL     OW 4368   7.205   0.394   4.557  0.1918 -0.0119  0.5535
  976SOL    HW1 4369   7.159   0.473   4.530  0.7409 -0.2086 -1.0842
  976SOL    HW2 4370   7.274   0.383   4.491  0.7898 -1.2656  1.3505
  977SOL     OW 4371   2.859   6.091   5.357  0.5411 -0.0554  0.3719
  977SOL    HW1 4372   2.936   6.034   5.348 -0.3561 -1.0305 -1.7148
  977SOL    HW2 4373   2.809   6.053   5.429  1.4038 -0.1184  0.9573
  978SOL     OW 4374   1.745   3.636   9.131 -0.1131 -0.0485  0.1495
  978SOL    HW1 4375   1.782   3.558   9.172  0.9885 -0.0289 -0.7242
  978SOL    HW2 4376   1.706   3.604   9.050 -0.3186  0.1965  0.1515
  979SOL     OW 4377   3.760   1.070   7.282 -0.8196  0.8556  0.2075
  979SOL    HW1 4378   3.851   1.097   7.286 -1.1837  1.9846  1.3288
  979SOL    HW2 4379   3.717   1.136   7.228 -0.6625 -0.6988 -1.9344
  980SOL     OW 4380   4.492   0.585   9.837  0.1429  0.1196  0.2451
  980SOL    HW1 4381   4.510   0.635   9.757 -0.3904  0.3313  0.2481
  980SOL    HW2 4382   4.448   0.648   9.894  0.1699 -0.1417  0.5529
  981SOL     OW 4383   0.433   6.890   0.907 -0.0466 -0.0675  0.6190
  981SOL    HW1 4384   0.424   6.795   0.914  0.8491 -0.1548  0.6731
  981SOL    HW2 4385   0.345   6.920   0.882  0.0644 -1.0733 -1.1692
  982SOL     OW 4386   5.410   1.664   6.360 -0.2620 -0.3931 -0.0606
  982SOL    HW1 4387   5.360   1.739   6.329 -1.7555 -1.5687 -0.6891
  982SOL    HW2 4388   5.492   1.700   6.393 -0.2473  1.3245 -1.8131
  983SOL     OW 4389   7.762   3.857   8.380  0.5365  0.1448 -0.3632
  983SOL    HW1 4390   7.709   3.817   8.449  0.2888 -0.2709 -0.7844
  983SOL    HW2 4391   7.721   3.827   8.299  1.8814 -0.8377 -0.7234
  984SOL     OW 4392   5.044   1.869   4.474 -0.0443  0.3961  0.5428
  984SOL    HW1 4393   5.044   1.923   4.394  0.2855 -0.5928 -0.1448
  984SOL    HW2 4394   5.137   1.856   4.493 -0.1011 -0.8467  0.0495
  985SOL     OW 4395   0.135   5.661   1.833 -0.0479  0.1602  0.2012
  985SOL    HW1 4396   0.162   5.721   1.765 -1.2774  1.3435  0.7099
  985SOL    HW2 4397   0.121   5.578   1.788  1.2929  0.3345 -0.5794
  986SOL     OW 4398   7.876   4.587   8.230 -0.0949  0.2021  0.5818
  986SOL    HW1 4399   7.937   4.579   8.303  1.2952 -1.8121 -0.7196
  986SOL    HW2 4400   7.929   4.573   8.152 -1.2181  3.8928 -1.0450
  987SOL     OW 4401   6.145   6.658  11.835 -0.1858  0.2795  0.2372
  987SOL    HW1 4402   6.157   6.597  11.762 -0.0583  2.2534 -1.5101
  987SOL    HW2 4403   6.148   6.604  11.913 -0.0214 -1.9104 -1.2085
  988SOL     OW 4404   7.062   7.913   0.032 -0.6230 -0.1343 -0.1166
  988SOL    HW1 4405   7.150   7.908  -0.004 -0.8918  0.2631 -0.8460
  988SOL    HW2 4406   7.007   7.866  -0.030 -1.2450  1.3628 -0.7627
  989SOL     OW 4407   2.964   7.680  10.817  0.1578 -0.1675 -0.4266
  989SOL    HW1 4408   2.949   7.610  10.754 -0.8934 -1.2855  1.0038
  989SOL    HW2 4409   2.900   7.748  10.793 -1.7370 -1.4871  0.6806
  990SOL     OW 4410   6.956   4.921   1.628  0.3505  0.5995 -0.4332
  990SOL    HW1 4411   6.865   4.947   1.640  1.0156  3.5048 -0.9454
  990SOL    HW2 4412   6.957   4.877   1.543 -0.7455 -0.7936  0.2199
  991SOL     OW 4413   5.564   0.198   5.868 -0.0331 -0.2031 -0.1286
  991SOL    HW1 4414   5.642   0.254   5.865 -0.6581  0.6795 -0.0546
  991SOL    HW2 4415   5.591   0.119   5.822  0.3963  0.7517 -1.5841
  992SOL     OW 4416   4.787   5.176   5.278 -0.1532 -0.6798  0.0182
  992SOL    HW1 4417   4.723   5.135   5.337  2.8480 -2.0800  2.5727
  992SOL    HW2 4418   4.790   5.268   5.305 -0.8534 -0.6623  0.0578
  993SOL     OW 4419   3.375   3.764   4.253  0.5057 -0.0500 -0.2919
  993SOL    HW1 4420   3.440   3.750   4.184  0.6729  0.8040 -0.3192
  993SOL    HW2 4421   3.423   3.808   4.323  0.0786  0.1202 -0.0993
  994SOL     OW 4422   1.288   6.894   4.523 -0.2475  0.2212  0.4231
  994SOL    HW1 4423   1.194   6.909   4.537 -0.7371  0.5902 -2.4773
  994SOL    HW2 4424   1.300   6.801   4.541 -1.9659 -0.6332 -2.1340
  995SOL     OW 4425   6.443   0.015   2.616 -0.3254 -0.3520  0.3526
  995SOL    HW1 4426   6.492   0.082   2.663 -0.7997 -0.2214  0.6786
  995SOL    HW2 4427   6.452   0.038   2.524  0.9651 -0.8498  0.3299
  996SOL     OW 4428   5.772   3.008   5.849  0.1963  0.3275 -0.6338
  996SOL    HW1 4429   5.696   3.020   5.793 -0.6570 -1.5143  0.0328
  996SOL    HW2 4430   5.764   2.918   5.881  0.2747  1.4328  2.9559
  997SOL     OW 4431   3.342   0.472   6.383 -0.5019 -0.0412  0.1438
  997SOL    HW1 4432   3.258   0.516   6.377 -0.2984  0.4403  0.7261
  997SOL    HW2 4433   3.365   0.451   6.292 -1.9671 -1.5830  0.0774
  998SOL     OW 4434   1.202   0.459   0.249 -0.2766 -0.1410 -0.9593
  998SOL    HW1 4435   1.262   0.459   0.324  0.4698  2.5821 -1.4377
  998SOL    HW2 4436   1.244   0.400   0.186 -0.5882 -1.9623  0.4574
  999SOL     OW 4437   1.684   2.863   6.851  0.8241 -0.7282 -0.0433
  999SOL    HW1 4438   1.723   2.932   6.904  1.0223  0.6466 -1.8686
  999SOL    HW2 4439   1.600   2.846   6.892 -0.0022  1.8661 -0.4702
 1000SOL     OW 4440   7.525   3.253   6.404 -0.3284  0.6893  0.1492
 1000SOL    HW1 4441   7.611   3.213   6.392  0.2493  1.5679  1.1898
 1000SOL    HW2 4442   7.464   3.191   6.364  0.5525 -1.1477  1.4854
 1001SOL     OW 4443   0.323   3.917   6.548  0.2740  0.2459 -0.1626
 1001SOL    HW1 4444   0.304   4.011   6.544 -0.0760  0.1203 -2.1162
 1001SOL    HW2 4445   0.297   3.883   6.463  1.3019 -1.4720  0.1607
 1002SOL     OW 4446   4.134   1.551   9.651 -0.4026  0.1334 -0.2317
 1002SOL    HW1 4447   4.170   1.544   9.740 -1.1726 -2.0431 -0.0398
 1002SOL    HW2 4448   4.200   1.511   9.595 -0.2491  0.8388 -0.5701
 1003SOL     OW 4449   5.295   3.291   8.841  0.5766 -0.0881  0.1635
 1003SOL    HW1 4450   5.265   3.226   8.778  1.2103  0.7016 -0.9831
 1003SOL    HW2 4451   5.222   3.354   8.848 -0.3030 -1.2054  1.7626
 1004SOL     OW 4452   6.120   5.952   2.283 -0.3897 -0.5169  0.1578
 1004SOL    HW1 4453   6.214   5.938   2.296  0.2329  0.5166 -2.6097
 1004SOL    HW2 4454   6.091   5.996   2.362  1.6611 -0.0520  0.7007
 1005SOL     OW 4455   1.872   0.544   8.185 -0.6236 -0.3091  0.7902
 1005SOL    HW1 4456   1.896   0.469   8.131  0.2815  0.2028  0.4686
 1005SOL    HW2 4457   1.917   0.529   8.268  1.5751  1.0462 -0.0783
 1006SOL     OW 4458   5.264   2.449  12.159 -0.4200 -0.7290  0.4213
 1006SOL    HW1 4459   5.352   2.422  12.132 -0.1545  1.5798 -1.3313
 1006SOL    HW2 4460   5.278   2.521  12.221 -0.9957  0.4390 -0.7405
 1007SOL     OW 4461   0.843   5.367   6.411  0.5222 -0.6780  0.6269
 1007SOL    HW1 4462   0.902   5.434   6.445 -0.3751  0.2662  0.3583
 1007SOL    HW2 4463   0.867   5.359   6.318  0.0029 -0.0282  0.4284
 1008SOL     OW 4464   4.557   6.506   4.821  0.2752 -0.4917  0.3555
 1008SOL    HW1 4465   4.515   6.573   4.874  1.6515  0.6436  0.0665
 1008SOL    HW2 4466   4.543   6.534   4.731 -0.1947 -1.2534  0.1889
 1009SOL     OW 4467   2.457   1.180   9.934 -0.1229 -0.5402 -0.6184
 1009SOL    HW1 4468   2.470   1.262   9.886 -1.5364  0.6895  0.9365
 1009SOL    HW2 4469   2.397   1.129   9.880  0.3337 -0.3089 -1.3543
 1010SOL     OW 4470   1.158   5.405   0.976 -0.0265  0.5760 -0.1433
 1010SOL    HW1 4471   1.094   5.458   1.023  0.6918  2.5399 -1.2721
 1010SOL    HW2 4472   1.145   5.316   1.010 -2.5358  1.1067  0.4831
 1011SOL     OW 4473   6.611   7.369   3.589 -0.7738  0.1835  0.9063
 1011SOL    HW1 4474   6.591   7.279   3.615  0.3800 -0.8327 -1.3732
 1011SOL    HW2 4475   6.688   7.392   3.640 -0.9212 -0.2150  1.3188
 1012SOL     OW 4476   0.308   6.167  11.877  0.5600  0.0545 -0.4019
 1012SOL    HW1 4477   0.311   6.201  11.788  0.1204  2.1574  0.3336
 1012SOL    HW2 4478   0.218   6.180  11.906  1.1995  1.5117  1.0895
 1013SOL     OW 4479   7.814   2.742   2.160 -0.6989 -0.1168 -0.2922
 1013SOL    HW1 4480   7.810   2.831   2.124 -1.1509 -0.1071 -0.2189
 1013SOL    HW2 4481   7.907   2.730   2.182 -0.8667  0.8837  1.0610
 1014SOL     OW 4482   5.889   3.781   1.801  0.1640  0.3717  1.0018
 1014SOL    HW1 4483   5.876   3.818   1.889  2.2873 -0.2711  1.6529
 1014SOL    HW2 4484   5.975   3.813   1.774 -0.5201  0.6890 -0.9573
 1015SOL     OW 4485   2.730   3.947   4.418  0.5562  0.0773  0.3155
 1015SOL    HW1 4486   2.791   3.979   4.485  1.2364 -0.9448  0.1892
 1015SOL    HW2 4487   2.651   3.925   4.467  0.5381  0.6934  0.5789
 1016SOL     OW 4488   5.900   1.854   9.922  0.3242 -0.2608  0.2081
 1016SOL    HW1 4489   5.824   1.802   9.896  0.2507 -0.2458  0.3942
 1016SOL    HW2 4490   5.884   1.875  10.014  0.8187 -0.7269  0.4058
 1017SOL     OW 4491   2.301   0.100   8.012  0.0273  0.1343  0.1059
 1017SOL    HW1 4492   2.341   0.074   8.095  0.1768 -0.9895 -0.3101
 1017SOL    HW2 4493   2.206   0.096   8.029  0.0344 -1.2655 -0.1167
 1018SOL     OW 4494   4.209   5.861   5.711  0.2052 -0.0090 -0.5442
 1018SOL    HW1 4495   4.121   5.823   5.717 -0.3988  1.5204  1.8738
 1018SOL    HW2 4496   4.251   5.837   5.793  0.6245  2.4646  0.0308
 1019SOL     OW 4497   1.744   6.070   9.320 -0.2081  0.8293  0.5111
 1019SOL    HW1 4498   1.784   6.011   9.257 -1.1547 -0.7676  1.3455
 1019SOL    HW2 4499   1.818   6.111   9.365  0.5426 -1.5279  1.5489
 1020SOL     OW 4500   4.816   7.451   6.156  0.0358 -0.2654 -0.5026
 1020SOL    HW1 4501   4.843   7.420   6.070  0.6517  0.6591 -0.6527
 1020SOL    HW2 4502   4.867   7.397   6.217 -0.2996 -0.8268 -0.7171
 1021SOL     OW 4503   6.003   6.940   4.011  0.2478 -0.7772 -0.1721
 1021SOL    HW1 4504   6.082   6.913   4.057  1.7734  2.2862 -0.7175
 1021SOL    HW2 4505   6.012   6.903   3.923  0.5083 -1.4011  0.1173
 1022SOL     OW 4506   0.454   7.222   6.532 -0.1163 -0.1193  0.1330
 1022SOL    HW1 4507   0.378   7.164   6.544  0.5603 -0.9343  0.5749
 1022SOL    HW2 4508   0.492   7.194   6.449  0.4354 -0.5782  0.5344
 1023SOL     OW 4509   6.166   6.945   1.373  0.0476  0.2104  0.3461
 1023SOL    HW1 4510   6.231   6.945   1.443 -0.9631  0.1525  1.3152
 1023SOL    HW2 4511   6.132   6.856   1.371  1.2720 -0.2610 -1.4135
 1024SOL     OW 4512   0.193   5.742   0.733 -0.0405  0.3925  0.0648
 1024SOL    HW1 4513   0.177   5.653   0.764 -2.1117  0.5491 -0.4112
 1024SOL    HW2 4514   0.107   5.783   0.732  0.8421  2.3653  0.0973
 1025SOL     OW 4515   7.748   3.009  11.638 -0.0458 -0.2931 -0.6529
 1025SOL    HW1 4516   7.673   2.955  11.660  1.0732 -1.6035  0.1027
 1025SOL    HW2 4517   7.808   2.950  11.593  1.1948  0.2873  0.1638
 1026SOL     OW 4518   0.737   7.093   2.229 -0.3330  0.0454  0.3550
 1026SOL    HW1 4519   0.767   7.110   2.318  0.3844  0.2580  0.0800
 1026SOL    HW2 4520   0.812   7.116   2.173 -0.6595 -0.3944 -0.2820
 1027SOL     OW 4521   6.900   1.315   2.097 -0.2456  0.1603  0.1161
 1027SOL    HW1 4522   6.819   1.315   2.046  0.4292 -0.1675 -0.9944
 1027SOL    HW2 4523   6.883   1.256   2.170 -1.2552  0.6780  0.3120
 1028SOL     OW 4524   5.231   7.738   9.902  0.3518  0.1366  0.1992
 1028SOL    HW1 4525   5.299   7.686   9.945  1.2138  1.9695  1.1809
 1028SOL    HW2 4526   5.151   7.716   9.950  1.0527  1.0975  1.9326
 1029SOL     OW 4527   7.967   3.757  12.091 -0.2656  0.3918  0.2832
 1029SOL    HW1 4528   7.896   3.694  12.082  0.6266 -0.4988 -0.8053
 1029SOL    HW2 4529   8.039   3.707  12.130 -0.0169  1.1204  0.7924
 1030SOL     OW 4530   1.521   6.262  10.581 -0.1461  0.0431 -0.3504
 1030SOL    HW1 4531   1.446   6.312  10.614  0.5154  0.5719  0.4004
 1030SOL    HW2 4532   1.488   6.173  10.570 -1.0347  0.3922 -0.5919
 1031SOL     OW 4533   6.322   7.911   8.878 -0.2314 -0.0844 -0.5538
 1031SOL    HW1 4534   6.252   7.913   8.812 -0.1853  2.3509 -0.6161
 1031SOL    HW2 4535   6.396   7.952   8.834  0.8844 -1.4898 -0.0551
 1032SOL     OW 4536   7.010   6.367   5.911 -0.0012 -0.3114 -0.3319
 1032SOL    HW1 4537   7.042   6.339   5.825 -0.3078 -0.3005 -0.4516
 1032SOL    HW2 4538   6.922   6.402   5.893 -0.0714 -0.3255 -0.0118
 1033SOL     OW 4539   6.129   2.519  10.434  0.2642  0.1551 -0.4545
 1033SOL    HW1 4540   6.149   2.427  10.416 -0.0345  0.0917 -0.4711
 1033SOL    HW2 4541   6.074   2.517  10.513  0.8843  0.3735  0.0008
 1034SOL     OW 4542   2.092   5.753   4.788  0.3946  0.5428  0.0034
 1034SOL    HW1 4543   2.003   5.787   4.779  0.1217 -0.0635  0.3744
 1034SOL    HW2 4544   2.139   5.791   4.714 -0.3007  0.4451 -0.5029
 1035SOL     OW 4545   5.640   5.429   6.333  0.5502 -0.0427 -0.3484
 1035SOL    HW1 4546   5.656   5.361   6.399  1.3224  0.6508  0.2097
 1035SOL    HW2 4547   5.714   5.489   6.343  1.0613 -0.2920 -2.3582
 1036SOL     OW 4548   1.544   6.236   2.923 -0.1982 -0.2413 -0.4055
 1036SOL    HW1 4549   1.461   6.277   2.947  0.3500  1.6535 -1.5669
 1036SOL    HW2 4550   1.571   6.188   3.002 -0.0005  3.1306  1.7451
 1037SOL     OW 4551   5.538   4.653   0.446 -0.2912 -0.1361  0.2545
 1037SOL    HW1 4552   5.548   4.626   0.355 -1.9495  0.8201 -0.2684
 1037SOL    HW2 4553   5.593   4.731   0.454  1.7011 -1.5417  0.7687
 1038SOL     OW 4554   5.967   6.470   1.141  0.3291  0.5733  0.8910
 1038SOL    HW1 4555   5.967   6.435   1.052  0.0866  0.9260  0.7500
 1038SOL    HW2 4556   5.961   6.393   1.197 -0.8140  0.4179  0.5710
 1039SOL     OW 4557   1.513   4.311   8.439  0.0063  0.0125  0.0981
 1039SOL    HW1 4558   1.456   4.319   8.516 -1.4211 -0.0589 -0.9046
 1039SOL    HW2 4559   1.488   4.385   8.384 -0.1784 -0.8693 -1.0329
 1040SOL     OW 4560   2.227   4.221   8.747  0.3828  0.6239 -0.6565
 1040SOL    HW1 4561   2.252   4.313   8.749 -1.5485  1.1881  0.8358
 1040SOL    HW2 4562   2.310   4.174   8.757  1.4569  2.1552 -1.9316
 1041SOL     OW 4563   6.850   6.403   8.103  0.0884  0.1787  0.9639
 1041SOL    HW1 4564   6.765   6.381   8.066 -0.3463  2.8383  0.1901
 1041SOL    HW2 4565   6.892   6.318   8.119 -2.3451 -1.1701  0.5827
 1042SOL     OW 4566   5.048   5.356   6.632 -0.4568  0.4825  0.4356
 1042SOL    HW1 4567   5.112   5.378   6.699  2.2657 -1.6654 -1.2455
 1042SOL    HW2 4568   5.063   5.419   6.561 -0.1295 -0.0366  0.0304
 1043SOL     OW 4569   3.529   0.025   1.138  0.0652 -0.1215 -0.8003
 1043SOL    HW1 4570   3.450   0.077   1.130  0.3666  0.0551 -4.8938
 1043SOL    HW2 4571   3.586   0.057   1.068  1.8790 -3.2727 -0.9703
 1044SOL     OW 4572   1.230   0.814  10.580  0.3031 -0.2067 -0.3659
 1044SOL    HW1 4573   1.257   0.727  10.608  1.0247 -0.5994 -2.1807
 1044SOL    HW2 4574   1.175   0.846  10.652 -0.0351 -2.1691  0.3088
 1045SOL     OW 4575   4.974   7.566   7.271 -0.3336 -0.2320 -0.0551
 1045SOL    HW1 4576   4.941   7.489   7.224 -0.1750 -0.8328  0.7770
 1045SOL    HW2 4577   4.980   7.537   7.362  0.4359  0.5390  0.1572
 1046SOL     OW 4578   6.624   7.087   5.426  0.1181  0.0609  0.0246
 1046SOL    HW1 4579   6.612   6.992   5.428 -0.5326  0.1413  0.4945
 1046SOL    HW2 4580   6.590   7.113   5.341  1.1139 -0.2197 -0.4719
 1047SOL     OW 4581   2.909   1.557   1.639  0.4477  0.3875 -0.0117
 1047SOL    HW1 4582   2.997   1.576   1.673  0.4577 -0.6082  0.5466
 1047SOL    HW2 4583   2.924   1.499   1.565  0.3716  1.9277 -1.2897
 1048SOL     OW 4584   6.916   7.379   3.471  0.0385  0.4160  0.3271
 1048SOL    HW1 4585   7.002   7.342   3.491 -0.3061 -0.7106 -0.1787
 1048SOL    HW2 4586   6.886   7.416   3.554  0.9141  0.6515  0.5563
 1049SOL     OW 4587   4.993   6.562   2.579 -0.4225 -0.1916  0.0072
 1049SOL    HW1 4588   4.898   6.561   2.590 -0.7613 -1.0211 -2.5039
 1049SOL    HW2 4589   5.020   6.647   2.613 -1.9960 -0.0969  1.1040
 1050SOL     OW 4590   7.445   7.909   5.747 -0.1170  0.1500  0.5163
 1050SOL    HW1 4591   7.435   7.987   5.692  1.0129  0.8925  1.3148
 1050SOL    HW2 4592   7.426   7.939   5.836 -2.6478 -1.2068  0.5246
 1051SOL     OW 4593   7.405   1.940   0.688 -0.1849  0.0247 -0.8938
 1051SOL    HW1 4594   7.388   1.870   0.624  1.5524  1.4197 -3.0081
 1051SOL    HW2 4595   7.487   1.980   0.659 -1.1591  3.0415  0.1577
 1052SOL     OW 4596   2.992   6.375   2.347 -0.0937  0.0560  0.0607
 1052SOL    HW1 4597   2.946   6.423   2.278 -0.2039  0.3771  0.3597
 1052SOL    HW2 4598   3.053   6.438   2.385 -0.3757  0.0217  0.5798
 1053SOL     OW 4599   6.107   1.449   3.066  0.2249 -0.2738 -0.1336
 1053SOL    HW1 4600   6.131   1.449   3.159  0.6741 -1.5594 -0.2316
 1053SOL    HW2 4601   6.021   1.490   3.064  0.4923  0.3720  0.7735
 1054SOL     OW 4602   7.085   3.312  11.256  0.1492  0.2764 -0.2275
 1054SOL    HW1 4603   7.135   3.394  11.256 -1.1925  1.1235 -0.7305
 1054SOL    HW2 4604   7.143   3.250  11.211  1.1927  0.9291  0.1619
 1055SOL     OW 4605   7.824   2.431  12.002 -0.3571 -0.4626  0.0967
 1055SOL    HW1 4606   7.741   2.476  11.987 -0.1232  0.1375  0.5794
 1055SOL    HW2 4607   7.863   2.476  12.077  0.9635  0.0619 -0.8663
 1056SOL     OW 4608   2.066   5.387   2.508  0.4739 -1.0403  0.0202
 1056SOL    HW1 4609   2.076   5.397   2.603 -2.6591 -0.7535  0.4402
 1056SOL    HW2 4610   2.007   5.312   2.499 -1.8058  0.8130 -1.4616
 1057SOL     OW 4611   2.873   5.455   3.816 -0.3964  0.3279 -0.0743
 1057SOL    HW1 4612   2.849   5.440   3.725  0.6332  0.1545 -0.3212
 1057SOL    HW2 4613   2.807   5.517   3.848  1.2688  3.3485 -1.9948
 1058SOL     OW 4614   0.533   1.028   0.825  0.6259 -0.3463 -0.0523
 1058SOL    HW1 4615   0.498   1.021   0.737 -0.2118  2.9225 -0.0836
 1058SOL    HW2 4616   0.456   1.023   0.882  0.7292  1.0465  0.2371
 1059SOL     OW 4617   2.851   1.284   7.177  0.1020 -0.5784 -0.4600
 1059SOL    HW1 4618   2.899   1.248   7.103 -1.3930 -1.1151 -1.1928
 1059SOL    HW2 4619   2.765   1.242   7.173  0.5214 -2.0370  2.6264
 1060SOL     OW 4620   2.200   2.252   1.639 -0.3067 -0.1572 -0.4347
 1060SOL    HW1 4621   2.188   2.299   1.556  0.3346  0.7240 -0.0412
 1060SOL    HW2 4622   2.295   2.256   1.655 -0.0772 -2.3686 -0.8287
 1061SOL     OW 4623   6.517   2.455   5.748 -0.7827  0.0479  0.2377
 1061SOL    HW1 4624   6.430   2.477   5.782 -2.2594 -0.4346 -2.8486
 1061SOL    HW2 4625   6.506   2.455   5.653  2.0776 -2.1684 -0.2290
 1062SOL     OW 4626   6.697   3.030   3.027  0.3154 -0.0164 -0.4799
 1062SOL    HW1 4627   6.639   3.085   2.974  0.7866 -0.4099 -1.4332
 1062SOL    HW2 4628   6.763   3.091   3.061 -1.0432  0.5805  1.2662
 1063SOL     OW 4629   1.756   7.229  11.394  0.3444 -0.8056  0.5662
 1063SOL    HW1 4630   1.828   7.282  11.360 -0.8599  0.2312 -0.4597
 1063SOL    HW2 4631   1.757   7.150  11.340  1.0580 -1.0656  0.9443
 1064SOL     OW 4632   5.550   3.004   1.485  0.2811  0.4440  0.0445
 1064SOL    HW1 4633   5.624   2.997   1.545 -0.1652 -0.2208  0.5364
 1064SOL    HW2 4634   5.483   2.946   1.522  0.4918 -1.1184 -1.8434
 1065SOL     OW 4635   7.798   6.313   4.286  0.3228 -0.1819 -0.1244
 1065SOL    HW1 4636   7.716   6.272   4.315  0.9889  0.1605  2.4772
 1065SOL    HW2 4637   7.782   6.407   4.295  1.2927 -0.1334  1.4475
 1066SOL     OW 4638   4.132   5.523   3.170 -0.2469  0.0705  0.5554
 1066SOL    HW1 4639   4.159   5.432   3.182 -3.0601 -0.5399  3.7693
 1066SOL    HW2 4640   4.151   5.564   3.255 -1.3620  1.7705  0.0189
 1067SOL     OW 4641   7.595   3.941   9.363 -0.7013  0.2550  0.3927
 1067SOL    HW1 4642   7.585   3.956   9.457 -2.1223  2.2703 -0.0184
 1067SOL    HW2 4643   7.555   3.855   9.348  1.8778 -1.3532  1.9395
 1068SOL     OW 4644   2.502   4.345  11.075 -0.3340 -0.2809  0.0026
 1068SOL    HW1 4645   2.553   4.424  11.054  1.6125 -1.5359 -0.2773
 1068SOL    HW2 4646   2.526   4.282  11.007  1.4408 -2.4621  2.4473
 1069SOL     OW 4647   4.157   4.676   6.660 -0.5073  0.7034  0.2927
 1069SOL    HW1 4648   4.073   4.679   6.706  0.0694  1.2573  1.3514
 1069SOL    HW2 4649   4.197   4.761   6.679  0.5758  0.1813  0.3627
 1070SOL     OW 4650   6.834   2.189   0.499 -0.4188  0.7561  0.5057
 1070SOL    HW1 4651   6.858   2.222   0.586  2.1169 -0.5545  0.3905
 1070SOL    HW2 4652   6.827   2.095   0.511  0.6277  0.4894 -0.8272
 1071SOL     OW 4653   1.303   2.562   9.517 -0.3283  0.5207  0.2595
 1071SOL    HW1 4654   1.254   2.493   9.563  0.5440 -0.8936 -0.8579
 1071SOL    HW2 4655   1.372   2.516   9.470 -1.0617  1.8524 -2.3672
 1072SOL     OW 4656   1.931   4.711   0.228 -0.1617  0.4339  0.1278
 1072SOL    HW1 4657   1.970   4.794   0.202  0.9597 -0.0500  0.1641
 1072SOL    HW2 4658   1.983   4.683   0.304 -1.1018  0.1338  0.6722
 1073SOL     OW 4659   5.760   6.741   8.804  0.5859  0.1304 -0.1424
 1073SOL    HW1 4660   5.836   6.683   8.804 -0.2950 -1.0917  1.0471
 1073SOL    HW2 4661   5.789   6.818   8.853  1.5092  0.3578 -1.0126
 1074SOL     OW 4662   0.090   0.503   0.618 -0.4985 -0.1693  0.5083
 1074SOL    HW1 4663   0.020   0.527   0.556 -1.1986 -1.3955  0.8037
 1074SOL    HW2 4664   0.100   0.409   0.607  0.6737 -0.1066  0.9508
 1075SOL     OW 4665   1.580   1.730  11.301  0.0142 -0.2331 -0.3481
 1075SOL    HW1 4666   1.524   1.720  11.224 -0.3531 -1.0077  0.0099
 1075SOL    HW2 4667   1.594   1.825  11.309  0.1663 -0.1573 -1.4375
 1076SOL     OW 4668   6.530   1.756   8.620  0.0548  0.0930 -0.3384
 1076SOL    HW1 4669   6.468   1.684   8.606 -0.7088  0.4884  0.8869
 1076SOL    HW2 4670   6.596   1.719   8.679  0.3172  0.0559 -0.6472
 1077SOL     OW 4671   1.943   4.751   9.596 -0.0067  0.5862 -0.0558
 1077SOL    HW1 4672   1.903   4.838   9.588  0.2218  0.5809 -1.7121
 1077SOL    HW2 4673   1.882   4.701   9.650 -0.4542  1.5931  0.3918
 1078SOL     OW 4674   0.467   7.101   4.743 -0.1929  0.7203 -0.6493
 1078SOL    HW1 4675   0.548   7.152   4.741  0.2357  0.0659 -0.3943
 1078SOL    HW2 4676   0.402   7.159   4.782  0.5637  0.6980  0.6776
 1079SOL     OW 4677   1.823   4.615  11.474 -0.6015 -0.3600 -0.7076
 1079SOL    HW1 4678   1.888   4.545  11.481 -0.4173 -0.1154  0.0991
 1079SOL    HW2 4679   1.748   4.574  11.431 -0.5262 -1.0725 -0.1637
 1080SOL     OW 4680   4.844   7.104  12.336  0.4245  0.4194 -0.7080
 1080SOL    HW1 4681   4.769   7.066  12.291 -1.0391  1.5336  0.6871
 1080SOL    HW2 4682   4.825   7.091  12.429  1.9314  0.8162 -0.3119
 1081SOL     OW 4683   6.878   3.721   6.340  0.1461  0.1104  0.1671
 1081SOL    HW1 4684   6.919   3.651   6.288 -1.5785  0.1578 -1.3645
 1081SOL    HW2 4685   6.936   3.797   6.327  1.2184 -0.5987  0.6081
 1082SOL     OW 4686   3.479   2.772   0.105 -0.3089  0.2118 -0.7681
 1082SOL    HW1 4687   3.571   2.783   0.083 -0.1547 -0.6603 -0.5904
 1082SOL    HW2 4688   3.434   2.769   0.021 -0.2507  1.1654 -0.8447
 1083SOL     OW 4689   3.463   6.767   3.456  0.3230  0.1893  0.1049
 1083SOL    HW1 4690   3.493   6.756   3.365  1.7428  1.5919  0.3563
 1083SOL    HW2 4691   3.468   6.679   3.494 -2.7432 -0.9833 -1.7908
 1084SOL     OW 4692   4.106   5.997  11.531 -0.0701 -0.2597  0.2035
 1084SOL    HW1 4693   4.160   5.945  11.591  1.0835  2.2579  1.4724
 1084SOL    HW2 4694   4.157   5.999  11.450  0.1699 -0.5666  0.3435
 1085SOL     OW 4695   0.202   6.193   7.128 -0.2939  0.3150 -0.0012
 1085SOL    HW1 4696   0.155   6.232   7.054 -0.9706  0.6966  0.6188
 1085SOL    HW2 4697   0.206   6.100   7.106  2.7727  0.8079 -2.2922
 1086SOL     OW 4698   5.463   5.332  10.959 -0.4841  0.0651  0.5129
 1086SOL    HW1 4699   5.438   5.288  11.040 -1.5091  0.4833  0.4504
 1086SOL    HW2 4700   5.419   5.282  10.890 -0.3614  0.2473  0.3008
 1087SOL     OW 4701   5.313   5.421   9.529  0.3293  0.0326  0.1425
 1087SOL    HW1 4702   5.358   5.506   9.526 -0.7405  0.6277  0.6139
 1087SOL    HW2 4703   5.223   5.442   9.554 -0.1278 -1.1801 -0.4320
 1088SOL     OW 4704   2.428   6.726  10.168  0.5569 -0.5273 -0.4525
 1088SOL    HW1 4705   2.523   6.713  10.169  0.5573 -0.4826  0.1388
 1088SOL    HW2 4706   2.393   6.658  10.225  0.1498 -1.1097 -1.3716
 1089SOL     OW 4707   0.943   7.228   9.467 -1.1257 -0.1482 -0.7065
 1089SOL    HW1 4708   0.991   7.204   9.547 -1.2322  0.5520 -0.4255
 1089SOL    HW2 4709   1.003   7.284   9.419 -0.5880 -1.5411 -1.7319
 1090SOL     OW 4710   1.025   1.946   8.133  0.8043 -0.4247 -0.1545
 1090SOL    HW1 4711   0.999   1.870   8.081  0.4811  0.3663 -1.1797
 1090SOL    HW2 4712   1.047   2.013   8.069 -1.6631  1.2877  0.6367
 1091SOL     OW 4713   3.516   0.478   0.530 -0.0503  0.1422 -0.3054
 1091SOL    HW1 4714   3.484   0.567   0.544 -1.4747 -0.0518 -1.9759
 1091SOL    HW2 4715   3.595   0.489   0.478  0.3204  0.4439  0.3000
 1092SOL     OW 4716   1.540   1.419   4.310  0.3261 -0.1887 -0.9287
 1092SOL    HW1 4717   1.467   1.479   4.321 -1.7011 -2.6361  0.2129
 1092SOL    HW2 4718   1.607   1.451   4.371 -0.9074  0.5785  0.0628
 1093SOL     OW 4719   0.186   2.201  12.468 -0.2614  0.1023 -0.2600
 1093SOL    HW1 4720   0.091   2.197  12.465 -0.3163  0.6525  0.4435
 1093SOL    HW2 4721   0.208   2.287  12.432 -0.2360  1.3060  2.3969
 1094SOL     OW 4722   1.863   2.671   1.881 -0.1479 -0.5128  0.3176
 1094SOL    HW1 4723   1.850   2.587   1.924 -1.6504 -0.4401  0.0578
 1094SOL    HW2 4724   1.892   2.729   1.950  0.3973 -1.1142  0.6061
 1095SOL     OW 4725   1.887   4.674   5.522  0.0645  0.4163 -0.3748
 1095SOL    HW1 4726   1.930   4.596   5.558 -1.5195 -0.5680 -0.5243
 1095SOL    HW2 4727   1.923   4.746   5.573  0.5808 -0.5642  0.7027
 1096SOL     OW 4728   5.182   1.320   2.140  0.2817  0.2990 -0.0105
 1096SOL    HW1 4729   5.267   1.293   2.105  0.3481  0.6491 -0.1176
 1096SOL    HW2 4730   5.134   1.238   2.152  0.3776  0.1553 -0.6162
 1097SOL     OW 4731   2.222   6.888   2.570  1.0119 -0.9623 -0.2531
 1097SOL    HW1 4732   2.192   6.800   2.592  1.3042 -0.9126  0.3860
 1097SOL    HW2 4733   2.152   6.926   2.518  1.0537 -1.7134 -0.8715
 1098SOL     OW 4734   0.961   0.442   0.069 -0.4136  0.5355  0.1263
 1098SOL    HW1 4735   1.035   0.471   0.122  0.5937 -1.5089 -0.0591
 1098SOL    HW2 4736   0.901   0.402   0.132 -0.3519  0.2923  0.0330
 1099SOL     OW 4737   3.391   6.314   1.577 -0.3035  0.1640 -0.2361
 1099SOL    HW1 4738   3.482   6.342   1.581 -0.7920  1.8023  0.4111
 1099SOL    HW2 4739   3.350   6.373   1.514 -1.0840 -0.0165  0.0902
 1100SOL     OW 4740   0.153   6.995   5.137 -0.4178  0.0752 -0.4149
 1100SOL    HW1 4741   0.140   6.967   5.227 -0.2359  0.7424 -0.1809
 1100SOL    HW2 4742   0.166   6.913   5.088  1.4843 -0.2066  0.4690
 1101SOL     OW 4743   2.144   2.720   9.010 -0.4399 -0.3722 -0.2155
 1101SOL    HW1 4744   2.122   2.744   9.100 -0.3750 -3.2709  0.6770
 1101SOL    HW2 4745   2.222   2.666   9.018 -1.0642 -1.6230 -1.8776
 1102SOL     OW 4746   5.001   6.459   5.790 -0.3477  0.6489 -0.0396
 1102SOL    HW1 4747   4.912   6.435   5.763 -0.0777  0.6022 -0.9029
 1102SOL    HW2 4748   4.989   6.538   5.843 -1.0343 -0.1447  1.0280
 1103SOL     OW 4749   4.019   2.489   4.417 -0.0880 -0.2136  0.0906
 1103SOL    HW1 4750   4.051   2.511   4.504 -0.2677  0.7832 -0.0869
 1103SOL    HW2 4751   4.015   2.573   4.370  0.2603 -0.7581 -0.9601
 1104SOL     OW 4752   4.881   3.825  10.890 -0.0409 -0.5632  0.1219
 1104SOL    HW1 4753   4.913   3.810  10.979 -0.1687 -0.2147  0.2275
 1104SOL    HW2 4754   4.930   3.900  10.859 -2.2501  1.3958  1.0883
 1105SOL     OW 4755   5.383   3.225   7.083 -0.0472  0.0866 -0.5348
 1105SOL    HW1 4756   5.297   3.258   7.057 -0.0681 -0.5139 -1.2688
 1105SOL    HW2 4757   5.364   3.148   7.136  0.0414 -0.6724 -1.5836
 1106SOL     OW 4758   7.801   0.503  11.811  0.5769  0.8434  0.5076
 1106SOL    HW1 4759   7.722   0.542  11.849  0.3270 -0.1860  1.0978
 1106SOL    HW2 4760   7.834   0.445  11.879 -0.0717 -1.3333 -0.9062
 1107SOL     OW 4761   7.568   3.652   3.016 -0.1548 -0.0736  0.2921
 1107SOL    HW1 4762   7.523   3.593   3.075 -0.8918  0.4761  0.2962
 1107SOL    HW2 4763   7.628   3.596   2.966 -0.4449 -0.7265  0.6721
 1108SOL     OW 4764   5.976   2.690   6.730 -0.1015 -0.0966  0.1018
 1108SOL    HW1 4765   5.931   2.753   6.673 -0.5048 -0.2013  0.3031
 1108SOL    HW2 4766   6.058   2.734   6.753 -0.7362  0.7012  0.8851
 1109SOL     OW 4767   3.490   2.152   8.277 -0.5739 -0.0951  0.1068
 1109SOL    HW1 4768   3.430   2.182   8.208  0.3129  1.7207  0.0604
 1109SOL    HW2 4769   3.486   2.221   8.343  0.0512 -0.8746  0.9770
 1110SOL     OW 4770   0.069   5.268   8.889 -0.2272  0.3921 -0.4967
 1110SOL    HW1 4771   0.118   5.297   8.966 -0.9871  2.6067 -0.7610
 1110SOL    HW2 4772  -0.022   5.287   8.910 -0.8317 -2.0402 -0.7017
 1111SOL     OW 4773   0.406   6.951   1.393 -0.1705  0.4033  0.1475
 1111SOL    HW1 4774   0.477   6.888   1.404 -0.2222  0.6583  2.6067
 1111SOL    HW2 4775   0.438   7.012   1.326  1.2384 -0.4175  0.0391
 1112SOL     OW 4776   0.017   7.537   5.022 -0.8012  0.2527 -0.8184
 1112SOL    HW1 4777  -0.022   7.563   5.105 -0.7442  0.7059 -0.9299
 1112SOL    HW2 4778   0.031   7.443   5.030 -0.5181  0.3452 -0.2002
 1113SOL     OW 4779   4.631   7.363   8.242  0.3394  0.1962  0.5984
 1113SOL    HW1 4780   4.603   7.317   8.321 -1.9793  1.6484  0.7406
 1113SOL    HW2 4781   4.671   7.444   8.273  1.0362 -0.0203  0.2916
 1114SOL     OW 4782   2.030   7.900   9.351  0.2418  0.1020  0.3992
 1114SOL    HW1 4783   1.955   7.865   9.399 -0.9736  0.5401 -1.1099
 1114SOL    HW2 4784   2.044   7.986   9.390 -1.0410  0.6578 -0.3027
 1115SOL     OW 4785   3.885   3.447   0.839  0.3897  0.3170 -0.1250
 1115SOL    HW1 4786   3.838   3.383   0.785  1.8103  0.4044 -1.5440
 1115SOL    HW2 4787   3.955   3.398   0.881  2.0969  0.9999 -1.9757
 1116SOL     OW 4788   1.227   7.067   3.282 -0.6101 -0.2188  0.5950
 1116SOL    HW1 4789   1.300   7.116   3.321 -1.8496  1.7190  0.6374
 1116SOL    HW2 4790   1.196   7.124   3.212  0.6112 -2.9398 -2.4026
 1117SOL     OW 4791   2.176   1.011  11.627  0.5598  0.1715 -0.2216
 1117SOL    HW1 4792   2.088   1.041  11.653  0.5147  0.5156 -0.7589
 1117SOL    HW2 4793   2.168   0.916  11.623  0.4088  0.1487  0.4370
 1118SOL     OW 4794   7.390   4.685   5.737 -0.2222  0.0970  0.1755
 1118SOL    HW1 4795   7.296   4.684   5.752 -0.9631  2.7293 -3.1019
 1118SOL    HW2 4796   7.419   4.768   5.775  0.6237 -0.2113  0.2298
 1119SOL     OW 4797   7.497   1.093   0.008 -0.1573  0.0669  0.1627
 1119SOL    HW1 4798   7.583   1.122  -0.024 -0.0598  0.9784  1.1778
 1119SOL    HW2 4799   7.450   1.065  -0.070  0.3119  1.5672 -0.6893
 1120SOL     OW 4800   4.533   2.173  10.016 -0.7453 -0.0360 -0.1296
 1120SOL    HW1 4801   4.579   2.100  10.058  0.5345  1.6923  1.7169
 1120SOL    HW2 4802   4.441   2.149  10.019 -0.3179 -1.8026 -0.0891
 1121SOL     OW 4803   2.673   4.714   4.442 -0.0073 -0.3765  0.1195
 1121SOL    HW1 4804   2.756   4.715   4.394 -1.0209  0.8337 -1.7167
 1121SOL    HW2 4805   2.615   4.661   4.388 -0.7801 -0.2227  0.7792
 1122SOL     OW 4806   3.733   7.764   2.268  0.2514  0.2865 -0.5110
 1122SOL    HW1 4807   3.695   7.732   2.186  0.1848 -0.9092 -0.0303
 1122SOL    HW2 4808   3.668   7.741   2.335  0.1049  1.6321 -0.1539
 1123SOL     OW 4809   2.563   2.663  11.890  0.1661  0.0860  0.0142
 1123SOL    HW1 4810   2.473   2.640  11.917 -0.2163  0.5786 -0.8060
 1123SOL    HW2 4811   2.559   2.665  11.795  1.7821 -2.8073 -0.2313
 1124SOL     OW 4812   1.168   5.842   7.746  0.1894 -0.0544  0.1591
 1124SOL    HW1 4813   1.264   5.852   7.745  0.4071 -1.9162 -0.2391
 1124SOL    HW2 4814   1.138   5.912   7.804  1.6732  1.3552 -0.6714
 1125SOL     OW 4815   4.012   4.355   1.577 -0.0674 -0.3819 -0.2462
 1125SOL    HW1 4816   3.960   4.396   1.646 -1.1077 -0.0273 -1.2000
 1125SOL    HW2 4817   3.960   4.279   1.550  0.3381 -0.5291 -0.6231
 1126SOL     OW 4818   4.489   0.490  10.528 -0.0162  0.0786  0.4530
 1126SOL    HW1 4819   4.476   0.489  10.433 -1.9157  0.4192  0.6736
 1126SOL    HW2 4820   4.582   0.468  10.540  0.1708 -0.3193 -1.4558
 1127SOL     OW 4821   0.149   3.213   2.542  0.7047  0.0100 -0.0235
 1127SOL    HW1 4822   0.213   3.144   2.560 -1.7141 -1.9319  1.8721
 1127SOL    HW2 4823   0.095   3.217   2.621 -2.0229  0.9481 -1.7716
 1128SOL     OW 4824   7.089   5.388   0.808  0.1939 -0.1765 -0.3545
 1128SOL    HW1 4825   7.144   5.457   0.770  0.2988 -0.0335  0.0562
 1128SOL    HW2 4826   7.036   5.357   0.734 -2.4065  2.7362  0.0917
 1129SOL     OW 4827   1.088   1.738   2.612 -0.5066 -0.1699 -0.1013
 1129SOL    HW1 4828   1.074   1.775   2.525  0.4278 -1.7095 -0.9509
 1129SOL    HW2 4829   1.134   1.655   2.596  0.4333 -0.1042  1.9000
 1130SOL     OW 4830   4.301   7.101  10.807 -0.3500  0.4529  0.1633
 1130SOL    HW1 4831   4.233   7.085  10.741 -1.3382  1.2873  0.9428
 1130SOL    HW2 4832   4.383   7.074  10.765 -1.2238 -1.1584 -0.5916
 1131SOL     OW 4833   2.839   1.307   6.744  0.1010  0.4403  0.2508
 1131SOL    HW1 4834   2.914   1.254   6.717 -0.1999  1.0885 -2.1285
 1131SOL    HW2 4835   2.853   1.324   6.837  2.5322 -0.0582  0.0340
 1132SOL     OW 4836   5.917   5.666   6.762  0.1584  0.2324 -0.0058
 1132SOL    HW1 4837   5.845   5.605   6.745 -0.7587  0.6017  2.1716
 1132SOL    HW2 4838   5.926   5.667   6.857  1.0830  2.4266 -0.0454
 1133SOL     OW 4839   1.631   2.611   7.105 -0.5909 -0.1211  0.0416
 1133SOL    HW1 4840   1.587   2.646   7.027  0.1349  0.7357 -0.0097
 1133SOL    HW2 4841   1.708   2.668   7.116 -0.8748  0.0064  1.6017
 1134SOL     OW 4842   5.909   4.434   6.902 -0.1334  0.1267  0.0965
 1134SOL    HW1 4843   5.967   4.394   6.837 -0.2598 -1.0965  0.7148
 1134SOL    HW2 4844   5.944   4.405   6.986 -0.2251  1.3478  0.5752
 1135SOL     OW 4845   5.647   3.377   4.587 -0.0034  0.4748 -0.2473
 1135SOL    HW1 4846   5.639   3.457   4.639  0.2708  0.4888 -0.2210
 1135SOL    HW2 4847   5.638   3.306   4.650 -2.4992  0.4226 -0.5772
 1136SOL     OW 4848   1.161   4.745   0.743  0.3211  0.2710  0.2353
 1136SOL    HW1 4849   1.154   4.694   0.824  1.7354  0.2440  0.3719
 1136SOL    HW2 4850   1.160   4.836   0.773 -0.1669  0.2875  0.1794
 1137SOL     OW 4851   0.730   4.581   6.126  0.1106  0.2490 -0.1614
 1137SOL    HW1 4852   0.817   4.620   6.137  0.6297 -0.5858 -1.1890
 1137SOL    HW2 4853   0.683   4.644   6.071 -0.4991  1.4632  1.6186
 1138SOL     OW 4854   4.291   7.645   3.577  0.0086  0.1207 -0.0746
 1138SOL    HW1 4855   4.262   7.729   3.542 -2.8397 -0.4830  0.6100
 1138SOL    HW2 4856   4.326   7.665   3.663  0.9759  0.7932 -0.6095
 1139SOL     OW 4857   6.232   6.638   4.252 -0.3321 -0.0453 -0.0619
 1139SOL    HW1 4858   6.163   6.612   4.191 -0.6384  0.1074  0.2173
 1139SOL    HW2 4859   6.291   6.564   4.254 -1.5930 -1.0669  1.3212
 1140SOL     OW 4860   4.085   7.048  11.307  0.3509 -0.3373  0.5256
 1140SOL    HW1 4861   4.022   7.116  11.332 -0.1352 -1.3941  2.4461
 1140SOL    HW2 4862   4.031   6.969  11.297  1.2252 -1.0293  1.1411
 1141SOL     OW 4863   4.236   5.950   6.900 -0.0655 -0.2242 -0.4018
 1141SOL    HW1 4864   4.280   5.933   6.816 -1.0150 -1.4826 -0.6809
 1141SOL    HW2 4865   4.173   5.878   6.908 -0.2600  0.1053  1.2143
 1142SOL     OW 4866   1.898   6.998   3.634 -0.3443  0.4549 -0.2930
 1142SOL    HW1 4867   1.889   6.909   3.600  0.2628 -0.2490  1.3037
 1142SOL    HW2 4868   1.881   7.055   3.558 -0.1855 -1.0162 -1.4645
 1143SOL     OW 4869   0.656   6.021   7.301  0.0161 -0.0505 -0.0896
 1143SOL    HW1 4870   0.686   6.013   7.392 -1.4652 -0.4395  0.3852
 1143SOL    HW2 4871   0.607   5.941   7.284 -1.9032  1.1415 -0.3776
 1144SOL     OW 4872   0.750   7.433   1.567 -0.2808 -0.3883  0.3486
 1144SOL    HW1 4873   0.801   7.352   1.565 -0.5563 -0.5938 -2.3819
 1144SOL    HW2 4874   0.724   7.447   1.476 -1.2714  2.1423  0.9361
 1145SOL     OW 4875   1.423   1.453  11.217  0.2655 -0.3271  0.8419
 1145SOL    HW1 4876   1.369   1.489  11.288 -0.4861 -0.2690  0.2546
 1145SOL    HW2 4877   1.434   1.361  11.240  0.1406 -0.2781  1.1037
 1146SOL     OW 4878   5.395   2.897  12.398 -0.2257 -0.3825 -0.1890
 1146SOL    HW1 4879   5.486   2.917  12.416 -0.0016 -1.5663  0.1012
 1146SOL    HW2 4880   5.361   2.974  12.354  1.0781 -0.1666 -0.8570
 1147SOL     OW 4881   2.192   6.026   0.466 -0.2080 -0.6287 -0.1867
 1147SOL    HW1 4882   2.173   5.987   0.551 -1.2312  0.5299  0.1502
 1147SOL    HW2 4883   2.117   6.084   0.450  1.1894  1.1158 -0.6728
 1148SOL     OW 4884   5.497   3.799   2.119 -0.2522  0.0075 -0.2972
 1148SOL    HW1 4885   5.559   3.739   2.078 -0.2567 -1.6988  1.9997
 1148SOL    HW2 4886   5.435   3.821   2.049  0.2488 -2.0115 -1.4536
 1149SOL     OW 4887   3.448   5.565   8.028 -0.3120 -0.1253  0.0968
 1149SOL    HW1 4888   3.426   5.486   7.978 -1.4583 -0.1239  0.5616
 1149SOL    HW2 4889   3.539   5.553   8.053 -0.3474 -1.1104 -0.1999
 1150SOL     OW 4890   2.309   3.752  10.018 -0.1301  0.0219 -0.0147
 1150SOL    HW1 4891   2.357   3.819  10.066 -0.4299  0.4361 -0.2889
 1150SOL    HW2 4892   2.245   3.718  10.080 -0.1933  0.2143  0.0231
 1151SOL     OW 4893   0.926   4.411   1.318 -0.1994  0.1182 -0.4218
 1151SOL    HW1 4894   0.996   4.386   1.257  1.0963 -0.0550  1.0504
 1151SOL    HW2 4895   0.937   4.351   1.392 -0.1396  1.8688  1.0516
 1152SOL     OW 4896   3.418   3.977   2.277 -0.4571  0.2956  0.1821
 1152SOL    HW1 4897   3.359   4.030   2.331 -1.0086  0.0866 -0.2114
 1152SOL    HW2 4898   3.438   3.901   2.333  1.4009  1.5140  1.2784
 1153SOL     OW 4899   7.598   7.365  10.142  0.5141 -0.6903  0.4169
 1153SOL    HW1 4900   7.593   7.318  10.059  1.8313  0.3370 -0.2734
 1153SOL    HW2 4901   7.621   7.298  10.206 -0.8565 -1.5596  0.0579
 1154SOL     OW 4902   6.043   2.416  10.688  0.1558  0.0464  0.4261
 1154SOL    HW1 4903   5.984   2.408  10.763  1.2022  0.7888  1.3703
 1154SOL    HW2 4904   6.023   2.340  10.633 -0.2490 -0.8265  1.7297
 1155SOL     OW 4905   6.602   2.154   5.790 -0.3136 -0.2019  0.4827
 1155SOL    HW1 4906   6.538   2.190   5.729 -1.7091  1.6513  2.8392
 1155SOL    HW2 4907   6.663   2.104   5.736 -2.1920  0.2321 -2.1943
 1156SOL     OW 4908   7.536   4.333   6.637 -0.3658  0.4821 -0.4935
 1156SOL    HW1 4909   7.448   4.370   6.649 -0.9065 -0.1941 -2.0902
 1156SOL    HW2 4910   7.569   4.320   6.725 -2.3574 -0.3653  0.1773
 1157SOL     OW 4911   3.447   1.768   0.856 -0.1245  0.3499  0.1556
 1157SOL    HW1 4912   3.408   1.851   0.829  0.0080  0.0320 -1.1155
 1157SOL    HW2 4913   3.461   1.721   0.773 -3.4124 -2.4262  0.9272
 1158SOL     OW 4914   2.336   2.009   5.524  0.0735 -0.1752 -0.5856
 1158SOL    HW1 4915   2.428   2.025   5.548 -0.3643  1.5971  0.1059
 1158SOL    HW2 4916   2.332   2.032   5.431  0.0808  1.1021 -0.2936
 1159SOL     OW 4917   4.758   6.838   0.609 -0.0787  0.3856  0.0394
 1159SOL    HW1 4918   4.783   6.840   0.516  0.3111  3.0793  0.1141
 1159SOL    HW2 4919   4.842   6.846   0.655 -0.4393  1.3840  0.5363
 1160SOL     OW 4920   5.855   5.209   8.677  0.5044  0.3966  0.2077
 1160SOL    HW1 4921   5.826   5.237   8.589  0.9702 -0.4141 -0.2065
 1160SOL    HW2 4922   5.785   5.239   8.735 -0.8187 -0.8420 -0.6878
 1161SOL     OW 4923   6.774   0.981   6.666 -0.5884 -0.3485 -0.0793
 1161SOL    HW1 4924   6.752   0.924   6.740  1.7087  0.0623  1.0271
 1161SOL    HW2 4925   6.846   0.935   6.622  0.0434  0.7945 -0.2764
 1162SOL     OW 4926   7.280   6.513  11.896  0.1047  0.0236  0.4152
 1162SOL    HW1 4927   7.203   6.519  11.840  0.2298 -4.0451 -0.5303
 1162SOL    HW2 4928   7.249   6.536  11.984 -0.6500  4.1991 -0.7277
 1163SOL     OW 4929   1.178   3.591  12.467 -0.1337 -0.2536 -0.3711
 1163SOL    HW1 4930   1.109   3.613  12.528 -0.3393 -0.1543 -0.6386
 1163SOL    HW2 4931   1.145   3.617  12.381 -0.7868 -2.4128 -0.8513
 1164SOL     OW 4932   7.006   7.025   4.734 -0.0405  0.3851  0.6985
 1164SOL    HW1 4933   7.046   7.001   4.650  0.5103 -1.0463  1.3450
 1164SOL    HW2 4934   6.945   7.096   4.712  2.7186  2.6383 -0.3754
 1165SOL     OW 4935   4.159   7.798  10.140 -0.1963  0.3065 -0.4922
 1165SOL    HW1 4936   4.243   7.760  10.163 -0.1804  0.3359 -0.5020
 1165SOL    HW2 4937   4.140   7.764  10.052  0.8561  2.0726 -1.4566
 1166SOL     OW 4938   0.775   7.311   8.376 -0.9418  0.8138 -0.0507
 1166SOL    HW1 4939   0.759   7.388   8.323  0.0000  1.2345  0.2608
 1166SOL    HW2 4940   0.729   7.240   8.330 -0.1052  1.1535 -1.4576
 1167SOL     OW 4941   3.722   5.346   5.930 -0.4708 -0.2827 -0.1784
 1167SOL    HW1 4942   3.798   5.304   5.889 -0.2264 -1.1218  1.0951
 1167SOL    HW2 4943   3.754   5.433   5.955  0.3587 -0.9585  1.1658
 1168SOL     OW 4944   2.672   3.602  12.442 -0.6096  0.0464  0.0296
 1168SOL    HW1 4945   2.696   3.663  12.512 -1.2422 -0.2281  0.4889
 1168SOL    HW2 4946   2.739   3.617  12.374 -0.9616  1.5180 -0.0362
 1169SOL     OW 4947   5.985   3.620   2.799  0.1510 -0.1949  0.1547
 1169SOL    HW1 4948   5.954   3.623   2.709 -0.6427  1.1876  0.4460
 1169SOL    HW2 4949   5.951   3.700   2.839  2.9281  0.7512  0.8836
 1170SOL     OW 4950   1.787   3.189  10.047 -0.4794 -0.1868 -0.3958
 1170SOL    HW1 4951   1.737   3.172   9.967 -0.7218  0.1717 -0.3214
 1170SOL    HW2 4952   1.836   3.108  10.063 -0.0305 -0.0814 -1.1931
 1171SOL     OW 4953   2.246   4.940   9.912  0.5694  0.8793 -1.0252
 1171SOL    HW1 4954   2.215   4.890   9.837  1.7895  1.1233 -1.7203
 1171SOL    HW2 4955   2.244   5.031   9.882 -0.0095  1.0970 -0.3598
 1172SOL     OW 4956   1.995   6.873   2.023  0.3859  0.2749  0.5970
 1172SOL    HW1 4957   1.931   6.803   2.015  0.6215  0.1679 -0.6049
 1172SOL    HW2 4958   2.034   6.860   2.110 -1.3989  0.5360  1.4898
 1173SOL     OW 4959   3.118   7.947   9.288  0.4200  0.4488 -0.1092
 1173SOL    HW1 4960   3.055   7.944   9.361 -0.0272  0.1083 -0.4997
 1173SOL    HW2 4961   3.170   7.868   9.299 -0.2955 -0.1201 -0.7160
 1174SOL     OW 4962   2.943   2.556   6.690  0.3165  0.3293 -0.1227
 1174SOL    HW1 4963   2.889   2.634   6.694 -1.0443 -0.5101 -0.9972
 1174SOL    HW2 4964   2.997   2.568   6.611  0.9901  0.9042  0.4174
 1175SOL     OW 4965   7.328   6.935   3.254 -0.3111  0.0006  0.6308
 1175SOL    HW1 4966   7.318   6.905   3.344 -4.6236 -0.3817  0.2375
 1175SOL    HW2 4967   7.322   6.855   3.201 -1.9692  0.5622 -0.0828
 1176SOL     OW 4968   4.002   3.862   2.721  0.2595 -0.0258 -0.4901
 1176SOL    HW1 4969   3.942   3.842   2.794  0.7050  0.2665 -0.0409
 1176SOL    HW2 4970   4.056   3.783   2.712 -2.5115 -1.8490 -3.2855
 1177SOL     OW 4971   4.246   4.271   8.495  0.7037  0.2692 -0.2628
 1177SOL    HW1 4972   4.162   4.315   8.496  0.1792 -0.6443 -1.3168
 1177SOL    HW2 4973   4.306   4.331   8.538 -0.2384  1.4495 -0.5625
 1178SOL     OW 4974   7.442   4.610   1.954 -0.1654 -0.3478 -0.5250
 1178SOL    HW1 4975   7.437   4.682   1.892 -1.8504  0.9802  1.0453
 1178SOL    HW2 4976   7.367   4.554   1.931  0.8869 -1.4547 -1.4626
 1179SOL     OW 4977   7.369   0.970  10.738  0.4382  0.1299  0.1913
 1179SOL    HW1 4978   7.340   1.054  10.703 -0.7893  0.0057  0.8538
 1179SOL    HW2 4979   7.297   0.909  10.719  1.6214 -0.9823 -0.9610
 1180SOL     OW 4980   5.163   1.699   9.187  0.3668 -0.6114 -0.7261
 1180SOL    HW1 4981   5.232   1.702   9.120  1.4340  0.1309  0.3713
 1180SOL    HW2 4982   5.139   1.790   9.202 -1.1477 -0.8768 -1.3495
 1181SOL     OW 4983   2.483   7.143   6.514 -0.6284  0.5299  0.1931
 1181SOL    HW1 4984   2.539   7.074   6.548 -0.5224 -1.9497 -4.2421
 1181SOL    HW2 4985   2.420   7.159   6.584  2.7245  0.1173  3.5720
 1182SOL     OW 4986   7.805   5.580  10.459 -0.0256  0.5520  0.2212
 1182SOL    HW1 4987   7.813   5.676  10.453  0.6840  0.4303 -1.5342
 1182SOL    HW2 4988   7.850   5.548  10.381  0.6383 -1.2805  1.3114
 1183SOL     OW 4989   7.540   4.898   6.128 -0.7137  0.1931 -0.2629
 1183SOL    HW1 4990   7.599   4.863   6.063 -2.2118 -1.4584 -0.8202
 1183SOL    HW2 4991   7.586   4.972   6.166  1.1743 -0.3030 -1.4941
 1184SOL     OW 4992   6.429   0.021   3.424 -0.4016 -0.0559  0.4688
 1184SOL    HW1 4993   6.358   0.053   3.367 -0.9430  1.6998  2.0233
 1184SOL    HW2 4994   6.506   0.068   3.394  0.2560 -2.1320 -1.3704
 1185SOL     OW 4995   2.317   1.698  10.641  0.3589  0.4667 -0.1942
 1185SOL    HW1 4996   2.309   1.661  10.729  1.1285  0.3121 -0.1820
 1185SOL    HW2 4997   2.370   1.634  10.593  1.6430  1.4881 -0.1929
 1186SOL     OW 4998   6.187   5.834   3.400 -0.7879  0.0692 -0.2385
 1186SOL    HW1 4999   6.265   5.785   3.423 -0.9393 -0.1886 -0.2659
 1186SOL    HW2 5000   6.141   5.778   3.337 -0.7224  0.4550 -0.6360
 1187SOL     OW 5001   3.507   1.305   9.476 -0.2381  0.0647 -0.0427
 1187SOL    HW1 5002   3.551   1.265   9.401  0.3156  0.0059  0.3124
 1187SOL    HW2 5003   3.413   1.293   9.458 -0.1165  0.2129 -0.8094
 1188SOL     OW 5004   5.494   7.315  11.718  0.0209  0.1611  0.1313
 1188SOL    HW1 5005   5.585   7.302  11.744  0.5268  1.9436 -0.5471
 1188SOL    HW2 5006   5.494   7.402  11.678 -1.9183  0.0341 -0.2109
 1189SOL     OW 5007   3.407   2.789   1.635  0.4198 -0.7903 -0.0421
 1189SOL    HW1 5008   3.367   2.740   1.706  0.0550 -0.7832 -0.2401
 1189SOL    HW2 5009   3.442   2.868   1.677  1.8324 -1.6365  0.4329
 1190SOL     OW 5010   5.202   0.826   2.526  0.3168  0.0856 -0.1810
 1190SOL    HW1 5011   5.111   0.856   2.531  0.5306  0.5526  1.7085
 1190SOL    HW2 5012   5.247   0.873   2.597  1.4926 -1.9078  0.4788
 1191SOL     OW 5013   6.860   1.051  11.495  0.1843 -0.4400 -0.3761
 1191SOL    HW1 5014   6.911   1.072  11.573  0.5134 -0.5479 -0.5623
 1191SOL    HW2 5015   6.819   1.134  11.470  2.6382  0.4069 -1.9724
 1192SOL     OW 5016   3.540   3.734   7.720  0.1768 -0.0257 -0.0552
 1192SOL    HW1 5017   3.454   3.733   7.762 -0.1214  1.3624 -0.5917
 1192SOL    HW2 5018   3.522   3.734   7.627  0.7354  0.6074 -0.1772
 1193SOL     OW 5019   5.041   0.519  10.639 -0.1258  0.2188 -0.2110
 1193SOL    HW1 5020   5.116   0.460  10.648 -0.5601 -0.5046 -1.1810
 1193SOL    HW2 5021   5.041   0.545  10.547 -0.4172  1.0935  0.0300
 1194SOL     OW 5022   0.530   4.193   7.392  0.2338 -0.0650 -0.0099
 1194SOL    HW1 5023   0.597   4.144   7.344  1.5888  1.4906  0.2240
 1194SOL    HW2 5024   0.527   4.152   7.478  0.3586 -0.5922 -0.2495
 1195SOL     OW 5025   5.752   1.403   3.621 -0.1576  0.0889 -0.3318
 1195SOL    HW1 5026   5.816   1.393   3.692 -1.5943 -2.3255  0.7566
 1195SOL    HW2 5027   5.805   1.404   3.541  1.5942  3.7621  0.6479
 1196SOL     OW 5028   4.862   5.951  10.235  0.2918  0.8073  0.1146
 1196SOL    HW1 5029   4.828   5.883  10.294  0.0352 -0.2063 -1.1577
 1196SOL    HW2 5030   4.942   5.914  10.199 -0.3340  0.7640 -1.3020
 1197SOL     OW 5031   6.385   4.129   0.152 -0.1628  0.1379  0.0338
 1197SOL    HW1 5032   6.297   4.101   0.129  0.0558  0.1498 -0.8639
 1197SOL    HW2 5033   6.400   4.208   0.100  0.9173 -0.7040 -1.0198
 1198SOL     OW 5034   7.917   3.117   2.750 -0.0751  0.4148  0.2112
 1198SOL    HW1 5035   7.842   3.168   2.781  1.5840  2.8087  0.5449
 1198SOL    HW2 5036   7.937   3.058   2.823 -1.1773  0.2606  0.4032
 1199SOL     OW 5037   5.657   1.163   1.720 -0.3586  0.2697  0.6001
 1199SOL    HW1 5038   5.704   1.179   1.639  1.4163  1.0055  1.7149
 1199SOL    HW2 5039   5.718   1.188   1.789 -1.6922 -0.6033  2.1879
 1200SOL     OW 5040   2.875   3.817  11.693  0.2040  0.0406  0.1170
 1200SOL    HW1 5041   2.858   3.723  11.687  0.5366  0.0302 -0.7359
 1200SOL    HW2 5042   2.897   3.831  11.786  1.0953 -0.8819  0.0704
 1201SOL     OW 5043   0.690   7.790   6.367 -0.5403 -0.2805 -1.4578
 1201SOL    HW1 5044   0.614   7.732   6.368 -0.8235 -0.0174 -3.7018
 1201SOL    HW2 5045   0.719   7.791   6.276  0.6624  1.5629 -1.1126
 1202SOL     OW 5046   4.840   2.030   2.071  0.1056  0.8166 -0.2834
 1202SOL    HW1 5047   4.878   1.978   2.000 -0.6717  2.1878 -1.7877
 1202SOL    HW2 5048   4.752   1.994   2.083 -0.0814  1.1527 -0.6409
 1203SOL     OW 5049   5.315   7.048   5.315 -0.0597  0.0655  0.0702
 1203SOL    HW1 5050   5.364   7.047   5.397 -0.7472 -0.3300  0.4826
 1203SOL    HW2 5051   5.380   7.026   5.248  0.5682  0.6895  0.4685
 1204SOL     OW 5052   0.373   4.502   2.623  0.5775  0.4432 -0.0599
 1204SOL    HW1 5053   0.429   4.562   2.673 -0.1946 -0.6574  2.2627
 1204SOL    HW2 5054   0.286   4.541   2.629  0.4428  0.1852 -0.3661
 1205SOL     OW 5055   3.044   0.485  11.380 -0.0471  0.1659  0.6498
 1205SOL    HW1 5056   2.993   0.506  11.302 -1.5204  1.9745  1.9951
 1205SOL    HW2 5057   3.100   0.412  11.353  1.0366  2.0239 -2.6737
 1206SOL     OW 5058   7.535   0.665  10.143 -0.1339  0.3200 -0.0369
 1206SOL    HW1 5059   7.566   0.594  10.199 -1.9189 -0.9027 -0.5188
 1206SOL    HW2 5060   7.607   0.679  10.081  0.8535 -0.0058  0.9979
 1207SOL     OW 5061   5.151   4.902  11.821  0.5399  0.0035 -0.6462
 1207SOL    HW1 5062   5.118   4.906  11.911  0.4918 -1.1415 -0.6043
 1207SOL    HW2 5063   5.246   4.906  11.830  0.5631 -0.7275 -0.4906
 1208SOL     OW 5064   6.730   3.313   8.425 -0.0092 -0.1406  0.1574
 1208SOL    HW1 5065   6.727   3.407   8.409  1.6470  0.0915  0.9942
 1208SOL    HW2 5066   6.645   3.281   8.396  0.1444  1.2812 -2.0666
 1209SOL     OW 5067   2.615   0.839   5.003 -0.2405 -0.5148 -0.4485
 1209SOL    HW1 5068   2.678   0.768   5.017 -0.8969 -1.2602 -1.1750
 1209SOL    HW2 5069   2.666   0.919   5.016  0.7096 -1.1059 -0.4167
 1210SOL     OW 5070   6.108   4.620  10.938 -0.1082  0.4192 -0.2784
 1210SOL    HW1 5071   6.178   4.683  10.921  1.6027 -1.3609 -0.2207
 1210SOL    HW2 5072   6.154   4.539  10.960 -2.1880 -1.0235 -0.9444
 1211SOL     OW 5073   4.130   6.987   0.077  0.0655  0.2666 -0.1220
 1211SOL    HW1 5074   4.060   6.949   0.129  0.4968 -0.0299  0.2469
 1211SOL    HW2 5075   4.181   7.039   0.139  0.1533  0.5171 -0.3976
 1212SOL     OW 5076   2.782   7.431   2.703 -0.4170 -0.0551 -0.0473
 1212SOL    HW1 5077   2.794   7.339   2.679 -2.1692 -0.4105  0.2945
 1212SOL    HW2 5078   2.794   7.479   2.621  0.1895 -0.6084 -0.2949
 1213SOL     OW 5079   4.127   6.595   9.225  0.1263 -0.3719 -0.2849
 1213SOL    HW1 5080   4.099   6.616   9.136 -0.5821 -0.9901 -0.2177
 1213SOL    HW2 5081   4.057   6.629   9.281  1.6393  2.1357  0.2528
 1214SOL     OW 5082   2.848   5.355   1.686  0.1746  0.2105 -0.0007
 1214SOL    HW1 5083   2.874   5.427   1.743  0.9819  0.7254 -0.9788
 1214SOL    HW2 5084   2.866   5.276   1.736  1.5570  0.6301  0.1855
 1215SOL     OW 5085   5.222   6.281  11.437  0.1841 -0.0355 -0.1064
 1215SOL    HW1 5086   5.260   6.257  11.522  0.8317 -1.3726 -0.7378
 1215SOL    HW2 5087   5.275   6.355  11.407  1.3622 -0.9127 -0.2813
 1216SOL     OW 5088   5.036   5.237  11.732  0.2143 -0.3558  0.1710
 1216SOL    HW1 5089   4.970   5.168  11.722 -2.0143  1.7952 -1.0013
 1216SOL    HW2 5090   5.034   5.260  11.825 -1.0770  0.0022  0.0684
 1217SOL     OW 5091   6.574   2.213   0.434  0.7857  0.1181 -0.2262
 1217SOL    HW1 5092   6.669   2.201   0.441  0.5897 -0.6501  1.5821
 1217SOL    HW2 5093   6.548   2.246   0.520 -0.4015  1.8231 -1.1955
 1218SOL     OW 5094   4.268   3.739   8.605  0.0538 -0.0067 -0.0256
 1218SOL    HW1 5095   4.271   3.720   8.511 -1.3625  0.6552 -0.2409
 1218SOL    HW2 5096   4.257   3.654   8.646 -1.0829 -0.1608 -0.6050
 1219SOL     OW 5097   3.657   1.859   1.754 -0.4555 -0.2679 -0.1740
 1219SOL    HW1 5098   3.626   1.905   1.831 -2.3946 -2.3403  0.3859
 1219SOL    HW2 5099   3.714   1.790   1.788 -1.3921 -1.2542 -0.5549
 1220SOL     OW 5100   2.486   2.977  12.024  0.0958  0.2770  0.2364
 1220SOL    HW1 5101   2.391   2.989  12.033  0.1495 -0.1302  1.5550
 1220SOL    HW2 5102   2.498   2.948  11.934 -1.2073 -1.2569  0.5144
 1221SOL     OW 5103   1.442   2.601   4.156 -0.2272  0.3787  0.3114
 1221SOL    HW1 5104   1.363   2.584   4.207 -0.0334 -0.2621  0.3989
 1221SOL    HW2 5105   1.507   2.629   4.221  0.1384 -0.8266  0.4838
 1222SOL     OW 5106   3.839   4.646   6.976  0.1644  0.3828 -0.4608
 1222SOL    HW1 5107   3.779   4.625   7.048 -0.1498  0.0675 -0.8052
 1222SOL    HW2 5108   3.845   4.741   6.977  0.6600  0.3526  0.3769
 1223SOL     OW 5109   1.508   3.763   9.511  0.2177 -0.0656  0.0360
 1223SOL    HW1 5110   1.478   3.673   9.493  0.2489  0.0627 -0.7118
 1223SOL    HW2 5111   1.428   3.815   9.511  0.3472  0.1823 -1.3660
 1224SOL     OW 5112   0.960   5.295   1.662 -0.1612 -0.6781 -0.4109
 1224SOL    HW1 5113   0.866   5.280   1.664 -0.0215 -1.6921 -0.9886
 1224SOL    HW2 5114   0.991   5.266   1.747 -0.1226 -2.2252 -0.9174
 1225SOL     OW 5115   3.488   5.584   5.135 -1.1351  0.6061  0.3254
 1225SOL    HW1 5116   3.467   5.610   5.225 -2.2655  0.3031  0.1660
 1225SOL    HW2 5117   3.490   5.667   5.086  4.0823  1.4946  1.3451
 1226SOL     OW 5118   6.340   2.047  11.740  0.2604  0.0191 -0.1204
 1226SOL    HW1 5119   6.356   2.068  11.648  1.8832 -0.1692  0.0734
 1226SOL    HW2 5120   6.307   1.957  11.738 -2.5224  0.9505 -0.6583
 1227SOL     OW 5121   1.441   6.716  11.439  0.1337  0.3330  0.7206
 1227SOL    HW1 5122   1.454   6.730  11.345  0.3626  2.4105  0.9999
 1227SOL    HW2 5123   1.474   6.628  11.455  2.2242  0.7512 -0.7916
 1228SOL     OW 5124   6.183   0.955   7.375  0.1739 -0.0723 -0.5589
 1228SOL    HW1 5125   6.215   1.029   7.426 -0.7998 -0.3805  0.5127
 1228SOL    HW2 5126   6.263   0.913   7.342  0.7624  0.8582 -0.3570
 1229SOL     OW 5127   4.667   2.813   2.351 -0.0543 -0.3980 -0.1341
 1229SOL    HW1 5128   4.616   2.804   2.431 -0.8595  0.3327 -0.5504
 1229SOL    HW2 5129   4.755   2.782   2.375 -0.2482 -0.0725  1.0608
 1230SOL     OW 5130   2.212   2.817   9.313 -0.1358  0.1732 -0.2706
 1230SOL    HW1 5131   2.284   2.760   9.286 -1.3934 -1.1809 -0.8976
 1230SOL    HW2 5132   2.222   2.825   9.408  1.2203  0.5870 -0.4261
 1231SOL     OW 5133   1.298   6.548   8.934  0.3131 -0.0907  0.1508
 1231SOL    HW1 5134   1.260   6.635   8.931  0.2318 -0.1316  0.0229
 1231SOL    HW2 5135   1.390   6.563   8.958  0.7479  0.1633 -1.5423
 1232SOL     OW 5136   1.306   7.049   5.950  0.5878 -0.1769  0.9468
 1232SOL    HW1 5137   1.238   7.104   5.911  0.1604 -1.2151  0.1757
 1232SOL    HW2 5138   1.267   6.962   5.955  1.7158 -0.7117  0.8625
 1233SOL     OW 5139   6.065   1.232  11.598 -0.5231  0.1356  0.2075
 1233SOL    HW1 5140   6.137   1.294  11.588  2.2984 -2.9778 -0.3550
 1233SOL    HW2 5141   6.009   1.248  11.522 -0.0620  2.1109  0.2255
 1234SOL     OW 5142   6.603   3.153   7.690  0.4647  0.5160  0.2649
 1234SOL    HW1 5143   6.573   3.064   7.671 -0.1422  0.7553  0.1008
 1234SOL    HW2 5144   6.530   3.209   7.665  1.3595  1.1801 -0.9357
 1235SOL     OW 5145   1.630   5.315  11.720  0.0563  0.1582 -0.2790
 1235SOL    HW1 5146   1.574   5.245  11.688 -0.3814  0.3050  0.1536
 1235SOL    HW2 5147   1.700   5.322  11.654  1.0018 -1.7334  0.4679
 1236SOL     OW 5148   1.452   6.281   9.073 -0.0494 -0.2804  0.1791
 1236SOL    HW1 5149   1.530   6.256   9.024  1.4379 -1.5902  2.9923
 1236SOL    HW2 5150   1.379   6.247   9.022  1.1643  0.7474 -2.3987
 1237SOL     OW 5151   6.798   0.542   7.413  0.1910  0.6170 -0.4381
 1237SOL    HW1 5152   6.846   0.490   7.348 -0.4763  1.1159 -1.3590
 1237SOL    HW2 5153   6.823   0.632   7.396 -1.3265  0.9370 -1.2032
 1238SOL     OW 5154   3.119   5.520   1.018  0.4176 -0.0357  0.3848
 1238SOL    HW1 5155   3.068   5.515   0.937 -0.6872  0.7307  1.0165
 1238SOL    HW2 5156   3.060   5.559   1.082  1.2196 -0.7719  1.6203
 1239SOL     OW 5157   1.835   1.326   7.111  0.7744  0.2503  0.2469
 1239SOL    HW1 5158   1.801   1.293   7.194  1.7796  0.3356  0.7127
 1239SOL    HW2 5159   1.889   1.255   7.076  0.8019  0.4170 -0.0608
 1240SOL     OW 5160   2.762   7.942  10.056 -0.3133 -0.1740 -0.0496
 1240SOL    HW1 5161   2.688   7.921  10.113 -0.7384 -1.3210 -0.9792
 1240SOL    HW2 5162   2.823   7.869  10.070 -0.2433 -0.2508 -0.7375
 1241SOL     OW 5163   5.627   4.241   2.747 -0.1690  0.0257  0.3373
 1241SOL    HW1 5164   5.690   4.287   2.691 -0.7963  0.3523 -0.1023
 1241SOL    HW2 5165   5.548   4.294   2.744 -1.2727 -1.5864 -1.0158
 1242SOL     OW 5166   7.125   3.869   4.117  0.0622 -0.1228  0.2810
 1242SOL    HW1 5167   7.144   3.789   4.167 -0.2283  0.7596  1.8702
 1242SOL    HW2 5168   7.201   3.881   4.061 -0.7730 -2.6430 -1.6112
 1243SOL     OW 5169   0.684   3.739   1.459 -0.7285 -0.1263  0.4230
 1243SOL    HW1 5170   0.601   3.728   1.505 -0.0514 -2.1834  1.2787
 1243SOL    HW2 5171   0.666   3.708   1.370 -1.3699  1.4036 -0.0147
 1244SOL     OW 5172   5.039   0.444   8.363  0.3589 -0.2479 -0.1833
 1244SOL    HW1 5173   4.994   0.363   8.385  1.1295 -0.8609 -0.7915
 1244SOL    HW2 5174   4.971   0.512   8.367  0.2463 -0.4087  3.0672
 1245SOL     OW 5175   7.552   3.624   7.510  0.0379 -0.3468 -0.1648
 1245SOL    HW1 5176   7.509   3.677   7.577  0.2061 -0.6078  0.1540
 1245SOL    HW2 5177   7.592   3.552   7.559  3.0252  1.2294 -0.1217
 1246SOL     OW 5178   3.689   0.098   6.220 -0.6680 -0.2968  0.0700
 1246SOL    HW1 5179   3.776   0.124   6.249 -1.5413  0.7740  1.9384
 1246SOL    HW2 5180   3.692   0.107   6.124  1.5735 -1.4166 -0.0303
 1247SOL     OW 5181   6.358   4.882   4.215 -0.0118 -0.1437  0.3250
 1247SOL    HW1 5182   6.286   4.944   4.205 -0.0418 -0.0945  0.8078
 1247SOL    HW2 5183   6.345   4.845   4.303  0.2283 -0.5473  0.1936
 1248SOL     OW 5184   0.003   4.957   9.127  0.2748  0.5567  0.0611
 1248SOL    HW1 5185  -0.061   4.971   9.197 -0.5462 -0.5708 -0.4289
 1248SOL    HW2 5186   0.060   5.033   9.131 -0.9009  1.4417  0.7260
 1249SOL     OW 5187   1.681   2.886  11.773 -0.2583 -0.2598  0.1201
 1249SOL    HW1 5188   1.718   2.887  11.861 -0.9904 -0.2888  0.4317
 1249SOL    HW2 5189   1.603   2.832  11.780 -1.3301  1.2094 -0.1182
 1250SOL     OW 5190   1.274   3.222  11.681 -0.4556  0.4526  0.2321
 1250SOL    HW1 5191   1.336   3.294  11.691  0.9150 -0.1343 -2.8950
 1250SOL    HW2 5192   1.207   3.256  11.622 -1.2963 -0.0077  0.8975
 1251SOL     OW 5193   1.591   5.568   8.366 -0.2544  0.2565 -0.3687
 1251SOL    HW1 5194   1.563   5.490   8.318  1.4040  1.0483 -2.8412
 1251SOL    HW2 5195   1.510   5.610   8.394 -1.2461 -1.0968 -1.0979
 1252SOL     OW 5196   2.936   5.290   6.658  0.4553 -0.1909 -0.5689
 1252SOL    HW1 5197   3.029   5.289   6.637  0.6875 -2.3469  0.2495
 1252SOL    HW2 5198   2.934   5.292   6.754 -0.3309 -0.3433 -0.5762
 1253SOL     OW 5199   6.507   1.774   9.033 -0.0515 -0.5534  0.0673
 1253SOL    HW1 5200   6.453   1.753   9.110  0.2720 -3.7375 -0.4484
 1253SOL    HW2 5201   6.494   1.700   8.974  1.6958  0.5997 -1.8836
 1254SOL     OW 5202   0.493   0.974  10.200  0.5044  0.2692 -0.7794
 1254SOL    HW1 5203   0.585   0.986  10.178  0.9398 -0.3779  0.5608
 1254SOL    HW2 5204   0.467   0.893  10.157  0.2167  1.0317 -2.0928
 1255SOL     OW 5205   2.754   7.262   4.516 -0.0670  0.1422 -0.4524
 1255SOL    HW1 5206   2.783   7.309   4.594  2.0798 -0.8387 -0.5695
 1255SOL    HW2 5207   2.802   7.304   4.444 -1.1717  0.3152 -1.1092
 1256SOL     OW 5208   3.727   7.236  11.829 -0.2190  0.6035  0.2991
 1256SOL    HW1 5209   3.820   7.259  11.835  0.1282 -0.0275 -1.7315
 1256SOL    HW2 5210   3.681   7.320  11.829  0.5701  1.0783 -1.0163
 1257SOL     OW 5211   0.346   6.441   8.729 -0.1021  0.3572  0.1019
 1257SOL    HW1 5212   0.393   6.522   8.708  1.7550 -0.6505  0.1857
 1257SOL    HW2 5213   0.328   6.447   8.822  0.6526  0.3778  0.2526
 1258SOL     OW 5214   7.965   1.443  11.329  0.0156 -0.1295 -0.4913
 1258SOL    HW1 5215   7.990   1.376  11.393 -2.9985  1.4132  2.6073
 1258SOL    HW2 5216   8.039   1.504  11.328  0.6589 -0.8661  0.5088
 1259SOL     OW 5217   7.213   0.002   2.664  0.2806  0.6179  0.1127
 1259SOL    HW1 5218   7.211   0.066   2.593  1.1006  0.6388  0.1081
 1259SOL    HW2 5219   7.195   0.052   2.743  1.3280  0.9393  0.1641
 1260SOL     OW 5220   7.258   4.331   6.638 -0.1231 -0.3483 -0.0256
 1260SOL    HW1 5221   7.218   4.244   6.642  0.7480 -0.8347 -1.2540
 1260SOL    HW2 5222   7.190   4.387   6.602 -1.2810 -0.1059  2.3645
 1261SOL     OW 5223   0.310   7.510  11.435  0.1384 -0.5061  0.0666
 1261SOL    HW1 5224   0.367   7.559  11.375  2.2821 -1.0140  1.5732
 1261SOL    HW2 5225   0.223   7.545  11.419  1.3521  2.9201  0.1165
 1262SOL     OW 5226   7.268   2.060   2.865  0.0370  0.2566  0.1460
 1262SOL    HW1 5227   7.265   2.061   2.770  2.3142 -0.5420 -0.0083
 1262SOL    HW2 5228   7.196   2.004   2.892  0.9064 -1.6511 -1.2852
 1263SOL     OW 5229   6.559   6.489   9.309 -0.5471 -0.4570 -0.3171
 1263SOL    HW1 5230   6.549   6.398   9.337  0.0989 -0.4228  0.0498
 1263SOL    HW2 5231   6.519   6.540   9.379 -0.9457 -0.4610 -0.5422
 1264SOL     OW 5232   7.615   5.501  10.658  0.0216  0.1055 -1.0910
 1264SOL    HW1 5233   7.547   5.493  10.590 -0.6078  0.8650 -0.5757
 1264SOL    HW2 5234   7.691   5.535  10.611  0.0064 -0.6011 -1.6505
 1265SOL     OW 5235   7.040   6.584   1.232  0.4482 -0.2929  0.1078
 1265SOL    HW1 5236   7.029   6.646   1.304 -0.4203  0.5653 -0.7363
 1265SOL    HW2 5237   7.079   6.507   1.273  0.3828  0.3362  1.4123
 1266SOL     OW 5238   6.270   0.786   6.648 -0.3376 -0.4033 -0.0495
 1266SOL    HW1 5239   6.236   0.704   6.683 -1.0137 -0.3787 -0.6380
 1266SOL    HW2 5240   6.199   0.849   6.661 -1.3784 -0.8082 -3.1313
 1267SOL     OW 5241   5.949   5.866   2.720 -0.2901 -0.4344  0.0055
 1267SOL    HW1 5242   6.001   5.810   2.663  1.8095  1.1450  0.2567
 1267SOL    HW2 5243   5.932   5.944   2.667  2.8391  1.6587  1.7774
 1268SOL     OW 5244   5.766   4.501   2.472 -0.0352 -0.5510  0.6517
 1268SOL    HW1 5245   5.839   4.563   2.476 -0.6036  0.2931 -0.9958
 1268SOL    HW2 5246   5.805   4.416   2.496  1.6967 -0.2824 -0.9409
 1269SOL     OW 5247   2.133   3.603   0.697 -0.3618 -0.0223  0.1023
 1269SOL    HW1 5248   2.192   3.535   0.665 -0.9458 -0.9288  0.8945
 1269SOL    HW2 5249   2.161   3.619   0.787  0.7296  1.8970 -0.5382
 1270SOL     OW 5250   0.347   0.348   9.201 -0.3556 -0.3228 -0.5703
 1270SOL    HW1 5251   0.328   0.314   9.289  0.2036 -0.8780 -0.6508
 1270SOL    HW2 5252   0.320   0.278   9.142 -0.4513 -0.0736 -0.8229
 1271SOL     OW 5253   3.331   7.097   6.226  0.1777 -0.4449 -0.2838
 1271SOL    HW1 5254   3.238   7.079   6.209  0.1619 -1.4339  0.7689
 1271SOL    HW2 5255   3.378   7.027   6.181  0.5277  0.8101 -1.9737
 1272SOL     OW 5256   2.970   6.596  12.105 -0.1478  0.1912 -0.3463
 1272SOL    HW1 5257   3.044   6.657  12.106  1.5797 -1.7620 -0.8938
 1272SOL    HW2 5258   2.968   6.562  12.015 -0.2692 -1.3917  0.2159
 1273SOL     OW 5259   5.824   6.733   0.639 -1.0659  0.8118  0.1545
 1273SOL    HW1 5260   5.806   6.656   0.694 -1.4483 -1.2735 -2.6691
 1273SOL    HW2 5261   5.910   6.715   0.601 -0.9753  2.0131 -0.2373
 1274SOL     OW 5262   3.997   1.557   5.738 -0.0146 -0.3713 -0.1504
 1274SOL    HW1 5263   3.913   1.596   5.717 -0.4193 -0.7426  0.7342
 1274SOL    HW2 5264   3.981   1.505   5.817  0.5276 -2.2213 -1.1937
 1275SOL     OW 5265   3.809   4.568   8.968  0.0935 -0.0054  0.0468
 1275SOL    HW1 5266   3.765   4.514   9.034  0.0007 -0.7349 -0.6136
 1275SOL    HW2 5267   3.770   4.655   8.980 -1.2951 -0.5555 -0.2879
 1276SOL     OW 5268   3.940   4.525   3.232 -0.8135 -0.6201 -0.1301
 1276SOL    HW1 5269   3.983   4.503   3.150  0.5525 -0.8480  0.6176
 1276SOL    HW2 5270   3.918   4.440   3.271 -1.6696 -0.5092 -0.3585
 1277SOL     OW 5271   3.808   7.103  10.092 -0.2095  0.2998 -0.1402
 1277SOL    HW1 5272   3.740   7.046  10.128  0.0688  1.0707  1.7276
 1277SOL    HW2 5273   3.884   7.088  10.148  1.6688 -1.4471 -2.8627
 1278SOL     OW 5274   6.758   7.763   6.864 -0.1994  0.1690  0.6351
 1278SOL    HW1 5275   6.743   7.749   6.771 -0.0282  2.5273  0.1995
 1278SOL    HW2 5276   6.853   7.773   6.873  0.0234 -2.0485  1.4343
 1279SOL     OW 5277   3.440   4.591   0.053  0.4295  0.0924  0.2012
 1279SOL    HW1 5278   3.464   4.620  -0.035  0.2063 -2.0050 -0.6150
 1279SOL    HW2 5279   3.381   4.518   0.038  0.3426 -0.2704  2.1164
 1280SOL     OW 5280   7.327   6.199   3.525  0.1124 -0.0834 -0.2059
 1280SOL    HW1 5281   7.272   6.150   3.586 -3.0682  1.0306 -1.9861
 1280SOL    HW2 5282   7.371   6.131   3.473  2.0036 -1.0169  2.4233
 1281SOL     OW 5283   7.753   1.240   3.860 -0.4529  0.6041 -0.7556
 1281SOL    HW1 5284   7.798   1.325   3.869  0.2931  0.0871  0.7709
 1281SOL    HW2 5285   7.765   1.217   3.768  2.0336  0.7362 -0.5450
 1282SOL     OW 5286   3.903   6.808   4.005 -0.2436 -0.4049  0.4842
 1282SOL    HW1 5287   3.923   6.868   3.933 -0.1866 -1.6732 -0.5939
 1282SOL    HW2 5288   3.922   6.721   3.970  0.7426 -1.0030  2.3755
 1283SOL     OW 5289   4.521   5.588   3.179  0.4075 -0.2747 -0.1986
 1283SOL    HW1 5290   4.474   5.573   3.262  1.2161  0.9861  0.5196
 1283SOL    HW2 5291   4.518   5.683   3.168  2.5214 -0.1804 -0.2788
 1284SOL     OW 5292   4.816   0.429   5.302 -0.1050 -0.4684  0.8102
 1284SOL    HW1 5293   4.760   0.369   5.254 -0.8039 -0.3261  1.4258
 1284SOL    HW2 5294   4.783   0.426   5.392  1.5328 -1.1940  1.4397
 1285SOL     OW 5295   3.350   1.992  10.766  0.3902  0.2331  0.0220
 1285SOL    HW1 5296   3.337   1.901  10.738 -0.1469 -0.6605  2.8716
 1285SOL    HW2 5297   3.261   2.026  10.776  0.4915 -0.0351  2.1455
 1286SOL     OW 5298   6.982   2.331   9.317 -0.3635 -0.0948  0.3424
 1286SOL    HW1 5299   6.922   2.292   9.254  0.8287  0.6346 -1.3067
 1286SOL    HW2 5300   7.037   2.259   9.347  0.1579 -0.1483 -0.7362
 1287SOL     OW 5301   5.556   2.060   5.689  0.7206 -0.4409  0.1939
 1287SOL    HW1 5302   5.556   2.098   5.777 -1.9565 -1.1828  0.5957
 1287SOL    HW2 5303   5.620   2.112   5.640  0.0307  2.0193  1.7511
 1288SOL     OW 5304   2.255   1.713   6.112 -0.2501 -0.0199 -0.3956
 1288SOL    HW1 5305   2.243   1.807   6.098 -0.1328  0.0315 -0.1693
 1288SOL    HW2 5306   2.308   1.684   6.038  1.1756  0.4313  0.3874
 1289SOL     OW 5307   6.025   3.581   8.990  0.1396  0.2154 -0.3566
 1289SOL    HW1 5308   6.014   3.538   8.905  1.8633 -2.6454  0.7454
 1289SOL    HW2 5309   6.116   3.610   8.990 -0.5243  2.4878 -0.3791
 1290SOL     OW 5310   6.703   5.400   3.946 -0.2097 -0.6168  0.5814
 1290SOL    HW1 5311   6.766   5.345   3.991  0.2694 -1.4194 -0.9938
 1290SOL    HW2 5312   6.648   5.339   3.896 -0.1851  0.2495 -0.5547
 1291SOL     OW 5313   6.372   1.694   1.193 -0.1809 -0.1376 -0.3161
 1291SOL    HW1 5314   6.370   1.677   1.287 -0.3865 -0.0514 -0.3029
 1291SOL    HW2 5315   6.451   1.745   1.178 -0.4401  0.3385 -0.1042
 1292SOL     OW 5316   2.024   1.702   8.170 -0.7836 -0.2243 -1.1189
 1292SOL    HW1 5317   2.105   1.663   8.204 -0.6676  0.0196 -1.1180
 1292SOL    HW2 5318   2.043   1.725   8.080 -0.6955  0.2809 -0.9753
 1293SOL     OW 5319   5.453   1.121   2.423  0.3141  0.3854  0.2364
 1293SOL    HW1 5320   5.545   1.109   2.397  0.7237  1.5306  1.0416
 1293SOL    HW2 5321   5.405   1.125   2.340  0.4231 -3.6891 -0.2121
 1294SOL     OW 5322   2.191   7.429   6.288  0.3528  0.1145  0.3000
 1294SOL    HW1 5323   2.240   7.434   6.371  1.9398  1.5818 -0.6756
 1294SOL    HW2 5324   2.163   7.337   6.283  0.3659 -0.0548  2.3556
 1295SOL     OW 5325   3.110   4.889   6.344  0.2172 -0.4253 -0.4011
 1295SOL    HW1 5326   3.076   4.945   6.414 -2.3637 -0.5703 -1.4181
 1295SOL    HW2 5327   3.205   4.891   6.354  0.0781  2.2960  0.9746
 1296SOL     OW 5328   2.793   0.436   7.237 -0.1829  0.3209  0.5048
 1296SOL    HW1 5329   2.748   0.354   7.258  0.1771 -0.4939 -1.6775
 1296SOL    HW2 5330   2.751   0.467   7.157  2.9765 -0.4742 -1.6409
 1297SOL     OW 5331   3.898   7.064   2.862  0.0334 -0.2814 -0.1891
 1297SOL    HW1 5332   3.969   7.000   2.865  0.3230  0.0418 -0.0192
 1297SOL    HW2 5333   3.943   7.149   2.857 -0.3060  0.0028  1.1297
 1298SOL     OW 5334   7.858   0.289   0.853  0.1288  0.5606 -0.0086
 1298SOL    HW1 5335   7.835   0.297   0.760  1.8274 -0.0489 -0.5188
 1298SOL    HW2 5336   7.896   0.374   0.875 -1.3573  1.1275  0.4897
 1299SOL     OW 5337   7.209   2.438   2.231  0.3550 -0.1791  0.0550
 1299SOL    HW1 5338   7.130   2.486   2.206  1.4552  1.7684  0.1957
 1299SOL    HW2 5339   7.247   2.489   2.302  1.1404 -1.7335  0.8185
 1300SOL     OW 5340   6.672   2.866   7.337  0.3547 -0.1610 -0.1328
 1300SOL    HW1 5341   6.622   2.795   7.297  1.2190 -1.3532  0.8453
 1300SOL    HW2 5342   6.750   2.824   7.372  0.8864  1.2754  0.4835
 1301SOL     OW 5343   1.646   0.545  10.632  0.1689  0.1882 -0.8467
 1301SOL    HW1 5344   1.637   0.456  10.599 -2.5612  0.2308 -0.4547
 1301SOL    HW2 5345   1.697   0.536  10.712 -1.7698 -1.3924  0.3097
 1302SOL     OW 5346   4.661   1.244  11.384 -0.0291 -0.5592  0.1766
 1302SOL    HW1 5347   4.649   1.232  11.479  0.1742  2.0551  0.6035
 1302SOL    HW2 5348   4.572   1.257  11.350  0.0835  2.2511  0.6942
 1303SOL     OW 5349   5.892   0.012   2.938 -0.5012 -0.0314  0.2393
 1303SOL    HW1 5350   5.831  -0.022   3.003 -0.3229 -3.8517 -1.3216
 1303SOL    HW2 5351   5.838   0.069   2.882 -1.7919 -0.5393  0.9262
 1304SOL     OW 5352   7.646   7.050   6.640 -0.0791 -0.2943 -0.1376
 1304SOL    HW1 5353   7.599   6.983   6.590  1.8863 -0.4855 -1.8486
 1304SOL    HW2 5354   7.710   7.001   6.691  1.6711  0.2421 -1.7353
 1305SOL     OW 5355   7.831   1.192  11.822 -0.1662  0.3527  0.2679
 1305SOL    HW1 5356   7.926   1.200  11.806 -0.4690  2.2173 -0.9765
 1305SOL    HW2 5357   7.796   1.277  11.796 -2.3158 -0.6136 -0.1861
 1306SOL     OW 5358   4.026   1.064   0.304 -0.1812  0.1273 -0.1897
 1306SOL    HW1 5359   4.027   1.105   0.390 -0.9711  1.4498 -0.7746
 1306SOL    HW2 5360   4.110   1.090   0.264 -0.3683  0.6138 -0.2839
 1307SOL     OW 5361   2.595   5.530   8.694  0.2690 -0.1904  0.1654
 1307SOL    HW1 5362   2.672   5.587   8.694 -0.0327  0.2180  1.0019
 1307SOL    HW2 5363   2.615   5.464   8.627  0.2510  1.3816 -1.4529
 1308SOL     OW 5364   3.192   1.477   6.909 -0.4115  0.1671  0.2413
 1308SOL    HW1 5365   3.284   1.505   6.913 -0.4794  0.8880 -1.7925
 1308SOL    HW2 5366   3.197   1.382   6.898  0.0540  0.1040  0.9307
 1309SOL     OW 5367   4.034   0.638   4.553  0.2105 -0.0302  0.2820
 1309SOL    HW1 5368   3.965   0.666   4.494  1.2252  3.2949  0.4732
 1309SOL    HW2 5369   4.046   0.545   4.534 -2.0890  0.0316 -1.9766
 1310SOL     OW 5370   7.470   3.731   1.613 -0.2993  0.4231  0.0106
 1310SOL    HW1 5371   7.450   3.725   1.520  1.6633  0.8202 -0.4923
 1310SOL    HW2 5372   7.530   3.658   1.630 -1.0382  0.0438  1.0912
 1311SOL     OW 5373   6.265   5.392   8.202  0.4122  0.1955  0.1071
 1311SOL    HW1 5374   6.282   5.331   8.274  0.7923  0.7261  0.4692
 1311SOL    HW2 5375   6.278   5.479   8.239 -0.6808  0.5305 -0.2682
 1312SOL     OW 5376   6.725   5.911   5.513  0.1114  0.2051  0.5183
 1312SOL    HW1 5377   6.713   5.826   5.469  0.5244  0.7356 -0.6546
 1312SOL    HW2 5378   6.666   5.970   5.466  2.0065  1.2354 -0.6838
 1313SOL     OW 5379   3.025   5.566   5.476  0.0352  0.0101  0.3314
 1313SOL    HW1 5380   3.017   5.474   5.501 -0.2812  0.1294  0.6831
 1313SOL    HW2 5381   3.034   5.565   5.381 -1.1352 -0.3264  0.2066
 1314SOL     OW 5382   1.222   2.678  12.364 -0.0444  0.1417 -0.3538
 1314SOL    HW1 5383   1.202   2.761  12.407  0.1451  0.4871 -0.9137
 1314SOL    HW2 5384   1.247   2.619  12.435  0.2020  0.6812  0.0127
 1315SOL     OW 5385   4.219   6.331   3.606  0.0113  0.5946  0.0448
 1315SOL    HW1 5386   4.239   6.425   3.612  0.8504  0.4133  0.2797
 1315SOL    HW2 5387   4.124   6.325   3.616 -0.0618  1.4274 -0.0848
 1316SOL     OW 5388   2.346   7.894   3.183  0.2412  0.0623  0.6496
 1316SOL    HW1 5389   2.354   7.975   3.133  0.3282  0.2462  0.9593
 1316SOL    HW2 5390   2.433   7.879   3.220  0.4168 -0.5558  0.0151
 1317SOL     OW 5391   0.894   4.231   1.014 -0.1784  0.1121  0.5652
 1317SOL    HW1 5392   0.858   4.178   0.943 -1.1088  0.9100  0.4201
 1317SOL    HW2 5393   0.835   4.306   1.021  1.5420  1.5562  0.2399
 1318SOL     OW 5394   4.064   2.127   8.964 -0.4032  0.0766 -0.2847
 1318SOL    HW1 5395   4.129   2.193   8.941 -1.6557  1.6424  0.4315
 1318SOL    HW2 5396   3.992   2.177   9.003 -1.0832 -1.8046  1.0309
 1319SOL     OW 5397   3.082   1.220   0.789 -0.0264 -0.3263  0.0776
 1319SOL    HW1 5398   3.131   1.185   0.714  0.4236  0.9178 -0.2306
 1319SOL    HW2 5399   3.050   1.305   0.759  0.5443  0.4068  1.4342
 1320SOL     OW 5400   7.292   5.673   3.825  0.0974  0.0133 -0.3895
 1320SOL    HW1 5401   7.289   5.591   3.875  0.2119 -1.0315 -2.0482
 1320SOL    HW2 5402   7.348   5.730   3.877  1.6728 -1.6464 -0.1781
 1321SOL     OW 5403   5.157   2.934   3.888  0.4356  0.2400  0.6112
 1321SOL    HW1 5404   5.149   2.943   3.793 -1.0674 -0.5264  0.6354
 1321SOL    HW2 5405   5.148   3.023   3.921  0.3843  0.4430  0.0643
 1322SOL     OW 5406   7.974   2.198   5.669 -0.0227  0.0862  0.2640
 1322SOL    HW1 5407   7.986   2.224   5.578  2.4308  1.0640  0.7925
 1322SOL    HW2 5408   8.014   2.110   5.674  0.3076  0.2448  0.4799
 1323SOL     OW 5409   4.529   5.805  11.797  0.1743  0.2907 -0.3455
 1323SOL    HW1 5410   4.452   5.804  11.740 -1.2803 -0.7926  1.5220
 1323SOL    HW2 5411   4.509   5.873  11.861  0.4111 -0.5211  0.6012
 1324SOL     OW 5412   5.440   0.830  10.194 -0.8532  0.6967 -0.3507
 1324SOL    HW1 5413   5.510   0.833  10.258  0.4788  0.6041 -1.7606
 1324SOL    HW2 5414   5.364   0.799  10.243  0.4072 -0.4831  0.9366
 1325SOL     OW 5415   5.485   4.650   4.559 -0.2338 -0.5154 -0.1421
 1325SOL    HW1 5416   5.514   4.569   4.515 -1.0832 -1.4225  0.9225
 1325SOL    HW2 5417   5.427   4.620   4.629 -0.6630  1.0405  0.2000
 1326SOL     OW 5418   4.204   1.093   9.062 -0.2549 -0.0927 -0.3262
 1326SOL    HW1 5419   4.164   1.112   8.978  0.5102 -0.5718 -0.8217
 1326SOL    HW2 5420   4.249   1.009   9.049  0.6630  0.2793  0.2695
 1327SOL     OW 5421   3.445   6.198   9.468 -0.4464 -0.0670  0.2504
 1327SOL    HW1 5422   3.439   6.291   9.450 -0.4165  0.4540  2.5774
 1327SOL    HW2 5423   3.358   6.163   9.445 -1.7035  1.2402  2.5823
 1328SOL     OW 5424   6.525   0.177   0.372  0.4483  0.3107  0.6613
 1328SOL    HW1 5425   6.516   0.218   0.458 -1.5755  1.3177  0.0386
 1328SOL    HW2 5426   6.535   0.083   0.391  1.6815  0.6728  2.0037
 1329SOL     OW 5427   6.160   2.838   1.214 -0.0690  0.1203  0.2490
 1329SOL    HW1 5428   6.082   2.890   1.235  1.1919  1.7536  1.1697
 1329SOL    HW2 5429   6.232   2.884   1.258  1.0693 -2.8986  1.8512
 1330SOL     OW 5430   5.137   7.271  10.083  0.4755 -0.5267 -0.4467
 1330SOL    HW1 5431   5.190   7.204  10.126  0.4852  0.2317  0.7746
 1330SOL    HW2 5432   5.052   7.266  10.127  0.4219  0.1377 -0.4662
 1331SOL     OW 5433   7.860   5.268   5.139 -0.0654  0.0433 -0.0335
 1331SOL    HW1 5434   7.778   5.252   5.187  0.4319 -0.2115  0.7597
 1331SOL    HW2 5435   7.929   5.251   5.204  0.5954  1.5746 -0.2964
 1332SOL     OW 5436   0.609   6.406   0.652 -0.3278  0.0049  0.3800
 1332SOL    HW1 5437   0.586   6.463   0.726  1.4721 -0.5376  1.4349
 1332SOL    HW2 5438   0.697   6.435   0.627  0.4827 -2.0027  0.7125
 1333SOL     OW 5439   2.048   5.593   0.278 -0.1924 -0.7972 -0.0588
 1333SOL    HW1 5440   2.134   5.555   0.256 -1.0970 -3.1732  0.2334
 1333SOL    HW2 5441   2.060   5.687   0.264  1.6316 -1.2920 -2.8440
 1334SOL     OW 5442   0.532   4.553   8.377 -0.2765 -0.4855 -0.3350
 1334SOL    HW1 5443   0.575   4.469   8.358  0.0623 -0.2903 -0.4435
 1334SOL    HW2 5444   0.486   4.538   8.459  0.9662 -0.3552  0.4080
 1335SOL     OW 5445   7.883   6.560   8.796  0.1191 -0.2096  0.6032
 1335SOL    HW1 5446   7.802   6.606   8.776  0.0164 -0.3739  0.6353
 1335SOL    HW2 5447   7.870   6.472   8.761  0.6358  0.0265 -0.1874
 1336SOL     OW 5448   3.583   2.979   4.530 -0.6806  0.0734 -0.0226
 1336SOL    HW1 5449   3.544   3.054   4.485  0.3512  0.3558 -0.4683
 1336SOL    HW2 5450   3.598   3.010   4.619 -0.1895  0.4300 -0.2255
 1337SOL     OW 5451   0.394   1.401   0.862 -0.2997  0.0822 -0.0578
 1337SOL    HW1 5452   0.392   1.359   0.776  1.0956 -1.0832  0.4399
 1337SOL    HW2 5453   0.313   1.373   0.904 -0.0985 -0.9202 -0.3014
 1338SOL     OW 5454   4.103   6.072   9.494 -0.0328  0.1854  0.6980
 1338SOL    HW1 5455   4.184   6.026   9.516  0.2716  0.8711  1.0363
 1338SOL    HW2 5456   4.077   6.035   9.409  1.0203  0.4623  0.2404
 1339SOL     OW 5457   6.372   0.915   5.590 -0.2123 -0.2484  0.0220
 1339SOL    HW1 5458   6.347   0.829   5.557 -0.7369 -0.0139 -0.1951
 1339SOL    HW2 5459   6.331   0.977   5.529 -0.2208  0.1623  0.4443
 1340SOL     OW 5460   3.161   0.040   4.965 -0.1501  0.1839 -0.1681
 1340SOL    HW1 5461   3.235   0.007   4.914 -0.0603 -0.7940  0.5659
 1340SOL    HW2 5462   3.198   0.109   5.020  0.4108 -0.8019  0.7420
 1341SOL     OW 5463   6.577   5.873   7.230  0.5231 -0.2077  0.2525
 1341SOL    HW1 5464   6.583   5.968   7.236  0.9564 -0.1712 -0.6834
 1341SOL    HW2 5465   6.546   5.846   7.317 -0.3878  0.8391  0.2770
 1342SOL     OW 5466   3.248   1.627   8.986  0.1343  0.4758 -0.1852
 1342SOL    HW1 5467   3.242   1.622   8.890  0.2454 -0.4010 -0.1529
 1342SOL    HW2 5468   3.282   1.715   9.003  1.0824  0.2879 -1.0021
 1343SOL     OW 5469   5.133   1.420   2.382 -0.0684 -0.2652 -0.2270
 1343SOL    HW1 5470   5.168   1.390   2.299  1.4956  0.8082  0.0057
 1343SOL    HW2 5471   5.207   1.416   2.443 -1.4412 -2.1503  1.4600
 1344SOL     OW 5472   7.544   1.374   2.487  0.2477 -0.2996  0.3133
 1344SOL    HW1 5473   7.574   1.374   2.396 -2.0406 -1.2436 -0.4951
 1344SOL    HW2 5474   7.574   1.290   2.522 -0.2448 -0.6468 -0.0787
 1345SOL     OW 5475   4.239   5.678   7.316 -0.0514 -0.2610  0.0082
 1345SOL    HW1 5476   4.166   5.618   7.301 -1.0338  0.8191  0.3541
 1345SOL    HW2 5477   4.289   5.638   7.386 -0.0982 -1.2026 -0.4874
 1346SOL     OW 5478   5.615   5.366   2.112 -0.3264 -0.0697  0.1444
 1346SOL    HW1 5479   5.678   5.328   2.052  1.7504  0.8084  1.6519
 1346SOL    HW2 5480   5.599   5.454   2.078 -2.5026 -1.0039 -1.4422
 1347SOL     OW 5481   4.380   0.177  10.296  0.1382  0.1836  0.3534
 1347SOL    HW1 5482   4.431   0.245  10.252 -0.8014  1.2847  0.9028
 1347SOL    HW2 5483   4.432   0.098  10.287  0.6771  0.7019 -1.3910
 1348SOL     OW 5484   3.447   7.705  10.226  0.4336 -0.5033  0.7189
 1348SOL    HW1 5485   3.410   7.791  10.247  1.5884  0.0067  0.7100
 1348SOL    HW2 5486   3.522   7.696  10.284  1.0912 -0.9482 -0.1806
 1349SOL     OW 5487   5.917   3.240   5.796 -0.3650 -0.4833  0.8093
 1349SOL    HW1 5488   5.864   3.316   5.820  0.8520  0.7349 -0.2014
 1349SOL    HW2 5489   5.866   3.165   5.826 -2.5000  0.6353  0.1996
 1350SOL     OW 5490   1.437   3.601   6.319 -0.2645 -0.4032 -0.3050
 1350SOL    HW1 5491   1.509   3.659   6.292 -1.6751  2.2723  1.2201
 1350SOL    HW2 5492   1.480   3.517   6.338  2.0824  0.3935 -1.6184
 1351SOL     OW 5493   3.884   6.709   5.760 -0.2859  0.2988 -0.2422
 1351SOL    HW1 5494   3.862   6.619   5.785  1.0846 -0.4379 -1.4807
 1351SOL    HW2 5495   3.941   6.740   5.830 -0.3047 -0.0032 -0.0902
 1352SOL     OW 5496   3.617   4.938   5.245  1.3464 -0.0506  0.7009
 1352SOL    HW1 5497   3.568   4.919   5.324  0.8705  1.9611  0.9583
 1352SOL    HW2 5498   3.674   5.012   5.269 -2.2947  4.1373 -1.9132
 1353SOL     OW 5499   5.309   2.744   4.939 -0.0678  0.4562 -0.3199
 1353SOL    HW1 5500   5.330   2.811   5.004  0.7411  0.8396 -0.9569
 1353SOL    HW2 5501   5.214   2.750   4.927 -0.8678 -1.9742  3.3593
 1354SOL     OW 5502   3.621   1.126   1.655  0.3857 -0.0866 -0.2153
 1354SOL    HW1 5503   3.609   1.097   1.565 -0.4255 -0.3617 -0.0306
 1354SOL    HW2 5504   3.566   1.067   1.707  1.5716 -0.5500  0.5728
 1355SOL     OW 5505   0.527   1.572   7.901 -0.8153  0.2288  0.7341
 1355SOL    HW1 5506   0.586   1.640   7.870 -1.1262  0.2464  0.1606
 1355SOL    HW2 5507   0.549   1.495   7.849 -2.1599  0.5879 -0.4434
 1356SOL     OW 5508   0.278   5.844  10.651  0.4468 -0.2804  0.3231
 1356SOL    HW1 5509   0.223   5.847  10.573 -1.3798  1.1586  1.5672
 1356SOL    HW2 5510   0.363   5.878  10.622 -0.4223  0.9831 -0.9017
 1357SOL     OW 5511   7.228   2.763   7.401 -0.1152 -0.0500  0.3668
 1357SOL    HW1 5512   7.140   2.790   7.374  0.4757 -0.3211 -2.0397
 1357SOL    HW2 5513   7.287   2.814   7.345  1.1278 -2.6516 -0.8345
 1358SOL     OW 5514   6.047   0.065   3.259 -0.1186 -0.0044  0.0165
 1358SOL    HW1 5515   6.130   0.086   3.216  0.0750 -0.9214 -0.0815
 1358SOL    HW2 5516   6.039  -0.030   3.250 -0.4744 -0.1106  1.2923
 1359SOL     OW 5517   7.321   6.459   4.732  0.1892 -0.7001 -0.2223
 1359SOL    HW1 5518   7.376   6.478   4.656 -1.5801 -2.5925 -2.1454
 1359SOL    HW2 5519   7.321   6.363   4.738 -0.9275 -0.6474  1.2201
 1360SOL     OW 5520   2.462   7.961  11.030  0.6248  0.0852 -0.4581
 1360SOL    HW1 5521   2.412   7.962  11.111 -1.7954  1.1968 -1.8630
 1360SOL    HW2 5522   2.446   7.874  10.992  1.7480 -0.4302  0.1959
 1361SOL     OW 5523   1.295   2.279   4.566  0.1656 -0.3656  0.0317
 1361SOL    HW1 5524   1.379   2.268   4.522  0.9244 -2.0585  1.7229
 1361SOL    HW2 5525   1.252   2.194   4.558 -0.9285  0.1537  0.1246
 1362SOL     OW 5526   0.820   1.054   5.303  0.1947 -0.2856 -0.3014
 1362SOL    HW1 5527   0.885   1.096   5.359 -0.1546 -0.3761  0.1769
 1362SOL    HW2 5528   0.737   1.071   5.346  0.0110 -1.1470 -0.2960
 1363SOL     OW 5529   6.974   0.878   5.125  0.1828 -0.2773  0.0287
 1363SOL    HW1 5530   6.917   0.928   5.066  2.9684  3.4914  0.1806
 1363SOL    HW2 5531   6.945   0.901   5.213 -0.2230 -1.1644  0.1377
 1364SOL     OW 5532   4.922   1.768   5.433 -0.4693  0.2777 -0.0182
 1364SOL    HW1 5533   4.842   1.750   5.483 -0.6525  0.7660 -0.1317
 1364SOL    HW2 5534   4.894   1.829   5.364  0.4586  2.3881  1.3780
 1365SOL     OW 5535   4.812   6.612   5.539  0.0837  0.1095 -0.1031
 1365SOL    HW1 5536   4.839   6.654   5.457  1.0164  1.3471  0.8041
 1365SOL    HW2 5537   4.824   6.519   5.523  2.4904  0.4325 -0.6590
 1366SOL     OW 5538   5.778   4.032   0.596 -0.0131 -0.5769  0.2583
 1366SOL    HW1 5539   5.857   4.084   0.581 -0.7618  0.2420 -1.0900
 1366SOL    HW2 5540   5.710   4.097   0.616 -0.4371 -1.2441  1.0895
 1367SOL     OW 5541   1.115   3.300   8.982  0.0650  0.4880  0.1259
 1367SOL    HW1 5542   1.198   3.275   8.944  0.1368 -0.6084  0.9324
 1367SOL    HW2 5543   1.050   3.279   8.915  0.3158 -0.0033  0.0348
 1368SOL     OW 5544   4.031   4.051   9.537 -0.1836 -0.5710  0.1506
 1368SOL    HW1 5545   3.936   4.057   9.524 -0.2253 -1.9051 -0.2512
 1368SOL    HW2 5546   4.068   4.062   9.450  0.0380 -0.2394  0.2819
 1369SOL     OW 5547   0.542   0.532   2.228 -0.2287  0.3160 -0.6516
 1369SOL    HW1 5548   0.482   0.598   2.263  0.3666  0.1350  0.7863
 1369SOL    HW2 5549   0.608   0.582   2.181 -0.0087  0.7181  0.0818
 1370SOL     OW 5550   1.883   1.694  10.871  0.6018 -0.0273 -0.7069
 1370SOL    HW1 5551   1.851   1.658  10.789 -0.2750  1.0320 -0.8394
 1370SOL    HW2 5552   1.915   1.618  10.920  0.1839 -0.7822 -1.5945
 1371SOL     OW 5553   3.148   4.638   5.592  0.6783  0.1010 -0.0623
 1371SOL    HW1 5554   3.117   4.682   5.671  0.6702  0.4162 -0.2365
 1371SOL    HW2 5555   3.235   4.605   5.615 -0.2425 -1.8419  0.8174
 1372SOL     OW 5556   1.048   2.181   1.413  0.2856 -0.2330  0.0230
 1372SOL    HW1 5557   1.027   2.180   1.320 -1.1955 -0.4040  0.3316
 1372SOL    HW2 5558   1.034   2.091   1.442  0.5442 -0.1385  0.4559
 1373SOL     OW 5559   6.318   3.838   8.024 -0.4443 -0.5714 -0.6770
 1373SOL    HW1 5560   6.270   3.862   8.103 -0.9042 -1.9736 -0.5001
 1373SOL    HW2 5561   6.253   3.797   7.968 -0.0957  0.2855 -1.7560
 1374SOL     OW 5562   7.169   7.064   6.582 -0.8236  0.0710 -0.2535
 1374SOL    HW1 5563   7.171   6.990   6.520 -0.4635 -1.2425  1.2678
 1374SOL    HW2 5564   7.241   7.120   6.554 -0.7525 -0.4282 -1.1049
 1375SOL     OW 5565   2.116   1.219  10.497  0.3353  0.0144 -0.3298
 1375SOL    HW1 5566   2.167   1.185  10.423 -1.0695  0.4645 -1.5661
 1375SOL    HW2 5567   2.121   1.314  10.488  0.4027  0.0776  0.3372
 1376SOL     OW 5568   5.266   1.883   6.270 -0.1312 -0.1464 -0.5108
 1376SOL    HW1 5569   5.323   1.955   6.245  0.2240  0.0511  0.8013
 1376SOL    HW2 5570   5.194   1.925   6.317  0.9906 -0.7335  1.8818
 1377SOL     OW 5571   7.379   2.507   4.654  0.1089  0.1027 -0.4980
 1377SOL    HW1 5572   7.340   2.495   4.567  0.1620 -0.5174 -0.4401
 1377SOL    HW2 5573   7.461   2.458   4.651 -0.6401 -1.2991  0.3985
 1378SOL     OW 5574   3.771   4.388   1.699  0.5012  0.1003 -0.2621
 1378SOL    HW1 5575   3.752   4.351   1.785 -1.1298 -0.4290 -0.8206
 1378SOL    HW2 5576   3.711   4.463   1.691  0.0014 -0.3913 -1.2832
 1379SOL     OW 5577   5.146   6.724  11.578  0.3612 -0.2163 -0.1928
 1379SOL    HW1 5578   5.093   6.802  11.595  2.6613  1.2322  0.9549
 1379SOL    HW2 5579   5.219   6.757  11.524  1.5669 -1.4676  0.6035
 1380SOL     OW 5580   3.684   1.654   8.471 -0.0934 -0.2684 -0.2891
 1380SOL    HW1 5581   3.779   1.660   8.483  0.0849 -0.7900 -1.4006
 1380SOL    HW2 5582   3.660   1.739   8.434  0.2096 -0.7727 -1.6800
 1381SOL     OW 5583   4.087   1.145   6.217  0.6374 -0.0651 -0.3478
 1381SOL    HW1 5584   4.000   1.179   6.197 -0.0853 -0.4800  1.8101
 1381SOL    HW2 5585   4.119   1.109   6.134 -2.4987 -2.6261 -0.6181
 1382SOL     OW 5586   5.520   5.749  11.636 -0.3075  0.0094 -0.0153
 1382SOL    HW1 5587   5.610   5.721  11.621  0.1253  0.6008  1.3070
 1382SOL    HW2 5588   5.498   5.712  11.722 -0.4222  1.9741  0.8407
 1383SOL     OW 5589   3.067   1.463   3.573 -0.1997 -0.4963  0.1367
 1383SOL    HW1 5590   3.035   1.553   3.567 -0.9335 -0.6319  1.5981
 1383SOL    HW2 5591   3.066   1.432   3.482 -1.2438  0.5340 -0.2376
 1384SOL     OW 5592   3.102   0.856  10.550  0.1579 -0.1647  0.3903
 1384SOL    HW1 5593   3.050   0.867  10.471 -1.2778  1.5767  1.5165
 1384SOL    HW2 5594   3.105   0.761  10.564  0.8411 -0.5530 -1.9434
 1385SOL     OW 5595   0.251   0.321   8.026  0.0081 -0.1832  0.0036
 1385SOL    HW1 5596   0.182   0.350   8.085  1.5672  2.1909  0.8212
 1385SOL    HW2 5597   0.206   0.300   7.945 -2.2257 -3.6319  1.9186
 1386SOL     OW 5598   0.253   2.331   5.898  0.4350  0.1642  0.2073
 1386SOL    HW1 5599   0.204   2.397   5.948  0.6698  0.0418  0.6071
 1386SOL    HW2 5600   0.249   2.252   5.953 -1.2858 -0.6707 -1.0118
 1387SOL     OW 5601   0.766   2.063   7.310 -0.1036 -0.0094 -0.0555
 1387SOL    HW1 5602   0.755   2.064   7.405 -0.1588 -0.2153 -0.0586
 1387SOL    HW2 5603   0.826   1.989   7.293 -1.1770 -0.8565 -0.2874
 1388SOL     OW 5604   4.297   6.601   9.628 -0.0157 -0.2292  0.5096
 1388SOL    HW1 5605   4.335   6.640   9.707  0.1206 -0.5737  0.6202
 1388SOL    HW2 5606   4.278   6.675   9.571 -0.1743  0.0305  0.8924
 1389SOL     OW 5607   3.560   2.356   5.920  0.2247 -0.4060  0.2221
 1389SOL    HW1 5608   3.535   2.448   5.913  0.9913 -0.2671 -0.8769
 1389SOL    HW2 5609   3.585   2.345   6.012  1.6185  0.8899  0.0313
 1390SOL     OW 5610   4.081   4.733   1.098 -0.2455  0.2816 -0.0082
 1390SOL    HW1 5611   4.076   4.798   1.168  0.2176 -0.2792  0.5569
 1390SOL    HW2 5612   4.141   4.667   1.131  0.9703  0.6107 -1.4465
 1391SOL     OW 5613   3.470   1.800   3.927  0.0888  0.0158 -0.5218
 1391SOL    HW1 5614   3.506   1.880   3.967 -0.8929  0.7190 -0.9960
 1391SOL    HW2 5615   3.471   1.818   3.833 -0.3638 -0.4289 -0.6159
 1392SOL     OW 5616   1.695   7.055  12.188 -0.1130  0.2799 -0.9965
 1392SOL    HW1 5617   1.713   7.122  12.122 -2.6924 -0.0244 -2.1455
 1392SOL    HW2 5618   1.669   6.978  12.138 -2.0085 -0.0089  0.3301
 1393SOL     OW 5619   2.327   3.045   4.048  0.0332  0.0762  0.1871
 1393SOL    HW1 5620   2.364   3.122   4.091  0.2906 -0.2418  0.5407
 1393SOL    HW2 5621   2.390   2.975   4.066 -0.7301 -0.4740  0.7850
 1394SOL     OW 5622   7.577   2.430   4.157 -0.4632 -0.7588  0.0533
 1394SOL    HW1 5623   7.623   2.359   4.202  1.3428 -1.2481 -2.3271
 1394SOL    HW2 5624   7.596   2.508   4.208  2.1950 -1.1464 -0.2105
 1395SOL     OW 5625   1.209   0.930   2.551 -0.0238  0.2814  0.1990
 1395SOL    HW1 5626   1.183   0.847   2.511  0.3858 -0.0336  0.5792
 1395SOL    HW2 5627   1.147   0.943   2.623 -1.7712  1.6233 -1.4164
 1396SOL     OW 5628   6.410   2.174   2.751  0.7680 -0.2478  0.3123
 1396SOL    HW1 5629   6.317   2.195   2.765  0.8912 -0.2731  1.2228
 1396SOL    HW2 5630   6.457   2.251   2.781  1.1279 -1.0186  1.8286
 1397SOL     OW 5631   4.930   2.084   3.653 -0.2039  0.1766  0.0789
 1397SOL    HW1 5632   4.856   2.024   3.663  2.0970 -3.0662 -0.6466
 1397SOL    HW2 5633   4.920   2.148   3.723 -3.0328 -0.7985  0.6752
 1398SOL     OW 5634   0.233   4.591   4.213  0.5283  0.6074  0.4076
 1398SOL    HW1 5635   0.200   4.509   4.250  1.8180  0.4310  1.2090
 1398SOL    HW2 5636   0.187   4.599   4.129 -1.6017  0.4290  1.4714
 1399SOL     OW 5637   0.700   5.729   4.194  0.7319 -0.4714 -0.7493
 1399SOL    HW1 5638   0.632   5.792   4.170 -0.4860 -1.8185 -0.9544
 1399SOL    HW2 5639   0.764   5.735   4.124  1.6848  1.9318  0.2151
 1400SOL     OW 5640   3.483   0.884  11.588 -0.1610  0.2850 -0.1172
 1400SOL    HW1 5641   3.538   0.833  11.647 -1.0247 -0.3841  0.1150
 1400SOL    HW2 5642   3.545   0.925  11.527  0.7983  1.4295  1.5544
 1401SOL     OW 5643   5.153   0.781   7.758 -0.9287 -0.2715  0.1848
 1401SOL    HW1 5644   5.181   0.789   7.849 -0.4605 -1.2534  0.1388
 1401SOL    HW2 5645   5.158   0.870   7.723  0.8053 -0.1942  0.5714
 1402SOL     OW 5646   4.797   1.000   1.551  0.4887  0.5550 -0.0547
 1402SOL    HW1 5647   4.726   1.051   1.591 -1.8890 -2.0577 -0.6909
 1402SOL    HW2 5648   4.790   1.019   1.458 -0.0137 -0.3747 -0.2221
 1403SOL     OW 5649   2.535   1.953   3.754  0.0278 -0.5520 -0.0833
 1403SOL    HW1 5650   2.590   1.917   3.684  1.3226  2.5403 -0.8521
 1403SOL    HW2 5651   2.497   2.032   3.715 -3.3518 -1.4214  1.1559
 1404SOL     OW 5652   1.863   2.104   7.526  0.2152 -0.3215  0.2912
 1404SOL    HW1 5653   1.927   2.147   7.470  0.3894 -0.0247  0.7135
 1404SOL    HW2 5654   1.784   2.096   7.472  0.9194 -1.6425 -0.5894
 1405SOL     OW 5655   0.258   7.241   9.738  0.2010  0.7913 -0.6544
 1405SOL    HW1 5656   0.193   7.309   9.758  0.4506  0.7121  0.4687
 1405SOL    HW2 5657   0.209   7.159   9.740  0.4699  0.6298  1.1277
 1406SOL     OW 5658   0.639   2.385  12.278  0.2193  0.1108 -0.3716
 1406SOL    HW1 5659   0.726   2.421  12.291  0.3441 -0.2472 -0.2050
 1406SOL    HW2 5660   0.620   2.338  12.359  0.8623 -1.8370 -1.2853
 1407SOL     OW 5661   0.714   1.061   9.986 -0.4826 -0.7769  0.3698
 1407SOL    HW1 5662   0.798   1.074  10.031 -0.1736 -0.7871 -0.1987
 1407SOL    HW2 5663   0.689   1.148   9.954 -1.4802 -0.4689  1.8869
 1408SOL     OW 5664   3.204   0.104   0.014  0.1678 -0.4202 -0.3479
 1408SOL    HW1 5665   3.170   0.016  -0.004  0.7577 -0.8715  0.6912
 1408SOL    HW2 5666   3.268   0.120  -0.055  0.3317 -0.9609 -0.3238
 1409SOL     OW 5667   1.300   4.890   0.365  0.3053  0.0551  0.1037
 1409SOL    HW1 5668   1.307   4.985   0.368 -0.0612  0.1184 -0.6329
 1409SOL    HW2 5669   1.380   4.858   0.407 -0.2224  0.6707  1.6243
 1410SOL     OW 5670   7.034   4.027  12.044 -0.2895  0.2049  0.7973
 1410SOL    HW1 5671   6.980   4.047  12.120  0.2954 -1.2813  1.6266
 1410SOL    HW2 5672   7.113   3.987  12.080  1.8874  3.1494 -0.2817
 1411SOL     OW 5673   2.250   4.970  11.016 -0.4802  0.3139 -0.0666
 1411SOL    HW1 5674   2.216   4.891  11.058 -0.6072  0.8724  0.9074
 1411SOL    HW2 5675   2.193   5.040  11.047  0.7373  1.0678  0.5587
 1412SOL     OW 5676   5.232   3.664   4.071 -0.0039  0.3183  0.7020
 1412SOL    HW1 5677   5.223   3.577   4.111 -0.5373 -0.0017 -0.1014
 1412SOL    HW2 5678   5.144   3.685   4.040  0.4573  0.4147 -0.6062
 1413SOL     OW 5679   4.721   5.575  11.742 -0.5859  0.2233  0.2915
 1413SOL    HW1 5680   4.702   5.664  11.771 -1.8395  0.2862 -0.6321
 1413SOL    HW2 5681   4.674   5.519  11.805  0.2720  0.1940  0.9227
 1414SOL     OW 5682   4.976   0.306   7.697 -1.0430  0.1321  0.1083
 1414SOL    HW1 5683   4.946   0.234   7.640 -2.4678  1.1507 -0.4994
 1414SOL    HW2 5684   5.014   0.369   7.636  3.0907 -1.3130  0.8780
 1415SOL     OW 5685   5.015   7.805  11.259 -0.3724  0.6106 -0.1348
 1415SOL    HW1 5686   5.012   7.747  11.184 -0.2481 -2.0434  1.7795
 1415SOL    HW2 5687   4.928   7.844  11.264 -0.7906 -0.2057 -0.9049
 1416SOL     OW 5688   2.184   4.742   4.760 -0.0546 -0.3207 -0.2998
 1416SOL    HW1 5689   2.115   4.679   4.784 -0.6919  1.0978  1.8308
 1416SOL    HW2 5690   2.198   4.793   4.839  2.7342  0.1547 -1.0270
 1417SOL     OW 5691   2.091   2.995   6.426  0.4102 -0.9011  0.1231
 1417SOL    HW1 5692   2.130   3.074   6.387  2.0397 -1.2090  1.0305
 1417SOL    HW2 5693   2.163   2.933   6.430 -0.3985 -1.8072  1.1249
 1418SOL     OW 5694   6.741   0.839   0.260  0.1617 -0.0339 -0.8305
 1418SOL    HW1 5695   6.733   0.877   0.348  0.5622  3.2661 -2.0649
 1418SOL    HW2 5696   6.834   0.847   0.240  0.0854 -0.8611 -1.5422
 1419SOL     OW 5697   2.997   2.144   8.452 -0.3102 -0.0919 -0.0783
 1419SOL    HW1 5698   3.058   2.208   8.416 -0.5222  0.2410  0.1497
 1419SOL    HW2 5699   3.053   2.076   8.490 -0.0849 -0.1482 -0.5037
 1420SOL     OW 5700   1.985   6.246   1.235  0.3020 -0.6519  0.3976
 1420SOL    HW1 5701   2.013   6.270   1.323 -1.1771 -0.8801  0.9443
 1420SOL    HW2 5702   2.055   6.281   1.178  1.0166 -0.0565  1.5974
 1421SOL     OW 5703   1.680   2.952   4.701  0.3445  0.2788 -0.3861
 1421SOL    HW1 5704   1.702   3.014   4.770 -1.6498  0.7112 -0.0679
 1421SOL    HW2 5705   1.713   2.868   4.733 -0.0290  0.5801  0.8405
 1422SOL     OW 5706   3.317   0.406   7.916 -0.9298  0.1373  0.0609
 1422SOL    HW1 5707   3.323   0.486   7.968 -1.2131 -0.0723  0.4268
 1422SOL    HW2 5708   3.393   0.409   7.859  0.4152 -0.4816  1.7317
 1423SOL     OW 5709   4.141   6.847   4.615  0.1029  0.3975  0.1982
 1423SOL    HW1 5710   4.051   6.825   4.637  0.2283 -0.2000  0.1282
 1423SOL    HW2 5711   4.134   6.904   4.538 -0.1839 -0.3680 -0.3522
 1424SOL     OW 5712   6.209   4.314   0.467 -1.2174 -0.0533 -0.5487
 1424SOL    HW1 5713   6.224   4.405   0.439 -0.3996 -0.4796 -1.5761
 1424SOL    HW2 5714   6.127   4.290   0.424 -2.0296  0.5278  0.6181
 1425SOL     OW 5715   5.161   3.440   3.758  1.2511 -0.4807  0.8160
 1425SOL    HW1 5716   5.133   3.469   3.845 -0.5496  1.5936 -0.3713
 1425SOL    HW2 5717   5.195   3.519   3.716 -0.0606 -0.8794 -1.1350
 1426SOL     OW 5718   5.263   6.715   2.724 -0.2137  0.0475  0.0445
 1426SOL    HW1 5719   5.267   6.678   2.812 -0.8587 -0.4720 -0.1355
 1426SOL    HW2 5720   5.196   6.782   2.729 -0.0312  0.2340  0.0225
 1427SOL     OW 5721   6.454   1.497   4.927 -0.4596 -0.4219  0.2430
 1427SOL    HW1 5722   6.512   1.425   4.954 -0.8595 -0.8286  0.0216
 1427SOL    HW2 5723   6.420   1.470   4.842 -1.0790 -0.2477  0.4296
 1428SOL     OW 5724   3.999   3.417   1.176 -0.2095 -0.5693 -0.2528
 1428SOL    HW1 5725   3.941   3.466   1.118  0.3666  0.3372 -0.0803
 1428SOL    HW2 5726   3.942   3.353   1.219 -1.0154  0.1154 -0.2939
 1429SOL     OW 5727   6.583   5.805   4.105 -0.4800  0.3093 -0.5649
 1429SOL    HW1 5728   6.495   5.787   4.138 -0.8802  1.9812 -0.6516
 1429SOL    HW2 5729   6.641   5.766   4.171 -1.2765  1.2623  0.7516
 1430SOL     OW 5730   2.737   0.010   6.891 -0.2146 -0.0264  0.3426
 1430SOL    HW1 5731   2.822   0.012   6.849 -0.3580  0.4858  0.0658
 1430SOL    HW2 5732   2.720   0.101   6.916 -0.8522 -0.0473  0.0267
 1431SOL     OW 5733   1.312   4.936   9.672 -0.3017 -0.3529  0.4358
 1431SOL    HW1 5734   1.400   4.962   9.646 -0.2618  0.3055  1.1549
 1431SOL    HW2 5735   1.256   4.963   9.599 -0.0666  0.4680  0.5496
 1432SOL     OW 5736   1.329   3.231   6.336 -0.3461 -0.1165  0.2135
 1432SOL    HW1 5737   1.342   3.287   6.413  1.7056  1.2624 -1.0488
 1432SOL    HW2 5738   1.252   3.268   6.293 -0.3844  0.2806  0.6093
 1433SOL     OW 5739   2.439   1.669   1.145  0.1058 -0.2586  0.4766
 1433SOL    HW1 5740   2.356   1.633   1.112 -0.9826  2.2989  0.2436
 1433SOL    HW2 5741   2.426   1.676   1.240  0.7339 -1.4089  0.6692
 1434SOL     OW 5742   3.998   1.224   5.309 -0.3588 -0.3678 -0.1813
 1434SOL    HW1 5743   4.022   1.184   5.225 -0.5620  0.6156 -0.7267
 1434SOL    HW2 5744   4.081   1.258   5.343 -0.5429  0.8564 -0.8868
 1435SOL     OW 5745   2.986   3.631   2.664  0.5558 -0.4890 -0.5101
 1435SOL    HW1 5746   3.069   3.644   2.709  1.2806 -1.1809 -1.5927
 1435SOL    HW2 5747   2.991   3.687   2.587 -0.6492  0.6441  0.1950
 1436SOL     OW 5748   6.913   4.421   6.905  0.4955 -0.0518  0.4974
 1436SOL    HW1 5749   6.995   4.396   6.948 -0.4477 -1.8694  1.3785
 1436SOL    HW2 5750   6.924   4.392   6.814  1.1188  0.4637  0.3976
 1437SOL     OW 5751   0.661   6.620   4.234  0.3573  0.2237 -0.0281
 1437SOL    HW1 5752   0.652   6.528   4.206 -1.1273  0.5694 -0.7725
 1437SOL    HW2 5753   0.734   6.619   4.296 -1.0974 -1.8865  1.8290
 1438SOL     OW 5754   5.944   1.411   3.375 -0.3457 -0.1534 -0.2502
 1438SOL    HW1 5755   6.034   1.442   3.387 -1.2092  1.7325  2.6168
 1438SOL    HW2 5756   5.950   1.316   3.379  1.4995 -0.0598  0.1801
 1439SOL     OW 5757   7.592   4.213   0.500  0.1838 -0.2946  0.2635
 1439SOL    HW1 5758   7.596   4.205   0.596 -2.5274  0.0080  0.4695
 1439SOL    HW2 5759   7.648   4.289   0.481 -0.0473  0.2952  1.7392
 1440SOL     OW 5760   0.542   2.351   6.258  0.4297 -0.1720  0.5458
 1440SOL    HW1 5761   0.505   2.265   6.281  2.6246 -0.6483  2.5738
 1440SOL    HW2 5762   0.470   2.396   6.214 -1.0487 -2.7452  0.1169
 1441SOL     OW 5763   2.613   3.833   5.199 -0.0345 -0.3904 -0.1940
 1441SOL    HW1 5764   2.595   3.917   5.242 -0.5652 -0.3806 -0.4216
 1441SOL    HW2 5765   2.589   3.767   5.264  0.4591 -0.3700  0.0144
 1442SOL     OW 5766   5.766   2.931  12.358  0.1717  0.5084 -0.1572
 1442SOL    HW1 5767   5.855   2.900  12.340  0.0689  0.2445 -0.2191
 1442SOL    HW2 5768   5.774   2.983  12.438  0.2146 -0.3071  0.3740
 1443SOL     OW 5769   6.457   3.342   5.508  0.2465  0.9375 -0.0547
 1443SOL    HW1 5770   6.533   3.385   5.470  0.2451  2.0627  1.1371
 1443SOL    HW2 5771   6.404   3.414   5.543 -0.1967  0.0294  1.2211
 1444SOL     OW 5772   6.528   0.927  12.116 -0.7064  0.2821 -0.3611
 1444SOL    HW1 5773   6.476   0.867  12.170 -1.2067  0.3427 -0.7700
 1444SOL    HW2 5774   6.466   0.994  12.087 -0.0692  1.2263  0.4094
 1445SOL     OW 5775   2.411   0.266   6.498  0.4821 -0.2429 -0.1332
 1445SOL    HW1 5776   2.319   0.292   6.492  1.0662  1.8941 -0.7678
 1445SOL    HW2 5777   2.438   0.250   6.408  1.1746  0.9916 -0.1756
 1446SOL     OW 5778   4.547   0.767   3.908  0.0768  0.5318  0.5097
 1446SOL    HW1 5779   4.576   0.857   3.921  0.2744  0.3827  1.1156
 1446SOL    HW2 5780   4.508   0.741   3.992  0.5777 -0.1554  0.5394
 1447SOL     OW 5781   6.433   6.728  12.354 -0.1004 -0.1053  0.9267
 1447SOL    HW1 5782   6.377   6.795  12.316  1.2073  0.4161 -0.1595
 1447SOL    HW2 5783   6.376   6.679  12.413 -1.0737  1.9590  1.7727
 1448SOL     OW 5784   1.112   3.955   7.482 -0.0760  0.3776  0.3589
 1448SOL    HW1 5785   1.165   3.911   7.549 -0.1421 -0.3581 -0.0557
 1448SOL    HW2 5786   1.043   3.893   7.462  0.7930 -0.0684 -1.4492
 1449SOL     OW 5787   4.187   3.703  10.466  0.0984 -0.6494 -0.2709
 1449SOL    HW1 5788   4.189   3.725  10.559  1.4424 -0.8042 -0.2421
 1449SOL    HW2 5789   4.236   3.621  10.459  2.4037  0.7055 -1.4061
 1450SOL     OW 5790   6.445   5.230   1.046  0.0307  0.0804 -0.1882
 1450SOL    HW1 5791   6.362   5.269   1.074 -0.0625 -1.2143  1.5257
 1450SOL    HW2 5792   6.420   5.163   0.982 -0.0299  1.0579 -1.2158
 1451SOL     OW 5793   4.754   4.280   5.878  0.0283  0.1707 -0.6252
 1451SOL    HW1 5794   4.726   4.199   5.836  0.5455  0.0291 -0.6988
 1451SOL    HW2 5795   4.802   4.252   5.955  1.6382  0.3512 -1.5252
 1452SOL     OW 5796   4.289   0.552   9.031  0.1355  0.0814  0.3299
 1452SOL    HW1 5797   4.322   0.478   8.980  0.4963  0.3377  0.1875
 1452SOL    HW2 5798   4.223   0.592   8.974 -0.7006 -0.6499  0.7640
 1453SOL     OW 5799   1.196   5.714  10.386  0.1096 -0.3744 -0.2708
 1453SOL    HW1 5800   1.210   5.623  10.410 -0.0695 -0.5979 -0.9755
 1453SOL    HW2 5801   1.183   5.759  10.469  0.4805 -0.9366  0.1039
 1454SOL     OW 5802   5.521   7.847   7.703  0.3511  0.4812 -0.4248
 1454SOL    HW1 5803   5.501   7.843   7.609  0.5682 -0.6198 -0.4388
 1454SOL    HW2 5804   5.613   7.823   7.709  0.5156  1.1929  0.0295
 1455SOL     OW 5805   5.406   1.721  10.302 -0.6430 -0.0580 -0.6241
 1455SOL    HW1 5806   5.320   1.702  10.340 -1.3032  1.7135 -1.1341
 1455SOL    HW2 5807   5.444   1.786  10.360 -0.0640 -0.0911 -0.9586
 1456SOL     OW 5808   7.282   6.054   8.277  0.6506  0.5553  1.1410
 1456SOL    HW1 5809   7.239   5.976   8.240  1.1308  1.4303 -1.5064
 1456SOL    HW2 5810   7.309   6.027   8.364 -1.4529 -1.4042  1.3023
 1457SOL     OW 5811   1.500   4.446   4.621  0.1718  0.2071 -0.1645
 1457SOL    HW1 5812   1.527   4.500   4.547  3.0885 -1.3947 -0.4292
 1457SOL    HW2 5813   1.505   4.356   4.588 -0.6827 -0.4400  1.3532
 1458SOL     OW 5814   2.701   6.655  12.165  0.7679 -0.7262 -0.3705
 1458SOL    HW1 5815   2.789   6.639  12.133  0.7788 -0.6077 -0.3994
 1458SOL    HW2 5816   2.646   6.657  12.087  1.1568  2.1380 -0.6906
 1459SOL     OW 5817   3.808   5.662   8.973 -0.0775 -0.4158 -0.1199
 1459SOL    HW1 5818   3.729   5.716   8.967  0.3661  0.2182 -0.2971
 1459SOL    HW2 5819   3.821   5.630   8.884 -0.0207 -0.3616 -0.1312
 1460SOL     OW 5820   3.021   5.019   5.232 -0.1007  0.2678 -0.0138
 1460SOL    HW1 5821   2.953   5.086   5.228  1.0195  1.6983  2.3597
 1460SOL    HW2 5822   3.090   5.052   5.175 -0.6850 -0.3272 -1.0823
 1461SOL     OW 5823   1.851   0.498   4.944  0.2480 -0.0943 -0.9643
 1461SOL    HW1 5824   1.892   0.488   5.030 -0.5412  2.8379 -0.1304
 1461SOL    HW2 5825   1.821   0.409   4.922  0.3911 -0.9550  1.8167
 1462SOL     OW 5826   4.693   0.147   0.473 -0.1300 -0.3372 -0.6991
 1462SOL    HW1 5827   4.712   0.216   0.410 -0.3314 -1.1802 -1.7004
 1462SOL    HW2 5828   4.720   0.066   0.430  0.7272 -0.8451  0.7212
 1463SOL     OW 5829   1.432   1.264   0.971 -0.0997 -0.4583 -0.6285
 1463SOL    HW1 5830   1.485   1.321   1.026 -0.3228  0.0780 -0.9520
 1463SOL    HW2 5831   1.400   1.322   0.901  1.0855 -1.3344 -1.9667
 1464SOL     OW 5832   4.656   0.243   5.155  0.0029 -0.2268 -0.0176
 1464SOL    HW1 5833   4.625   0.201   5.236 -1.1959 -1.6198 -1.1256
 1464SOL    HW2 5834   4.681   0.170   5.099 -2.1135  0.4517 -2.0224
 1465SOL     OW 5835   0.856   2.687   5.902  0.2759  0.0799  0.0416
 1465SOL    HW1 5836   0.856   2.735   5.819  1.2480 -1.6748 -1.0281
 1465SOL    HW2 5837   0.769   2.649   5.909  0.3257 -0.1207 -0.4029
 1466SOL     OW 5838   5.427   5.226   0.144  0.0206  0.1194  0.3674
 1466SOL    HW1 5839   5.408   5.317   0.165 -0.0816  0.2070 -0.0932
 1466SOL    HW2 5840   5.341   5.187   0.124  0.0948 -0.0018  0.2789
 1467SOL     OW 5841   7.706   0.248  10.005 -0.3398 -0.1272 -0.0441
 1467SOL    HW1 5842   7.647   0.316   9.975  0.8258  0.6349 -0.7086
 1467SOL    HW2 5843   7.792   0.290  10.006  0.3756 -1.5284 -0.2798
 1468SOL     OW 5844   1.320   6.857  10.919  0.0887  0.4085 -0.1439
 1468SOL    HW1 5845   1.320   6.883  10.827  1.1114 -2.1796 -0.9584
 1468SOL    HW2 5846   1.258   6.785  10.924  0.5470  0.0750  1.0616
 1469SOL     OW 5847   2.414   4.309   6.571  0.1102  0.5571  0.4532
 1469SOL    HW1 5848   2.364   4.314   6.489 -2.1675  2.8440  1.8548
 1469SOL    HW2 5849   2.473   4.384   6.568  0.5576  0.2201  0.6289
 1470SOL     OW 5850   1.937   3.387   4.652 -0.0607  0.1110  0.1664
 1470SOL    HW1 5851   1.908   3.409   4.740 -1.1130  0.2979 -0.2055
 1470SOL    HW2 5852   1.864   3.414   4.596 -0.0663 -1.3893 -0.6066
 1471SOL     OW 5853   0.454   5.028   9.013  0.0435  0.1277 -0.1825
 1471SOL    HW1 5854   0.495   5.099   9.062 -1.7495  1.1172 -0.0049
 1471SOL    HW2 5855   0.412   4.974   9.079 -1.4845  0.8679 -0.4976
 1472SOL     OW 5856   4.893   5.551   5.654 -0.3730  0.1494 -0.0106
 1472SOL    HW1 5857   4.971   5.564   5.708 -0.1800 -0.4614 -0.1335
 1472SOL    HW2 5858   4.846   5.634   5.659 -0.5312  0.0073  1.3710
 1473SOL     OW 5859   7.741   1.228   3.246 -0.2155  0.4539 -0.5736
 1473SOL    HW1 5860   7.768   1.226   3.154  1.5885  0.4632 -0.0821
 1473SOL    HW2 5861   7.758   1.317   3.274  2.3598 -0.3073  0.5799
 1474SOL     OW 5862   5.376   7.041   5.944 -0.0746 -0.0982 -0.4450
 1474SOL    HW1 5863   5.330   7.125   5.951 -0.0120  0.1153 -2.0347
 1474SOL    HW2 5864   5.336   6.999   5.868 -0.7888 -1.9820  0.9240
 1475SOL     OW 5865   3.230   1.646   8.684 -0.1833  0.0129 -0.9965
 1475SOL    HW1 5866   3.219   1.580   8.616  1.9896 -1.0819 -0.3668
 1475SOL    HW2 5867   3.196   1.727   8.644  0.5619 -0.6923 -3.2234
 1476SOL     OW 5868   3.610   7.060   7.933  0.0779 -0.1977  0.4090
 1476SOL    HW1 5869   3.545   7.018   7.989 -1.1115  1.6555  0.5140
 1476SOL    HW2 5870   3.600   7.017   7.848 -0.3938 -0.7823  0.7517
 1477SOL     OW 5871   4.764   0.222   9.859  0.2179 -0.3349 -0.1236
 1477SOL    HW1 5872   4.761   0.301   9.914  3.2689  0.8081 -1.3822
 1477SOL    HW2 5873   4.685   0.229   9.804 -0.9943  0.3534  1.5902
 1478SOL     OW 5874   5.285   4.907   6.682  0.5500  0.0958  0.5952
 1478SOL    HW1 5875   5.274   4.988   6.632 -0.3046 -0.1380  0.3925
 1478SOL    HW2 5876   5.221   4.847   6.645  0.2650 -0.2499  1.6073
 1479SOL     OW 5877   1.379   2.192   7.904 -0.0590 -0.4661  0.2311
 1479SOL    HW1 5878   1.438   2.118   7.890  0.3800 -0.3825  1.4945
 1479SOL    HW2 5879   1.435   2.262   7.937 -0.5490  0.2839 -0.4701
 1480SOL     OW 5880   7.607   1.057   1.439 -0.2610  0.1213 -0.4420
 1480SOL    HW1 5881   7.677   1.009   1.483 -1.5989 -2.3004 -0.8190
 1480SOL    HW2 5882   7.652   1.110   1.373  1.2819 -0.6216 -0.0289
 1481SOL     OW 5883   4.960   6.879   0.359  0.1067  0.0899  0.1882
 1481SOL    HW1 5884   4.976   6.858   0.267  0.8185  2.1636 -0.2303
 1481SOL    HW2 5885   5.043   6.861   0.403 -0.4061 -1.4690  0.5858
 1482SOL     OW 5886   5.693   7.932  11.133  0.3583  0.3792  0.0965
 1482SOL    HW1 5887   5.708   7.999  11.199 -0.0742  0.8159 -0.2411
 1482SOL    HW2 5888   5.612   7.889  11.160  0.4428  0.2296  0.1144
 1483SOL     OW 5889   7.497   0.690  12.472 -0.6343 -0.3142 -0.2479
 1483SOL    HW1 5890   7.532   0.604  12.496  0.1276  0.4120  1.4132
 1483SOL    HW2 5891   7.574   0.742  12.450 -1.0297  0.1492 -0.5507
 1484SOL     OW 5892   2.069   2.485   3.685  0.6410 -0.1364 -0.1389
 1484SOL    HW1 5893   2.059   2.559   3.745  0.3967 -0.2948  0.0142
 1484SOL    HW2 5894   2.043   2.408   3.736 -0.0451 -0.2147 -0.5934
 1485SOL     OW 5895   7.129   4.669   5.800  0.8436 -0.1296 -0.1950
 1485SOL    HW1 5896   7.044   4.627   5.793  0.9224 -0.7909  2.1310
 1485SOL    HW2 5897   7.165   4.640   5.884  2.9448  0.9102 -0.6392
 1486SOL     OW 5898   4.847   6.874   3.855 -0.4635 -0.2070 -0.3191
 1486SOL    HW1 5899   4.792   6.924   3.915  1.8891 -0.2032  1.9971
 1486SOL    HW2 5900   4.788   6.807   3.819 -2.4214  1.0171  0.4236
 1487SOL     OW 5901   5.552   3.279   0.351  0.2154 -0.6335  0.3405
 1487SOL    HW1 5902   5.537   3.231   0.269  1.7715  0.7101 -0.8024
 1487SOL    HW2 5903   5.495   3.356   0.344  1.6948  0.4285 -0.3666
 1488SOL     OW 5904   5.646   0.313  11.169  0.4985 -0.3878  0.0423
 1488SOL    HW1 5905   5.642   0.227  11.210  0.6933  0.5734  2.2067
 1488SOL    HW2 5906   5.739   0.329  11.156  0.4451 -0.6226 -0.6480
 1489SOL     OW 5907   1.915   4.453   5.122 -0.7663 -0.1394  0.3437
 1489SOL    HW1 5908   1.871   4.460   5.206  0.8900 -1.3490  1.3738
 1489SOL    HW2 5909   1.986   4.390   5.137 -0.5890 -0.5999 -2.0296
 1490SOL     OW 5910   0.696   4.015   4.332 -0.5778 -0.2290 -0.3675
 1490SOL    HW1 5911   0.706   3.999   4.426  2.0951 -1.2844 -0.7688
 1490SOL    HW2 5912   0.757   4.086   4.313 -0.6504 -0.4356 -1.4210
 1491SOL     OW 5913   6.358   7.337   7.614  0.1390  0.6483  0.3323
 1491SOL    HW1 5914   6.432   7.315   7.670 -1.3523  2.7336  3.4723
 1491SOL    HW2 5915   6.394   7.394   7.547  1.4860  1.0571  1.3612
 1492SOL     OW 5916   2.695   5.422   0.091 -0.3640 -0.1936 -0.0532
 1492SOL    HW1 5917   2.662   5.368   0.163  0.3242 -1.9513 -0.9809
 1492SOL    HW2 5918   2.790   5.422   0.102 -0.3007  0.0609 -0.5880
 1493SOL     OW 5919   5.077   4.215   2.480  0.5044  0.1655 -0.0487
 1493SOL    HW1 5920   5.065   4.151   2.550 -0.3695  0.1103 -0.2391
 1493SOL    HW2 5921   5.081   4.163   2.400 -1.2294  0.3725 -0.3179
 1494SOL     OW 5922   7.188   2.812   9.474 -0.7005 -0.3921 -0.2532
 1494SOL    HW1 5923   7.156   2.725   9.451  0.8578 -1.3395  1.0331
 1494SOL    HW2 5924   7.264   2.826   9.416  0.0874 -0.6244  0.7012
 1495SOL     OW 5925   5.901   3.067   2.317 -0.2128 -0.4823 -0.3106
 1495SOL    HW1 5926   5.876   3.010   2.244  1.8230 -1.1552 -0.5708
 1495SOL    HW2 5927   5.919   3.152   2.277  0.2144 -0.6588 -0.5014
 1496SOL     OW 5928   6.700   0.175  11.363 -0.0529  0.6035  0.1617
 1496SOL    HW1 5929   6.776   0.233  11.354 -1.0823  1.7163 -2.2616
 1496SOL    HW2 5930   6.714   0.107  11.296 -0.4088 -0.1721  0.8488
 1497SOL     OW 5931   2.474   2.690   9.339 -0.4653 -0.6149  0.2379
 1497SOL    HW1 5932   2.489   2.684   9.434 -0.1556  0.5992  0.2852
 1497SOL    HW2 5933   2.560   2.681   9.300 -0.1936  1.3997  0.2405
 1498SOL     OW 5934   4.363   1.223   2.488 -0.0239 -1.0210  0.1004
 1498SOL    HW1 5935   4.429   1.272   2.439  0.8368 -2.0895  0.1482
 1498SOL    HW2 5936   4.380   1.246   2.580 -0.2584 -0.6515  0.0510
 1499SOL     OW 5937   7.764   3.889  10.437 -0.0889 -0.3664  0.3657
 1499SOL    HW1 5938   7.688   3.832  10.428 -0.6023  0.4814 -0.8840
 1499SOL    HW2 5939   7.763   3.944  10.359  2.2780 -0.8928 -0.1416
 1500SOL     OW 5940   3.560   2.115   0.617  0.3894 -0.3729  0.4354
 1500SOL    HW1 5941   3.558   2.030   0.573 -0.2143 -0.7390  1.1483
 1500SOL    HW2 5942   3.469   2.131   0.642  0.3825  0.8073 -0.2777
 1501SOL     OW 5943   7.106   0.361   4.235  0.4229  0.2192  0.3861
 1501SOL    HW1 5944   7.071   0.281   4.196  0.4691 -0.1806  1.1334
 1501SOL    HW2 5945   7.041   0.386   4.301 -1.2994  2.6912 -2.0265
 1502SOL     OW 5946   0.752   2.996   2.544  0.2453 -0.0850  0.0247
 1502SOL    HW1 5947   0.839   3.002   2.584 -0.2032  2.9102  0.8265
 1502SOL    HW2 5948   0.706   2.929   2.595  1.5317 -0.4431  0.7537
 1503SOL     OW 5949   5.975   1.219  12.017  0.6514 -0.3131 -0.2914
 1503SOL    HW1 5950   6.045   1.282  12.000 -0.7259  2.1265  2.1984
 1503SOL    HW2 5951   5.951   1.185  11.931  2.8158  1.0769 -1.5138
 1504SOL     OW 5952   2.588   4.782   4.920 -0.2593 -0.0889 -0.1177
 1504SOL    HW1 5953   2.594   4.823   5.006 -0.3886 -1.0777  0.3862
 1504SOL    HW2 5954   2.640   4.702   4.929 -0.2391 -0.1775 -0.9788
 1505SOL     OW 5955   0.299   0.102   2.915 -0.6284  0.1752  0.1261
 1505SOL    HW1 5956   0.248   0.027   2.945 -0.5293 -0.5013 -1.2893
 1505SOL    HW2 5957   0.344   0.070   2.836  0.1909  1.4343  0.0565
 1506SOL     OW 5958   7.846   7.934   7.464 -0.1230 -0.0776 -0.0391
 1506SOL    HW1 5959   7.903   7.897   7.531  0.9442  0.3437 -0.7042
 1506SOL    HW2 5960   7.860   8.028   7.470 -0.4886  0.0075 -0.4484
 1507SOL     OW 5961   6.255   2.145  10.590  0.1645 -0.0833 -0.0315
 1507SOL    HW1 5962   6.170   2.134  10.634 -0.4302  1.8937 -0.5864
 1507SOL    HW2 5963   6.288   2.056  10.580 -1.0874 -0.7996  1.6492
 1508SOL     OW 5964   4.826   6.985  11.113 -0.1482  0.4479 -0.5305
 1508SOL    HW1 5965   4.827   6.979  11.017 -2.3930  2.4821 -0.7921
 1508SOL    HW2 5966   4.781   6.906  11.141  1.0124 -0.4334 -1.0935
 1509SOL     OW 5967   6.845   5.493   3.288 -0.1526  0.2979  0.4813
 1509SOL    HW1 5968   6.837   5.463   3.379  0.2396 -1.2771  0.0329
 1509SOL    HW2 5969   6.824   5.586   3.291  0.1760  0.3474  2.2434
 1510SOL     OW 5970   1.415   5.274  10.612 -0.0895 -0.2799 -0.1915
 1510SOL    HW1 5971   1.450   5.204  10.557  2.5317 -0.7891  1.9264
 1510SOL    HW2 5972   1.481   5.344  10.607 -1.0131  0.6534  0.3542
 1511SOL     OW 5973   0.142   2.003  11.453  0.0504  0.1600 -0.5086
 1511SOL    HW1 5974   0.169   2.018  11.544  0.4310  2.2156 -0.9306
 1511SOL    HW2 5975   0.080   2.073  11.434  1.1601  0.7176 -2.3042
 1512SOL     OW 5976   2.172   7.316   0.145 -0.6721  0.1936  0.1142
 1512SOL    HW1 5977   2.082   7.290   0.162 -0.6860 -0.1823 -0.5039
 1512SOL    HW2 5978   2.219   7.233   0.132 -0.2404  0.3845  0.4129
 1513SOL     OW 5979   3.628   4.278   9.977  0.1471 -0.5585 -0.0138
 1513SOL    HW1 5980   3.614   4.251  10.068  0.3047 -1.1571 -0.1623
 1513SOL    HW2 5981   3.706   4.334   9.981  0.6901 -1.3098  0.0972
 1514SOL     OW 5982   1.422   3.747   7.798  0.1823 -0.4328 -0.1750
 1514SOL    HW1 5983   1.356   3.814   7.782  1.8972  1.0143 -1.6271
 1514SOL    HW2 5984   1.505   3.794   7.797  1.5554 -2.6493 -2.0970
 1515SOL     OW 5985   5.554   1.861   2.311  0.6285 -0.5981  0.2961
 1515SOL    HW1 5986   5.573   1.952   2.334  1.5914 -0.0793 -2.2529
 1515SOL    HW2 5987   5.566   1.813   2.393 -0.5633  1.6147  1.8742
 1516SOL     OW 5988   7.597   4.131  12.134  0.5115 -0.4011  0.1891
 1516SOL    HW1 5989   7.560   4.202  12.186  1.2428  0.1721 -0.0629
 1516SOL    HW2 5990   7.648   4.079  12.196  0.5192 -0.3240  0.2459
 1517SOL     OW 5991   2.891   4.009   0.627  0.3063 -0.6569  0.4281
 1517SOL    HW1 5992   2.921   4.100   0.635  0.6463 -0.8316  1.1956
 1517SOL    HW2 5993   2.813   4.005   0.682  1.1010 -1.1795  1.5483
 1518SOL     OW 5994   4.096   5.261   5.998  0.1581  0.6296  0.6393
 1518SOL    HW1 5995   4.033   5.254   5.926  0.9937 -3.9904  0.0175
 1518SOL    HW2 5996   4.102   5.171   6.032  1.9951  2.0417  4.6291
 1519SOL     OW 5997   6.914   2.569   1.205 -0.0363  0.4277 -0.2839
 1519SOL    HW1 5998   6.984   2.508   1.226  0.6442  1.1879 -0.2828
 1519SOL    HW2 5999   6.945   2.615   1.126 -0.0859  1.4455  0.2729
 1520SOL     OW 6000   6.162   6.274   7.320 -0.7066 -0.2249 -0.1805
 1520SOL    HW1 6001   6.180   6.193   7.368 -0.4295 -0.4875 -0.7117
 1520SOL    HW2 6002   6.141   6.244   7.231 -2.1293  0.1809 -0.0069
 1521SOL     OW 6003   6.066   7.294  11.278  0.3933 -0.0241  0.0891
 1521SOL    HW1 6004   6.020   7.321  11.199  1.1524 -2.6968 -1.4142
 1521SOL    HW2 6005   5.998   7.254  11.333 -0.0881  1.6073  0.7459
 1522SOL     OW 6006   1.715   7.604   6.622 -0.4872  0.7724 -0.1767
 1522SOL    HW1 6007   1.778   7.598   6.550  0.1986 -1.1614  0.5095
 1522SOL    HW2 6008   1.630   7.602   6.579 -0.0868  1.1374 -1.0129
 1523SOL     OW 6009   7.079   6.228   8.756 -0.1177 -0.3000  0.4359
 1523SOL    HW1 6010   7.093   6.307   8.807 -0.9851  2.2364 -2.8770
 1523SOL    HW2 6011   6.985   6.212   8.761 -0.1914 -0.1055 -0.2032
 1524SOL     OW 6012   2.831   6.986   4.696  0.3884 -0.1165 -0.4900
 1524SOL    HW1 6013   2.862   6.949   4.779 -0.6871  2.9628  1.4440
 1524SOL    HW2 6014   2.911   7.007   4.648  1.2159  1.3387  1.3872
 1525SOL     OW 6015   2.540   1.932   9.722  0.9464  0.7936 -0.0427
 1525SOL    HW1 6016   2.566   1.995   9.655  0.7315 -1.9875 -3.0194
 1525SOL    HW2 6017   2.444   1.936   9.722  0.8506 -0.4809 -1.3973
 1526SOL     OW 6018   4.949   0.207   8.417 -0.1356 -0.6329 -0.3950
 1526SOL    HW1 6019   4.901   0.125   8.405  0.9971 -1.6735  1.6439
 1526SOL    HW2 6020   5.041   0.182   8.409  0.2139  1.1796 -3.4481
 1527SOL     OW 6021   3.952   5.456   7.453 -0.3978  0.1448  0.5977
 1527SOL    HW1 6022   4.012   5.472   7.380 -2.1643 -2.9423 -1.7592
 1527SOL    HW2 6023   3.865   5.470   7.416 -1.3554  1.4650  3.0640
 1528SOL     OW 6024   3.169   5.630   8.417 -1.2030 -0.2290  0.5839
 1528SOL    HW1 6025   3.220   5.549   8.413 -0.9364 -0.0089 -0.8436
 1528SOL    HW2 6026   3.224   5.695   8.375 -1.4612  0.6974  1.6314
 1529SOL     OW 6027   5.387   3.866   8.918  0.2994 -0.2265  0.0611
 1529SOL    HW1 6028   5.395   3.915   8.835  1.1574  0.5919  0.6104
 1529SOL    HW2 6029   5.378   3.775   8.891  0.3866  0.0450 -0.9422
 1530SOL     OW 6030   5.150   5.421   1.993 -0.0902 -0.3170  0.3187
 1530SOL    HW1 6031   5.205   5.351   2.028 -1.0937 -1.1656  0.2537
 1530SOL    HW2 6032   5.208   5.470   1.934  0.4417 -1.5544 -0.2208
 1531SOL     OW 6033   2.658   4.013  11.370  0.0494 -0.4482  0.3266
 1531SOL    HW1 6034   2.666   4.041  11.461  0.3711  1.6552 -0.2782
 1531SOL    HW2 6035   2.618   4.088  11.326 -0.5267 -1.5963 -1.1895
 1532SOL     OW 6036   2.347   1.438   5.670 -0.0840 -0.3275  0.0655
 1532SOL    HW1 6037   2.264   1.391   5.660  0.7749 -2.7853  3.1457
 1532SOL    HW2 6038   2.414   1.375   5.644  0.9620  0.9944 -0.6090
 1533SOL     OW 6039   4.556   6.668   7.956 -0.4311 -0.2965  0.3232
 1533SOL    HW1 6040   4.489   6.706   7.900  0.0539  1.2274  0.7178
 1533SOL    HW2 6041   4.512   6.654   8.040  0.3665  3.7504  1.6547
 1534SOL     OW 6042   6.011   3.375  11.658 -0.2674  0.3722 -0.1679
 1534SOL    HW1 6043   6.105   3.392  11.647 -0.2107  1.3918  1.5802
 1534SOL    HW2 6044   5.968   3.451  11.617 -0.2062  1.4344  1.6438
 1535SOL     OW 6045   4.559   1.545   1.645  0.2007  0.0428 -0.1606
 1535SOL    HW1 6046   4.637   1.553   1.700  0.1762 -0.4848 -0.0483
 1535SOL    HW2 6047   4.566   1.457   1.607 -1.1669 -0.6432  1.1029
 1536SOL     OW 6048   6.562   6.806   8.665 -0.6808 -0.0993 -0.6166
 1536SOL    HW1 6049   6.559   6.851   8.581  0.2800  1.2782  0.0561
 1536SOL    HW2 6050   6.591   6.872   8.728  0.1629 -1.4918  0.5310
 1537SOL     OW 6051   3.738   1.102   8.584  0.3061 -0.2103 -0.2090
 1537SOL    HW1 6052   3.661   1.106   8.528 -0.0780 -1.9663  0.1351
 1537SOL    HW2 6053   3.812   1.102   8.524 -0.0003  0.1950 -0.5944
 1538SOL     OW 6054   0.830   6.964   8.596 -0.2089  0.1796  0.1413
 1538SOL    HW1 6055   0.812   6.994   8.507 -0.3059  2.6512  0.9074
 1538SOL    HW2 6056   0.926   6.968   8.603 -0.1502 -0.7447 -0.0697
 1539SOL     OW 6057   0.465   5.744  10.320  0.2508 -0.3388  0.1909
 1539SOL    HW1 6058   0.443   5.702  10.404  0.5714  0.4797  0.7018
 1539SOL    HW2 6059   0.421   5.690  10.254  0.0714 -1.0561  0.8771
 1540SOL     OW 6060   6.269   7.098   0.963  0.2984 -0.3435 -0.0379
 1540SOL    HW1 6061   6.293   7.189   0.948 -0.4441 -0.2451 -0.7574
 1540SOL    HW2 6062   6.173   7.100   0.969  0.2603 -1.0996 -0.3074
 1541SOL     OW 6063   1.011   2.342   7.771  0.5896 -0.7259  0.7238
 1541SOL    HW1 6064   1.040   2.432   7.780 -2.7396  0.5505  0.0677
 1541SOL    HW2 6065   0.942   2.332   7.838 -0.9896 -1.8540 -0.9767
 1542SOL     OW 6066   1.903   7.260   7.476  0.0292  0.0726  0.0652
 1542SOL    HW1 6067   1.901   7.344   7.521  0.3907 -0.0215  0.2558
 1542SOL    HW2 6068   1.980   7.215   7.511  0.5217  0.1421 -0.9146
 1543SOL     OW 6069   2.033   7.610   2.424 -0.0558 -0.4670 -0.2198
 1543SOL    HW1 6070   2.045   7.703   2.442 -1.5373 -0.0460 -1.2573
 1543SOL    HW2 6071   2.112   7.568   2.459  0.4772  1.1269  0.5570
 1544SOL     OW 6072   5.041   0.266   5.156 -0.0982 -0.0450  0.2622
 1544SOL    HW1 6073   4.978   0.278   5.085  0.1998 -1.1671 -0.2021
 1544SOL    HW2 6074   4.988   0.268   5.236 -0.5518  0.2659 -0.0427
 1545SOL     OW 6075   6.657   4.671   2.569  0.4241 -0.0506  0.4312
 1545SOL    HW1 6076   6.687   4.698   2.656  0.6721  1.4178 -0.0787
 1545SOL    HW2 6077   6.619   4.750   2.532 -2.5672 -1.3969  0.3565
 1546SOL     OW 6078   1.947   3.385   4.297  0.0496 -0.1598  0.2504
 1546SOL    HW1 6079   2.025   3.433   4.326  0.0619 -0.4772  0.7579
 1546SOL    HW2 6080   1.911   3.438   4.226  1.6802 -0.8694 -1.1702
 1547SOL     OW 6081   5.161   2.802   6.305 -0.6094  0.0717  0.1890
 1547SOL    HW1 6082   5.113   2.877   6.341 -1.8302 -0.5641 -0.0850
 1547SOL    HW2 6083   5.093   2.741   6.275  0.3395 -1.4340  0.9734
 1548SOL     OW 6084   2.791   7.581   6.544  0.4338 -0.1938 -0.2880
 1548SOL    HW1 6085   2.811   7.574   6.451  0.8676  3.5738 -0.6367
 1548SOL    HW2 6086   2.701   7.612   6.547  0.3436 -0.5218  0.5679
 1549SOL     OW 6087   1.339   3.768  10.350  0.3849 -0.3772  0.0239
 1549SOL    HW1 6088   1.248   3.782  10.321  0.8558 -1.4290 -2.1583
 1549SOL    HW2 6089   1.388   3.838  10.306  1.0246 -1.5962 -1.2679
 1550SOL     OW 6090   2.853   3.087   6.940  0.5841  0.0813  0.4244
 1550SOL    HW1 6091   2.906   3.009   6.957  0.1034 -0.2415  0.4765
 1550SOL    HW2 6092   2.830   3.080   6.847 -0.8156 -0.7176  0.7897
 1551SOL     OW 6093   0.446   6.870   4.895  0.1476  0.1699 -0.0372
 1551SOL    HW1 6094   0.368   6.827   4.859 -2.7798  3.1782  2.0417
 1551SOL    HW2 6095   0.458   6.947   4.839  1.2774  0.1122  0.1011
 1552SOL     OW 6096   7.296   7.590   0.339 -0.1917 -0.2545  0.0898
 1552SOL    HW1 6097   7.285   7.506   0.294  0.9242  1.2463 -3.3950
 1552SOL    HW2 6098   7.387   7.615   0.321 -0.6996  1.9975  0.3387
 1553SOL     OW 6099   3.958   6.019   0.075 -0.1473  0.0658  0.2878
 1553SOL    HW1 6100   4.021   5.956   0.111 -0.1779 -0.5076 -0.6381
 1553SOL    HW2 6101   3.875   5.971   0.074 -0.5813  0.7493  1.3097
 1554SOL     OW 6102   0.942   6.326   4.788 -0.5807  0.1264 -0.2772
 1554SOL    HW1 6103   0.939   6.416   4.819  1.8744  0.4648 -0.8427
 1554SOL    HW2 6104   0.956   6.334   4.693  0.8774 -0.8235 -0.1642
 1555SOL     OW 6105   6.877   4.886   5.332 -0.7513  0.2560  0.1077
 1555SOL    HW1 6106   6.783   4.899   5.319 -0.7803 -0.4837 -0.4543
 1555SOL    HW2 6107   6.884   4.804   5.380 -0.4947  1.5134  2.3904
 1556SOL     OW 6108   3.303   3.994  11.572  0.5286 -0.3003 -0.3156
 1556SOL    HW1 6109   3.327   3.910  11.612 -1.2100  0.8385  3.5838
 1556SOL    HW2 6110   3.370   4.055  11.602 -0.2118  0.4020 -0.0667
 1557SOL     OW 6111   4.716   6.132  10.904 -0.0777  0.0601 -0.7363
 1557SOL    HW1 6112   4.653   6.173  10.846 -0.3660  1.1332  0.2944
 1557SOL    HW2 6113   4.664   6.101  10.978  0.5809  0.9644  0.1248
 1558SOL     OW 6114   2.170   2.042   2.847 -0.5154  0.1637  0.5996
 1558SOL    HW1 6115   2.078   2.036   2.824 -0.6732 -1.0058  1.3917
 1558SOL    HW2 6116   2.178   1.988   2.927  0.4511  1.9295  1.7564
 1559SOL     OW 6117   6.742   4.967   1.764 -0.2524 -0.5186 -0.5553
 1559SOL    HW1 6118   6.692   5.036   1.807  0.7426 -0.1757  0.0819
 1559SOL    HW2 6119   6.724   4.888   1.814  0.1793 -0.3064 -0.0600
 1560SOL     OW 6120   3.119   3.090   8.534  0.4197  0.4674 -0.3269
 1560SOL    HW1 6121   3.199   3.066   8.581  1.0776 -0.3073 -1.7813
 1560SOL    HW2 6122   3.146   3.098   8.442 -0.8707  1.6788 -0.6456
 1561SOL     OW 6123   0.048   5.560   4.092 -0.1495  1.1698 -0.1940
 1561SOL    HW1 6124  -0.031   5.563   4.145 -0.1258 -0.2791 -0.0221
 1561SOL    HW2 6125   0.025   5.503   4.018  0.7798  0.5434 -0.0221
 1562SOL     OW 6126   2.334   2.539   9.076 -0.5134 -0.3395  0.0678
 1562SOL    HW1 6127   2.302   2.450   9.063  1.9662 -1.6195  1.9293
 1562SOL    HW2 6128   2.351   2.545   9.170  0.5898  1.6372 -0.2112
 1563SOL     OW 6129   4.220   6.313   5.051  0.2222  0.1142  0.5230
 1563SOL    HW1 6130   4.188   6.225   5.032 -0.0349  0.9378 -3.8360
 1563SOL    HW2 6131   4.312   6.310   5.027 -0.2852  1.4756 -1.8429
 1564SOL     OW 6132   2.313   5.329   6.334 -0.0845  0.0037 -0.1527
 1564SOL    HW1 6133   2.271   5.314   6.419  0.3036  0.6368  0.1577
 1564SOL    HW2 6134   2.324   5.424   6.329  1.2881 -0.1459 -0.2440
 1565SOL     OW 6135   6.358   0.818   2.429  0.0434 -0.2297  0.0655
 1565SOL    HW1 6136   6.405   0.771   2.361 -2.9086 -4.3578  0.4967
 1565SOL    HW2 6137   6.278   0.850   2.387  0.1248  0.9418  0.7283
 1566SOL     OW 6138   2.093   0.054   2.813  0.0598  0.4011  0.0076
 1566SOL    HW1 6139   2.170   0.061   2.756  0.1220  2.3343  0.2552
 1566SOL    HW2 6140   2.064  -0.036   2.803  1.6846 -0.0580 -0.9776
 1567SOL     OW 6141   3.559   6.256  10.507 -0.3662 -0.3922 -0.1260
 1567SOL    HW1 6142   3.514   6.315  10.446  1.2612  0.3705 -0.6437
 1567SOL    HW2 6143   3.649   6.252  10.475  0.3208 -0.6846  1.7168
 1568SOL     OW 6144   7.080   2.861   8.523 -0.0299  0.1627  0.4416
 1568SOL    HW1 6145   7.127   2.939   8.552  1.5152 -0.9324  0.9788
 1568SOL    HW2 6146   7.131   2.787   8.557  0.9707 -1.2315 -3.5642
 1569SOL     OW 6147   5.892   2.923  11.760 -0.7346  0.0933 -0.4673
 1569SOL    HW1 6148   5.960   2.949  11.698 -1.3880  1.0601 -0.8010
 1569SOL    HW2 6149   5.883   2.828  11.748 -1.8596  0.4337 -2.9350
 1570SOL     OW 6150   7.594   0.550   0.238 -0.2743  0.2865 -0.5914
 1570SOL    HW1 6151   7.566   0.497   0.163 -0.0190 -0.1322 -0.3968
 1570SOL    HW2 6152   7.686   0.528   0.250 -0.5620 -0.4237  0.4645
 1571SOL     OW 6153   5.624   3.927  10.146  0.0958  0.8289 -0.2617
 1571SOL    HW1 6154   5.650   3.904  10.235 -1.8599 -0.7799 -0.0116
 1571SOL    HW2 6155   5.695   3.894  10.091  1.5211  2.2056  0.6809
 1572SOL     OW 6156   2.211   1.145   8.062  0.4384 -0.1315  0.2223
 1572SOL    HW1 6157   2.296   1.127   8.102  0.3165  0.5401  0.8102
 1572SOL    HW2 6158   2.159   1.066   8.079  0.9136 -0.5085 -0.0602
 1573SOL     OW 6159   2.699   6.283   0.243  0.2054 -0.0430  0.2791
 1573SOL    HW1 6160   2.713   6.232   0.323 -0.2540 -1.4501 -0.4998
 1573SOL    HW2 6161   2.786   6.293   0.205  0.1897 -1.3004 -0.1496
 1574SOL     OW 6162   0.021   4.732   0.543 -0.1493 -0.2315  0.3084
 1574SOL    HW1 6163   0.050   4.786   0.470  1.9991  0.1137  1.3213
 1574SOL    HW2 6164  -0.061   4.772   0.572 -1.2741 -0.6424 -2.1148
 1575SOL     OW 6165   0.470   6.151   2.789  0.0005 -0.6901  0.2368
 1575SOL    HW1 6166   0.475   6.181   2.698 -0.5637 -0.7680  0.1752
 1575SOL    HW2 6167   0.436   6.062   2.783 -1.8442 -0.0432  0.6162
 1576SOL     OW 6168   5.190   1.749  10.506  0.1264  0.3141  0.3441
 1576SOL    HW1 6169   5.122   1.792  10.558 -1.5946 -0.1432 -1.4115
 1576SOL    HW2 6170   5.245   1.704  10.570 -0.5512  1.6084  1.8903
 1577SOL     OW 6171   4.337   6.834   4.784  0.2850  0.4550  0.2007
 1577SOL    HW1 6172   4.303   6.778   4.853 -0.6258  0.8954  0.1240
 1577SOL    HW2 6173   4.273   6.827   4.713 -0.2783  2.1616  0.4777
 1578SOL     OW 6174   4.529   2.152   3.401  0.0269 -0.1351 -0.5012
 1578SOL    HW1 6175   4.506   2.203   3.323  3.2924  1.2406 -0.7148
 1578SOL    HW2 6176   4.574   2.215   3.458  2.1551 -2.2156  0.2544
 1579SOL     OW 6177   4.163   3.838   5.673  0.3272 -0.4508 -0.4079
 1579SOL    HW1 6178   4.106   3.792   5.735  0.2658 -0.9567 -0.8310
 1579SOL    HW2 6179   4.217   3.895   5.728 -0.0622 -0.5347  0.0651
 1580SOL     OW 6180   4.013   6.127   3.944 -0.2842 -0.2036 -0.7181
 1580SOL    HW1 6181   4.045   6.098   4.030  0.9505 -2.2008 -1.7635
 1580SOL    HW2 6182   3.918   6.124   3.952 -0.1864 -0.8927  0.4267
 1581SOL     OW 6183   2.488   4.449   8.800  0.5598 -0.2788  0.5676
 1581SOL    HW1 6184   2.559   4.387   8.817 -0.3238 -1.0093  1.7475
 1581SOL    HW2 6185   2.532   4.524   8.759  2.3291 -0.0225  2.7035
 1582SOL     OW 6186   6.581   5.117  11.836 -0.1975  0.6041 -0.7122
 1582SOL    HW1 6187   6.548   5.112  11.746 -0.6957  0.6797 -0.5409
 1582SOL    HW2 6188   6.503   5.105  11.890  0.3997 -1.8399 -0.2644
 1583SOL     OW 6189   4.573   1.596   0.715 -0.1136 -0.0906 -0.8129
 1583SOL    HW1 6190   4.668   1.590   0.706  0.1410 -0.3568  1.4966
 1583SOL    HW2 6191   4.546   1.657   0.647  1.7587  0.3072 -1.2523
 1584SOL     OW 6192   4.514   6.803   1.103  0.0503 -0.2254  0.1078
 1584SOL    HW1 6193   4.448   6.870   1.085 -0.3622 -1.2196 -2.6552
 1584SOL    HW2 6194   4.533   6.812   1.197 -1.7486  2.0949  0.3457
 1585SOL     OW 6195   0.181   4.918  12.424 -0.0952 -0.0423  0.0529
 1585SOL    HW1 6196   0.130   4.920  12.344  0.6353  2.2879 -0.4426
 1585SOL    HW2 6197   0.262   4.874  12.400 -1.1836 -2.4028  0.4587
 1586SOL     OW 6198   4.415   4.540   9.025 -0.9520 -0.3560 -0.4016
 1586SOL    HW1 6199   4.364   4.616   9.055 -1.2374  0.1946 -2.1465
 1586SOL    HW2 6200   4.414   4.548   8.930  2.0779 -0.5526 -0.5287
 1587SOL     OW 6201   4.524   5.759  11.336  0.4848  0.0572 -0.1257
 1587SOL    HW1 6202   4.473   5.763  11.255  0.9929  2.0858 -0.4098
 1587SOL    HW2 6203   4.585   5.686  11.324 -1.5977 -1.7742 -0.1859
 1588SOL     OW 6204   3.834   0.618   0.090 -0.3556  0.7836 -0.1996
 1588SOL    HW1 6205   3.878   0.659   0.016 -0.4340  2.1593  0.4964
 1588SOL    HW2 6206   3.905   0.588   0.147 -0.2924 -0.3980 -0.8642
 1589SOL     OW 6207   0.555   6.366   1.302 -0.4143 -0.8403 -0.2569
 1589SOL    HW1 6208   0.523   6.456   1.311  2.2216  0.0445  1.5530
 1589SOL    HW2 6209   0.528   6.322   1.382  0.1130 -1.0192 -0.1701
 1590SOL     OW 6210   5.415   0.256   8.297 -0.0340 -0.0950 -0.3605
 1590SOL    HW1 6211   5.363   0.334   8.277  0.2579  0.6314  1.5536
 1590SOL    HW2 6212   5.429   0.215   8.212 -3.5335 -0.2288 -1.0294
 1591SOL     OW 6213   4.208   0.878   6.830 -0.3325  0.4921 -0.4038
 1591SOL    HW1 6214   4.206   0.801   6.773 -0.7499  0.2404 -0.0527
 1591SOL    HW2 6215   4.131   0.929   6.804 -0.6011  0.3091  0.0250
 1592SOL     OW 6216   6.003   7.349   2.615 -0.0414 -0.0441  0.1558
 1592SOL    HW1 6217   5.980   7.437   2.646  2.5840  0.7848  0.0221
 1592SOL    HW2 6218   5.991   7.353   2.520  1.1479  0.5716  0.0159
 1593SOL     OW 6219   6.022   1.996   8.104  0.1765 -0.3504 -0.0409
 1593SOL    HW1 6220   6.012   1.959   8.191  1.6440  0.5797  0.5602
 1593SOL    HW2 6221   5.935   2.029   8.081 -0.5642 -1.8774  0.4348
 1594SOL     OW 6222   6.182   2.977   3.665 -0.3384 -0.2410 -0.4104
 1594SOL    HW1 6223   6.114   2.924   3.623 -0.5860 -0.1562 -0.1203
 1594SOL    HW2 6224   6.191   3.054   3.608 -1.4004  0.3693  0.2215
 1595SOL     OW 6225   4.532   1.838   0.077 -0.0554 -0.3041  0.2150
 1595SOL    HW1 6226   4.496   1.775   0.139 -1.5574 -0.4913 -0.7888
 1595SOL    HW2 6227   4.592   1.788   0.022  3.2413  0.3027  2.8821
 1596SOL     OW 6228   4.974   6.073   4.071  0.0935  0.1537 -0.0534
 1596SOL    HW1 6229   4.978   5.982   4.042 -0.0928  0.4240 -0.9574
 1596SOL    HW2 6230   4.914   6.071   4.146  0.7296 -0.5872  0.4520
 1597SOL     OW 6231   2.005   5.078   1.515 -0.7195  0.0881  0.6605
 1597SOL    HW1 6232   1.999   4.985   1.536 -0.8596 -0.3746 -1.2537
 1597SOL    HW2 6233   2.028   5.080   1.422 -0.5564  1.9703  0.7115
 1598SOL     OW 6234   6.481   1.694  11.140 -0.1280 -0.3115 -0.2222
 1598SOL    HW1 6235   6.459   1.752  11.213 -0.4108  0.6894 -1.0610
 1598SOL    HW2 6236   6.576   1.705  11.129 -0.1342 -0.2219 -0.1914
 1599SOL     OW 6237   0.672   7.297  11.573 -0.2314  0.5420 -0.0818
 1599SOL    HW1 6238   0.585   7.294  11.533  0.1740 -0.9195 -0.9277
 1599SOL    HW2 6239   0.732   7.317  11.501  0.1200  1.9481  0.5652
 1600SOL     OW 6240   3.370   7.357   2.552  0.7325 -0.3649 -0.8353
 1600SOL    HW1 6241   3.278   7.382   2.543  0.5947 -0.6235 -0.1468
 1600SOL    HW2 6242   3.373   7.266   2.522  0.7817 -0.3288 -0.9404
 1601SOL     OW 6243   7.466   4.671   1.353  0.2639 -0.6814  0.0440
 1601SOL    HW1 6244   7.493   4.743   1.410 -0.6988 -0.0108 -0.3266
 1601SOL    HW2 6245   7.425   4.608   1.412  0.6526 -0.6934  0.3012
 1602SOL     OW 6246   1.964   7.335   7.226 -0.3813 -0.2477 -0.8438
 1602SOL    HW1 6247   1.874   7.340   7.196 -0.8039 -0.6841  0.2876
 1602SOL    HW2 6248   1.959   7.289   7.310  0.5061  2.3748  0.7689
 1603SOL     OW 6249   5.835   5.659   1.567 -0.5242 -0.0707 -0.8618
 1603SOL    HW1 6250   5.814   5.738   1.517 -0.8435 -0.2174 -0.9642
 1603SOL    HW2 6251   5.907   5.619   1.520 -0.3170  0.1931 -0.7736
 1604SOL     OW 6252   6.561   6.059   5.204  0.2710 -0.1128  0.1230
 1604SOL    HW1 6253   6.569   6.155   5.197  2.6066 -0.1712  0.8548
 1604SOL    HW2 6254   6.638   6.026   5.158 -0.1477 -1.6226  0.4545
 1605SOL     OW 6255   4.693   2.668   5.685 -0.3795 -0.1848 -0.0560
 1605SOL    HW1 6256   4.692   2.575   5.709 -2.5819  0.2158  1.7209
 1605SOL    HW2 6257   4.717   2.713   5.766 -0.0022  0.8303 -0.7253
 1606SOL     OW 6258   2.085   0.172   8.341 -0.1233  0.1872  0.2214
 1606SOL    HW1 6259   2.014   0.157   8.280  0.7037 -3.9211 -0.0229
 1606SOL    HW2 6260   2.048   0.151   8.427  0.2267  0.1903  0.3751
 1607SOL     OW 6261   1.444   1.643   6.071  0.3243 -0.0224 -0.5314
 1607SOL    HW1 6262   1.455   1.548   6.079  0.3751  0.0211 -0.0640
 1607SOL    HW2 6263   1.477   1.678   6.154 -0.4678  0.3384 -0.3605
 1608SOL     OW 6264   4.752   7.959  12.068 -0.5428 -0.0377 -0.1651
 1608SOL    HW1 6265   4.657   7.962  12.056 -0.5002  0.3142 -0.4514
 1608SOL    HW2 6266   4.772   7.867  12.083 -0.6886 -0.4496 -2.2239
 1609SOL     OW 6267   0.493   7.080   1.111 -0.1860  0.2579  0.6591
 1609SOL    HW1 6268   0.586   7.081   1.134 -0.1072  1.4410  0.3527
 1609SOL    HW2 6269   0.489   7.032   1.028 -0.0153 -0.8476  1.2730
 1610SOL     OW 6270   1.244   3.225   8.627  0.2073  0.5295 -0.3171
 1610SOL    HW1 6271   1.290   3.142   8.614 -0.1952 -0.0703  1.7102
 1610SOL    HW2 6272   1.270   3.253   8.715 -4.4799 -0.7898  1.8321
 1611SOL     OW 6273   0.952   5.560   6.639  0.4745 -0.3583 -0.3311
 1611SOL    HW1 6274   1.002   5.624   6.689  1.7190 -1.3266 -0.2712
 1611SOL    HW2 6275   0.938   5.487   6.700 -0.6850 -0.2696 -0.4725
 1612SOL     OW 6276   4.012   2.214  11.369 -0.4797  0.1111  0.0973
 1612SOL    HW1 6277   4.036   2.203  11.461  1.5939 -1.2708 -0.5188
 1612SOL    HW2 6278   4.067   2.286  11.339 -0.2536 -0.2307 -0.3200
 1613SOL     OW 6279   2.739   0.067  11.696  0.8533  0.4083 -0.3949
 1613SOL    HW1 6280   2.755   0.065  11.601  1.3349 -0.0908 -0.3111
 1613SOL    HW2 6281   2.655   0.024  11.707  1.9368 -1.8678 -0.4005
 1614SOL     OW 6282   0.562   5.515   8.996 -0.2856 -0.5780  0.3372
 1614SOL    HW1 6283   0.594   5.593   8.950 -1.8973  0.7058  1.2795
 1614SOL    HW2 6284   0.591   5.527   9.087 -1.1785 -0.6836  0.6470
 1615SOL     OW 6285   2.447   7.525  10.279  0.0468  0.2507 -0.1160
 1615SOL    HW1 6286   2.527   7.524  10.227 -0.5269 -0.4933 -1.0345
 1615SOL    HW2 6287   2.392   7.457  10.239 -0.7549  0.2563  0.9379
 1616SOL     OW 6288   4.092   3.152   7.560  0.5086 -0.3921  0.5106
 1616SOL    HW1 6289   4.162   3.127   7.621  2.2218 -0.1633 -1.2496
 1616SOL    HW2 6290   4.137   3.166   7.476 -1.7517 -0.8725 -0.8859
 1617SOL     OW 6291   2.012   2.959   7.148 -0.3755 -0.0947  0.5797
 1617SOL    HW1 6292   2.063   2.967   7.067 -2.1152 -0.9840 -0.7024
 1617SOL    HW2 6293   2.075   2.936   7.215  0.9251 -1.0179 -0.8991
 1618SOL     OW 6294   6.807   2.034   5.654 -0.4250  0.0090  0.1114
 1618SOL    HW1 6295   6.828   2.125   5.634  2.2140 -0.6737 -0.6469
 1618SOL    HW2 6296   6.845   1.984   5.581 -1.5862 -1.7354  0.6358
 1619SOL     OW 6297   5.539   7.387   1.424  0.2091 -0.0999 -0.0764
 1619SOL    HW1 6298   5.624   7.344   1.432  0.6327  0.7021 -0.1236
 1619SOL    HW2 6299   5.560   7.480   1.416 -0.6630  0.0799 -0.3851
 1620SOL     OW 6300   7.278   4.235   3.989 -0.4581 -0.3419 -0.1351
 1620SOL    HW1 6301   7.349   4.183   4.027  1.8006  1.5968 -1.4442
 1620SOL    HW2 6302   7.246   4.181   3.916  0.0417 -1.0117  0.1223
 1621SOL     OW 6303   2.224   7.720   6.345 -0.4136  0.1332 -0.7287
 1621SOL    HW1 6304   2.209   7.778   6.270  2.2438  0.7078 -0.9071
 1621SOL    HW2 6305   2.230   7.632   6.306 -1.3500  0.1219 -0.8659
 1622SOL     OW 6306   6.578   4.864   3.537  0.3917  0.4341  0.2329
 1622SOL    HW1 6307   6.533   4.832   3.615  0.4151 -0.1105  0.0275
 1622SOL    HW2 6308   6.565   4.795   3.471  0.4825  0.8278 -0.2027
 1623SOL     OW 6309   3.558   6.064   2.982  0.0030 -0.0057 -0.8562
 1623SOL    HW1 6310   3.644   6.023   2.992 -0.1840 -0.2483 -0.2085
 1623SOL    HW2 6311   3.575   6.140   2.926  0.6381 -0.0569 -0.7469
 1624SOL     OW 6312   3.737   1.249   6.681 -0.2055  0.4460  0.0338
 1624SOL    HW1 6313   3.779   1.331   6.656  2.5375  0.4512  3.9047
 1624SOL    HW2 6314   3.784   1.182   6.632  1.3743  0.8286  0.9625
 1625SOL     OW 6315   2.864   7.116   2.074 -0.5335 -0.0994 -0.0315
 1625SOL    HW1 6316   2.913   7.071   2.005  1.4667 -0.4535  1.5052
 1625SOL    HW2 6317   2.834   7.045   2.132 -2.7042  0.1411 -0.7965
 1626SOL     OW 6318   5.458   6.544  11.629  0.2302 -0.1208  0.2024
 1626SOL    HW1 6319   5.428   6.621  11.676 -0.3712 -0.6971  0.7891
 1626SOL    HW2 6320   5.552   6.559  11.616  0.1708  0.5840  0.5455
 1627SOL     OW 6321   6.853   1.577   6.532 -0.3303 -0.2874  0.0875
 1627SOL    HW1 6322   6.778   1.551   6.477 -0.3188 -1.6241  0.6584
 1627SOL    HW2 6323   6.918   1.508   6.518  1.3122  1.4487 -1.2949
 1628SOL     OW 6324   4.596   4.753   0.889  0.3134  0.4106 -0.0049
 1628SOL    HW1 6325   4.566   4.813   0.821 -4.2610 -1.6136 -0.1337
 1628SOL    HW2 6326   4.607   4.809   0.966  0.7268  2.0067 -1.1670
 1629SOL     OW 6327   0.444   3.085   1.759 -0.1930  0.1112  0.4463
 1629SOL    HW1 6328   0.538   3.096   1.747 -0.3180  0.7777 -0.0123
 1629SOL    HW2 6329   0.435   3.038   1.842  0.5737 -0.9846 -0.0694
 1630SOL     OW 6330   6.058   5.375   0.058 -0.5307 -1.2698  0.2853
 1630SOL    HW1 6331   6.004   5.447   0.024  0.6718 -0.1623  0.6437
 1630SOL    HW2 6332   6.017   5.352   0.142 -0.7309 -0.7695  0.3317
 1631SOL     OW 6333   7.817   2.885   4.138  0.1550  0.0261 -0.2227
 1631SOL    HW1 6334   7.873   2.845   4.205  1.5176  0.9149 -0.7916
 1631SOL    HW2 6335   7.731   2.891   4.179  0.4306 -1.4705  0.6418
 1632SOL     OW 6336   5.651   3.649   2.504 -0.3049 -0.0090 -0.0055
 1632SOL    HW1 6337   5.559   3.624   2.505 -0.4228  0.2983  2.4414
 1632SOL    HW2 6338   5.650   3.745   2.509  0.1407  0.0007 -0.0525
 1633SOL     OW 6339   3.106   4.878   2.277 -0.0121 -0.3578 -0.7863
 1633SOL    HW1 6340   3.189   4.886   2.323 -1.4428 -2.4140  2.5200
 1633SOL    HW2 6341   3.059   4.959   2.297 -0.2484 -0.8329  0.6270
 1634SOL     OW 6342   3.506   3.570   1.754 -0.2594  0.1876  0.0809
 1634SOL    HW1 6343   3.502   3.607   1.842  1.0280  1.4854 -0.3638
 1634SOL    HW2 6344   3.598   3.546   1.742 -0.6394 -1.0878 -0.4906
 1635SOL     OW 6345   2.165   3.126  10.903 -0.5008 -0.0870  0.5841
 1635SOL    HW1 6346   2.070   3.138  10.905 -0.4759  0.2801 -0.0972
 1635SOL    HW2 6347   2.200   3.212  10.926 -0.3340  0.0235 -0.0620
 1636SOL     OW 6348   3.382   3.003   0.217 -0.0244 -0.5595  0.2744
 1636SOL    HW1 6349   3.461   3.014   0.269  0.7245 -1.6959 -0.5709
 1636SOL    HW2 6350   3.388   2.913   0.182 -0.5946  0.0550 -1.5550
 1637SOL     OW 6351   4.824   7.192   8.944 -0.2119 -0.2180  0.0269
 1637SOL    HW1 6352   4.908   7.207   8.987  1.3593 -0.1064 -2.7912
 1637SOL    HW2 6353   4.795   7.107   8.976  1.7216 -0.9378  0.0387
 1638SOL     OW 6354   6.943   7.256  12.443  0.2435 -0.0680  0.1975
 1638SOL    HW1 6355   6.931   7.174  12.490 -0.4414  0.4607  0.9680
 1638SOL    HW2 6356   6.917   7.236  12.353 -2.0783 -0.1638  0.8282
 1639SOL     OW 6357   1.444   0.163   1.798 -0.5597 -0.0612 -0.0579
 1639SOL    HW1 6358   1.395   0.180   1.717  1.4637  2.0975 -0.9639
 1639SOL    HW2 6359   1.439   0.068   1.810  0.2351 -0.6805 -3.5610
 1640SOL     OW 6360   7.120   6.873   6.359 -0.2240  0.0587 -0.3784
 1640SOL    HW1 6361   7.140   6.931   6.286  0.6134 -0.2523 -0.4078
 1640SOL    HW2 6362   7.079   6.797   6.319 -0.0036  0.0026 -0.4992
 1641SOL     OW 6363   2.902   5.030   7.626  0.1976  0.1856 -0.0774
 1641SOL    HW1 6364   2.908   4.938   7.603  1.4314 -0.2081  1.5548
 1641SOL    HW2 6365   2.944   5.076   7.553 -1.2519 -0.4327 -1.3383
 1642SOL     OW 6366   2.695   7.145   3.649 -0.0189  0.0330 -0.3706
 1642SOL    HW1 6367   2.618   7.099   3.681  0.2411 -0.2550 -0.1559
 1642SOL    HW2 6368   2.767   7.113   3.703 -0.1225  2.1030  1.1454
 1643SOL     OW 6369   4.027   1.176   0.560  0.2108 -0.1210 -0.5947
 1643SOL    HW1 6370   4.047   1.115   0.631 -1.1198 -0.6605 -0.6541
 1643SOL    HW2 6371   4.107   1.226   0.549  0.4926 -0.1014  1.2081
 1644SOL     OW 6372   5.624   1.637  11.716 -0.5959  0.3937  0.6131
 1644SOL    HW1 6373   5.587   1.567  11.769 -1.5718  0.6343  0.2573
 1644SOL    HW2 6374   5.580   1.629  11.631 -0.3271  1.1059  0.4028
 1645SOL     OW 6375   4.167   3.705   5.433 -0.6311  0.0876  0.2435
 1645SOL    HW1 6376   4.154   3.738   5.522  1.4307 -2.4676  1.6319
 1645SOL    HW2 6377   4.115   3.625   5.430  0.0440 -0.3351 -0.5057
 1646SOL     OW 6378   7.507   7.797   8.793 -0.6992  0.3102  0.7680
 1646SOL    HW1 6379   7.597   7.827   8.799 -0.2465 -0.6676 -0.5749
 1646SOL    HW2 6380   7.493   7.784   8.699 -2.0610 -0.0765  1.0061
 1647SOL     OW 6381   7.233   5.219   5.854  0.6902  0.2028  0.2765
 1647SOL    HW1 6382   7.182   5.223   5.934  0.5647 -0.4611  0.2342
 1647SOL    HW2 6383   7.257   5.127   5.845  0.1778  0.1578 -0.7718
 1648SOL     OW 6384   1.331   7.837   9.521  0.0989  0.1686 -0.0770
 1648SOL    HW1 6385   1.373   7.921   9.538  0.2473  0.0529  0.1359
 1648SOL    HW2 6386   1.378   7.775   9.576 -0.4439  0.0630  0.2810
 1649SOL     OW 6387   6.422   4.317  12.208  0.2368  0.5161 -0.2396
 1649SOL    HW1 6388   6.394   4.230  12.179  0.8994  0.0021  0.6048
 1649SOL    HW2 6389   6.402   4.374  12.134  0.1742 -0.4248 -0.9797
 1650SOL     OW 6390   2.654   5.523   0.737 -0.2053 -0.1609  0.4250
 1650SOL    HW1 6391   2.695   5.502   0.653  1.1720  1.5869  0.5867
 1650SOL    HW2 6392   2.560   5.521   0.720 -0.0673 -2.8511 -0.3533
 1651SOL     OW 6393   6.254   0.294   9.336 -0.0073 -0.4371  0.2948
 1651SOL    HW1 6394   6.216   0.382   9.333  0.1174 -0.3537  0.9701
 1651SOL    HW2 6395   6.347   0.308   9.324 -0.2364 -0.7439 -2.6532
 1652SOL     OW 6396   0.884   1.874   4.779 -0.3388 -0.4855  0.5173
 1652SOL    HW1 6397   0.935   1.939   4.731 -0.0420 -1.1065 -0.0252
 1652SOL    HW2 6398   0.904   1.890   4.871  1.3643 -1.1215  0.2893
 1653SOL     OW 6399   4.198   0.288   5.575 -0.1749  0.1582 -0.3032
 1653SOL    HW1 6400   4.237   0.257   5.493 -1.6009  0.4335 -1.1243
 1653SOL    HW2 6401   4.240   0.372   5.591 -0.4769  0.4980 -1.2245
 1654SOL     OW 6402   2.794   6.124   8.459 -0.6874 -0.2260  0.3329
 1654SOL    HW1 6403   2.764   6.056   8.520 -1.1612  0.3171  0.7304
 1654SOL    HW2 6404   2.746   6.202   8.487  0.4160  0.4573  0.3823
 1655SOL     OW 6405   2.005   4.275   0.400 -0.6645  0.4497  0.0754
 1655SOL    HW1 6406   1.928   4.263   0.456 -1.4805  1.4391 -0.8184
 1655SOL    HW2 6407   2.017   4.191   0.357 -0.8401  0.0972  0.6982
 1656SOL     OW 6408   3.857   0.535   2.017  0.1082 -0.4495 -0.2399
 1656SOL    HW1 6409   3.860   0.598   1.945 -1.7667 -2.7339 -2.5312
 1656SOL    HW2 6410   3.780   0.559   2.067 -0.0364 -0.3271 -0.5172
 1657SOL     OW 6411   4.978   2.952   0.557  0.0485 -0.1425 -0.1733
 1657SOL    HW1 6412   4.957   3.040   0.590 -1.2836 -0.3655 -0.3878
 1657SOL    HW2 6413   5.065   2.934   0.592 -0.2428  0.6994  1.0511
 1658SOL     OW 6414   6.341   1.365   5.916  0.2145 -0.1787 -0.2640
 1658SOL    HW1 6415   6.261   1.341   5.963 -0.4611  2.2924  0.0299
 1658SOL    HW2 6416   6.322   1.344   5.825 -0.7509  0.2384 -0.1739
 1659SOL     OW 6417   5.505   4.150  10.257 -0.0709  0.1266 -0.1923
 1659SOL    HW1 6418   5.549   4.075  10.219 -1.2055 -1.3345  1.2291
 1659SOL    HW2 6419   5.548   4.163  10.342  0.8163  1.8125 -0.8296
 1660SOL     OW 6420   3.833   4.788  11.027  0.2237  0.2504  0.4931
 1660SOL    HW1 6421   3.777   4.855  10.989  0.3844  0.0749 -0.0562
 1660SOL    HW2 6422   3.849   4.726  10.956 -0.1581 -0.5286  1.0786
 1661SOL     OW 6423   7.660   3.186  10.403  0.0246 -0.1545 -0.1906
 1661SOL    HW1 6424   7.621   3.270  10.426 -1.8045 -1.1871  0.6841
 1661SOL    HW2 6425   7.657   3.183  10.308 -2.1645 -0.2022 -0.1655
 1662SOL     OW 6426   1.603   4.192   4.476 -0.3477 -0.0976  0.0180
 1662SOL    HW1 6427   1.681   4.233   4.439  0.2443 -0.7726  0.5055
 1662SOL    HW2 6428   1.605   4.102   4.442  1.0628 -1.2550  2.8494
 1663SOL     OW 6429   3.481   5.146   7.675  0.0075  0.1772 -0.1359
 1663SOL    HW1 6430   3.463   5.190   7.592 -1.7233 -0.2622 -0.0361
 1663SOL    HW2 6431   3.403   5.092   7.691  0.7772 -0.5847  1.2342
 1664SOL     OW 6432   6.290   7.567   5.646  0.0790  0.1515  0.4066
 1664SOL    HW1 6433   6.309   7.661   5.644  2.1997 -0.2292 -0.9953
 1664SOL    HW2 6434   6.347   7.533   5.715 -0.4331 -0.1715  0.6757
 1665SOL     OW 6435   5.007   7.389   3.578  0.2610 -0.7369  0.7735
 1665SOL    HW1 6436   5.020   7.484   3.572  0.3471 -0.6584  2.0001
 1665SOL    HW2 6437   5.018   7.358   3.488  0.4379  0.3870  0.3880
 1666SOL     OW 6438   1.043   4.418   4.724 -0.1804  0.3094  0.2144
 1666SOL    HW1 6439   1.083   4.439   4.639 -0.0086  1.3682  0.5492
 1666SOL    HW2 6440   1.057   4.496   4.777 -3.3636  1.0697  0.1352
 1667SOL     OW 6441   1.798   4.992   9.365  0.5162 -0.3301  0.4483
 1667SOL    HW1 6442   1.741   5.050   9.313  0.7236 -0.2372  0.3231
 1667SOL    HW2 6443   1.742   4.918   9.388  1.0336 -1.5850 -1.9643
 1668SOL     OW 6444   6.277   4.261   4.038  0.1755  0.4336 -0.0838
 1668SOL    HW1 6445   6.349   4.276   3.977 -0.1242 -2.1272 -1.1900
 1668SOL    HW2 6446   6.312   4.201   4.103 -0.2949  1.0531  0.7645
 1669SOL     OW 6447   1.130   2.999   1.963 -0.3749  0.6262 -0.3406
 1669SOL    HW1 6448   1.077   2.924   1.935 -0.6915  0.2509  1.1892
 1669SOL    HW2 6449   1.219   2.964   1.967 -0.4343  0.4901 -0.1953
 1670SOL     OW 6450   6.067   2.342   8.072 -0.0095  0.1613 -0.7708
 1670SOL    HW1 6451   6.056   2.260   8.023 -1.9374  0.5460 -1.0848
 1670SOL    HW2 6452   6.047   2.411   8.008 -2.1947  0.6907  0.3746
 1671SOL     OW 6453   7.121   7.051   6.118 -0.3805 -0.0403 -0.2987
 1671SOL    HW1 6454   7.178   7.127   6.118  0.3634 -0.4535  2.7808
 1671SOL    HW2 6455   7.036   7.085   6.148 -0.4695 -0.1557 -0.4221
 1672SOL     OW 6456   1.065   1.220   0.030 -0.5658 -0.6153 -0.7927
 1672SOL    HW1 6457   1.137   1.215  -0.033 -0.1393 -0.4557 -0.3229
 1672SOL    HW2 6458   1.049   1.129   0.055  0.6111 -0.5225  0.3666
 1673SOL     OW 6459   0.243   2.874   7.529 -0.0888 -0.2170 -0.1700
 1673SOL    HW1 6460   0.186   2.883   7.453 -2.8744  0.0114  1.7912
 1673SOL    HW2 6461   0.187   2.836   7.596  2.4550 -1.0967  1.5899
 1674SOL     OW 6462   4.787   5.596   4.059 -0.2047  0.1241  0.2232
 1674SOL    HW1 6463   4.695   5.572   4.045 -0.1684  1.2356 -2.6269
 1674SOL    HW2 6464   4.837   5.525   4.020  0.0547  0.6282 -0.3913
 1675SOL     OW 6465   4.786   1.887   0.237  0.6679  0.1094 -0.4859
 1675SOL    HW1 6466   4.708   1.835   0.218  0.4738  0.2655 -0.1306
 1675SOL    HW2 6467   4.811   1.925   0.153  0.9613 -0.7541 -0.8028
 1676SOL     OW 6468   1.336   7.456   1.097 -0.4499  0.2709  0.2572
 1676SOL    HW1 6469   1.409   7.516   1.082 -0.0244 -0.3727 -0.2971
 1676SOL    HW2 6470   1.257   7.510   1.086 -0.0904  0.5964 -0.8671
 1677SOL     OW 6471   4.468   1.175  10.208 -0.3459  0.4841 -0.7769
 1677SOL    HW1 6472   4.560   1.150  10.202 -0.4046  0.3147 -1.0172
 1677SOL    HW2 6473   4.439   1.181  10.117 -0.7893 -0.2771 -0.6919
 1678SOL     OW 6474   0.782   4.564   7.739 -0.7888 -0.2415 -0.3943
 1678SOL    HW1 6475   0.756   4.592   7.827 -2.4271 -0.7967 -0.6637
 1678SOL    HW2 6476   0.722   4.493   7.717  1.0522 -1.6712 -1.0912
 1679SOL     OW 6477   2.775   0.798  11.542  0.3730  0.1940 -0.0488
 1679SOL    HW1 6478   2.745   0.723  11.593 -0.1207  0.2998 -0.1825
 1679SOL    HW2 6479   2.871   0.790  11.543  0.4672  0.8558  1.9160
 1680SOL     OW 6480   6.756   5.180  10.925  0.2662  0.3714 -0.0691
 1680SOL    HW1 6481   6.796   5.192  11.011  1.2494  1.4007 -0.6453
 1680SOL    HW2 6482   6.829   5.178  10.864 -0.3921 -0.7659 -0.8595
 1681SOL     OW 6483   1.222   4.335   9.480 -0.5106 -0.0336 -0.1774
 1681SOL    HW1 6484   1.309   4.316   9.514 -0.3775  2.2613  0.9354
 1681SOL    HW2 6485   1.229   4.322   9.385  0.9996  0.0297 -0.0870
 1682SOL     OW 6486   7.280   7.222   1.091  0.3257 -0.0606 -0.1845
 1682SOL    HW1 6487   7.265   7.173   1.172 -0.0554 -1.1879 -0.9156
 1682SOL    HW2 6488   7.193   7.240   1.057  0.4888 -0.1388 -0.6550
 1683SOL     OW 6489   6.283   1.880   0.422  0.4011  0.1882 -0.1476
 1683SOL    HW1 6490   6.315   1.967   0.395  0.3003  0.1900 -0.2600
 1683SOL    HW2 6491   6.189   1.882   0.404  0.1240  0.5826  1.2252
 1684SOL     OW 6492   7.225   5.559   8.481  0.3689 -0.2251  0.1014
 1684SOL    HW1 6493   7.168   5.562   8.558  0.8396 -0.6916  0.4761
 1684SOL    HW2 6494   7.275   5.478   8.492  1.5674  0.4943  0.1168
 1685SOL     OW 6495   6.400   6.322  11.556  0.3745  0.5246  0.0434
 1685SOL    HW1 6496   6.402   6.242  11.502  1.6513 -1.1097  2.3382
 1685SOL    HW2 6497   6.450   6.386  11.505 -1.4430  0.2167 -2.2703
 1686SOL     OW 6498   3.966   7.507   6.099 -0.0950  0.2283 -0.3035
 1686SOL    HW1 6499   3.898   7.546   6.043 -0.1465 -0.1554 -0.5142
 1686SOL    HW2 6500   3.947   7.413   6.097  0.6655  0.0754 -0.6698
 1687SOL     OW 6501   5.632   7.173   0.292  0.6395  0.6947  0.2590
 1687SOL    HW1 6502   5.716   7.128   0.283 -0.6908 -1.8015 -0.6275
 1687SOL    HW2 6503   5.643   7.255   0.245  2.6745  0.5725  0.4461
 1688SOL     OW 6504   0.357   4.266   6.002 -0.5617  0.4230  0.6477
 1688SOL    HW1 6505   0.310   4.219   6.072 -1.2159 -1.5071 -0.9888
 1688SOL    HW2 6506   0.295   4.267   5.929  0.8091  0.6478 -0.5426
 1689SOL     OW 6507   6.075   0.191   8.548  0.0191  0.7043 -0.0318
 1689SOL    HW1 6508   6.045   0.177   8.637 -0.7162  1.8703 -0.0800
 1689SOL    HW2 6509   6.144   0.125   8.535 -1.2840 -0.8665  0.6694
 1690SOL     OW 6510   1.400   4.123  11.502 -0.0632 -0.0189 -0.0505
 1690SOL    HW1 6511   1.429   4.133  11.592 -0.0720 -1.4720  0.1331
 1690SOL    HW2 6512   1.431   4.202  11.458  0.8191  0.2395  0.9950
 1691SOL     OW 6513   6.029   3.717   9.846 -0.6387 -0.1406 -0.4418
 1691SOL    HW1 6514   6.099   3.728   9.782  2.1647  1.4125  2.6313
 1691SOL    HW2 6515   6.038   3.627   9.877 -0.7821 -0.2969 -0.8427
 1692SOL     OW 6516   6.024   0.555   5.172 -0.2355 -0.1711  0.1796
 1692SOL    HW1 6517   6.116   0.535   5.186  0.0371  0.6169 -0.4394
 1692SOL    HW2 6518   6.018   0.650   5.182 -1.1944 -0.3319  1.3392
 1693SOL     OW 6519   1.410   4.513  10.998  0.8056 -0.0151  0.0694
 1693SOL    HW1 6520   1.434   4.528  11.089  0.4190 -1.7723  0.4961
 1693SOL    HW2 6521   1.441   4.591  10.952 -0.5568  1.7467  1.9493
 1694SOL     OW 6522   3.399   3.157  11.000  0.5203 -0.7137  0.1425
 1694SOL    HW1 6523   3.378   3.244  11.033  0.1631  0.1254 -2.1264
 1694SOL    HW2 6524   3.495   3.157  10.993  0.6508 -1.0978  1.5620
 1695SOL     OW 6525   5.015   4.851  10.555 -0.1000 -0.2815 -0.1344
 1695SOL    HW1 6526   5.071   4.927  10.542 -1.3196  0.3091 -2.6403
 1695SOL    HW2 6527   5.074   4.776  10.551  0.7932  0.4230 -0.4495
 1696SOL     OW 6528   7.911   3.947   4.913  0.2881  0.5332 -0.4736
 1696SOL    HW1 6529   7.989   3.900   4.885  0.6015  1.5325 -1.3301
 1696SOL    HW2 6530   7.918   4.033   4.871 -2.0220  0.1350 -1.8411
 1697SOL     OW 6531   6.330   3.515   1.878  0.0593  0.0726 -0.1032
 1697SOL    HW1 6532   6.316   3.588   1.818 -0.7047  0.1909  0.2078
 1697SOL    HW2 6533   6.395   3.547   1.940 -0.3452  0.5263  0.0898
 1698SOL     OW 6534   0.520   5.690   6.195  0.2542  0.0034 -0.1082
 1698SOL    HW1 6535   0.608   5.685   6.157  0.2459  0.9940 -0.2891
 1698SOL    HW2 6536   0.461   5.678   6.121  0.2325 -0.3020 -0.0434
 1699SOL     OW 6537   4.795   2.209   9.908 -0.0635  0.4917 -0.0135
 1699SOL    HW1 6538   4.824   2.227   9.818  1.2246  1.2055  0.5161
 1699SOL    HW2 6539   4.701   2.225   9.907  0.0616  1.2530 -1.0529
 1700SOL     OW 6540   5.381   5.533   4.361 -0.5753  0.6719 -0.2078
 1700SOL    HW1 6541   5.397   5.550   4.268 -1.4032  0.0582 -0.4656
 1700SOL    HW2 6542   5.313   5.596   4.386  0.2188  1.3922  0.2004
 1701SOL     OW 6543   0.926   6.292   6.693 -0.2303 -0.8528  0.2001
 1701SOL    HW1 6544   0.858   6.226   6.703 -1.0392 -0.1627 -0.6054
 1701SOL    HW2 6545   1.005   6.250   6.726 -1.3397 -1.0737  2.8270
 1702SOL     OW 6546   1.920   6.613  11.854  0.7813  0.1660 -0.0354
 1702SOL    HW1 6547   1.995   6.642  11.803  0.7315  1.3832  0.5527
 1702SOL    HW2 6548   1.848   6.669  11.826  0.7375  0.8056  1.2820
 1703SOL     OW 6549   0.982   1.738   8.003 -0.3977  0.3311 -0.4446
 1703SOL    HW1 6550   0.963   1.678   8.075  0.2890  1.3416  0.6240
 1703SOL    HW2 6551   1.021   1.683   7.935  1.4746 -0.2602  1.0363
 1704SOL     OW 6552   7.276   1.988   9.884  0.3816 -0.1521  0.2865
 1704SOL    HW1 6553   7.234   2.046   9.948  0.9877 -0.6173  1.1277
 1704SOL    HW2 6554   7.320   2.047   9.824 -0.6977  0.3155 -0.0758
 1705SOL     OW 6555   0.792   5.518   1.515 -0.0986  0.6169 -0.2063
 1705SOL    HW1 6556   0.755   5.430   1.519 -0.6297  0.8005 -0.8625
 1705SOL    HW2 6557   0.808   5.542   1.606  0.0999 -0.1746 -0.0241
 1706SOL     OW 6558   7.818   0.246   2.470  0.1617  0.0011  0.2233
 1706SOL    HW1 6559   7.764   0.174   2.501  0.5672 -0.0834  0.7486
 1706SOL    HW2 6560   7.873   0.269   2.545  1.1505 -0.2010 -0.4237
 1707SOL     OW 6561   2.940   0.377   8.637 -0.0748  0.0906  0.0756
 1707SOL    HW1 6562   2.859   0.393   8.685  0.0223  1.4988 -0.1975
 1707SOL    HW2 6563   2.947   0.450   8.575  2.0279  0.7034  0.9511
 1708SOL     OW 6564   4.256   7.536   3.325  0.2656 -0.2442 -0.1790
 1708SOL    HW1 6565   4.315   7.527   3.251 -0.6502  1.0204 -1.0936
 1708SOL    HW2 6566   4.284   7.616   3.370 -0.2208 -0.0956 -0.1324
 1709SOL     OW 6567   3.617   0.451   6.442  0.5368 -0.8854  0.3525
 1709SOL    HW1 6568   3.552   0.489   6.383  0.2052 -0.6304  0.8761
 1709SOL    HW2 6569   3.596   0.488   6.528  0.4068 -1.9940  0.8151
 1710SOL     OW 6570   4.391   6.601   8.417  0.1248  0.7097  0.7415
 1710SOL    HW1 6571   4.403   6.597   8.512  1.2554 -1.1104  0.5742
 1710SOL    HW2 6572   4.319   6.662   8.405 -0.4649  0.5074  2.8066
 1711SOL     OW 6573   4.704   0.403   1.341 -0.2829 -0.0316 -0.0202
 1711SOL    HW1 6574   4.675   0.483   1.386 -1.0859 -0.3672  0.0709
 1711SOL    HW2 6575   4.684   0.333   1.403 -0.1657 -0.3714 -0.3664
 1712SOL     OW 6576   1.390   3.581   0.480 -0.5112  0.2676  0.1211
 1712SOL    HW1 6577   1.474   3.540   0.460 -0.8077 -0.7423  0.8060
 1712SOL    HW2 6578   1.330   3.507   0.489 -1.1666  0.8878  0.9999
 1713SOL     OW 6579   3.388   2.946  10.672  0.2165  0.2825 -0.0403
 1713SOL    HW1 6580   3.399   2.888  10.597 -1.6838  1.6197 -1.4707
 1713SOL    HW2 6581   3.465   2.931  10.726 -0.0374 -3.3384 -0.4344
 1714SOL     OW 6582   0.185   5.435   8.687 -0.8581 -0.1700 -0.4653
 1714SOL    HW1 6583   0.195   5.351   8.731  0.2363  0.4159  0.4683
 1714SOL    HW2 6584   0.090   5.445   8.675 -1.0146 -1.4419 -0.4423
 1715SOL     OW 6585   4.255   5.739   1.753 -0.0660 -0.1154 -0.2582
 1715SOL    HW1 6586   4.220   5.781   1.674 -2.3952 -2.0009 -0.3236
 1715SOL    HW2 6587   4.309   5.667   1.720 -1.4011 -1.1858 -0.2140
 1716SOL     OW 6588   1.689   0.289   5.049 -0.1993 -0.2821 -0.1783
 1716SOL    HW1 6589   1.670   0.205   5.092  1.7270 -1.6423 -1.8038
 1716SOL    HW2 6590   1.609   0.309   5.000 -0.2849 -1.8347 -0.7442
 1717SOL     OW 6591   2.972   2.823   9.128  0.4055 -0.5162 -0.0599
 1717SOL    HW1 6592   2.960   2.900   9.072 -1.6969 -0.1224  0.8636
 1717SOL    HW2 6593   2.975   2.858   9.217  1.8646 -1.3089  0.2393
 1718SOL     OW 6594   2.802   5.392   5.118 -0.1031 -0.4424 -0.4591
 1718SOL    HW1 6595   2.749   5.429   5.048  1.3790 -1.3354 -2.1427
 1718SOL    HW2 6596   2.761   5.307   5.137  0.7231 -1.2170 -1.8866
 1719SOL     OW 6597   0.544   2.820  12.280 -0.2523 -0.3979  0.0231
 1719SOL    HW1 6598   0.633   2.807  12.250 -0.2318 -0.6209  0.1745
 1719SOL    HW2 6599   0.553   2.851  12.370 -0.2769  1.5320 -0.5886
 1720SOL     OW 6600   5.258   1.338   1.241  0.0470  0.6434 -0.3049
 1720SOL    HW1 6601   5.181   1.322   1.296  0.8014  0.4623  0.7342
 1720SOL    HW2 6602   5.309   1.402   1.291  0.8502  0.3268 -0.7077
 1721SOL     OW 6603   0.556   5.954   4.191  0.6209 -0.0742 -0.2228
 1721SOL    HW1 6604   0.565   6.044   4.161 -1.2870  0.4286  0.5964
 1721SOL    HW2 6605   0.471   5.925   4.158  0.8050 -1.2667  0.2730
 1722SOL     OW 6606   4.286   0.638   1.115  0.4356  0.1690 -0.2419
 1722SOL    HW1 6607   4.357   0.589   1.073 -0.5202 -1.4263 -0.0901
 1722SOL    HW2 6608   4.215   0.635   1.051 -0.3245 -0.4669  0.6046
 1723SOL     OW 6609   1.575   0.942   4.816  0.0727  0.0596  0.5138
 1723SOL    HW1 6610   1.574   1.033   4.785 -0.1427 -0.0965  0.0506
 1723SOL    HW2 6611   1.635   0.897   4.757 -1.6244 -0.6118 -0.8070
 1724SOL     OW 6612   5.367   7.201  11.047 -0.1138 -0.2196 -0.5510
 1724SOL    HW1 6613   5.287   7.157  11.016  0.5395 -1.2319 -0.8479
 1724SOL    HW2 6614   5.362   7.195  11.143  0.2369 -1.4901 -0.5900
 1725SOL     OW 6615   6.502   6.297  11.091 -0.3189  0.4227 -0.0305
 1725SOL    HW1 6616   6.554   6.237  11.038 -0.2433  0.8317 -0.4217
 1725SOL    HW2 6617   6.413   6.261  11.088 -0.1314 -0.1074  0.3896
 1726SOL     OW 6618   7.311   7.264  11.252 -0.1612  0.0290 -1.1557
 1726SOL    HW1 6619   7.387   7.288  11.199 -0.0685  0.2511 -0.9239
 1726SOL    HW2 6620   7.276   7.185  11.210  0.8352 -0.7068 -0.6543
 1727SOL     OW 6621   0.098   6.127   0.436 -0.2881  0.0629  0.1773
 1727SOL    HW1 6622   0.134   6.061   0.495 -1.1702 -1.6228 -1.1013
 1727SOL    HW2 6623   0.145   6.115   0.354 -2.1309 -0.6685 -0.8212
 1728SOL     OW 6624   5.302   6.425   1.733  0.0176  0.3691  0.0887
 1728SOL    HW1 6625   5.279   6.493   1.797 -4.2192 -0.9304  0.2845
 1728SOL    HW2 6626   5.284   6.465   1.648 -0.7614  0.0937  0.1143
 1729SOL     OW 6627   4.565   5.487  11.953  0.2443  0.8360  0.3031
 1729SOL    HW1 6628   4.606   5.438  12.024  2.4951  1.5521 -0.4064
 1729SOL    HW2 6629   4.489   5.530  11.994  0.0003 -0.7667  1.6256
 1730SOL     OW 6630   4.630   0.868   6.929 -0.2029  0.0249  0.3770
 1730SOL    HW1 6631   4.610   0.783   6.889 -0.0105  0.9752 -1.8754
 1730SOL    HW2 6632   4.704   0.850   6.987  0.4981 -1.1820 -0.8296
 1731SOL     OW 6633   4.540   3.390  10.305 -0.1932 -0.3289  0.0204
 1731SOL    HW1 6634   4.574   3.305  10.277 -0.3331 -1.4479  2.8838
 1731SOL    HW2 6635   4.573   3.452  10.241  1.9771 -2.2178 -0.8024
 1732SOL     OW 6636   2.833   4.548   9.676  0.7092  0.2398 -0.3703
 1732SOL    HW1 6637   2.856   4.634   9.643 -1.5098  0.7637 -0.7337
 1732SOL    HW2 6638   2.831   4.559   9.771 -0.1983  0.8176 -0.4349
 1733SOL     OW 6639   2.438   3.767   7.185  0.2802  0.1421 -0.1741
 1733SOL    HW1 6640   2.495   3.723   7.249 -0.0087 -0.2972 -0.2158
 1733SOL    HW2 6641   2.365   3.707   7.173  1.5227 -1.0349 -2.7958
 1734SOL     OW 6642   1.915   7.120   0.773 -0.5629  0.0975 -0.2024
 1734SOL    HW1 6643   1.946   7.051   0.715 -0.3872 -1.7645  1.9441
 1734SOL    HW2 6644   1.829   7.144   0.739  0.6934  1.1793 -2.8459
 1735SOL     OW 6645   4.159   1.802   8.330  0.2041  0.0881 -0.2126
 1735SOL    HW1 6646   4.244   1.816   8.288  0.2134  1.5289  0.2087
 1735SOL    HW2 6647   4.114   1.740   8.274  0.2052  1.9335 -2.3966
 1736SOL     OW 6648   2.563   3.524   1.694 -0.2361 -0.0185 -0.3228
 1736SOL    HW1 6649   2.505   3.467   1.643 -0.9839  0.8066 -0.4303
 1736SOL    HW2 6650   2.541   3.612   1.664  1.5853  0.2939 -0.8857
 1737SOL     OW 6651   0.304   3.023   2.633  0.0672  0.4513 -0.0431
 1737SOL    HW1 6652   0.344   3.102   2.669 -0.4984  1.7577 -2.1041
 1737SOL    HW2 6653   0.377   2.965   2.614  0.7034  1.3467 -0.4257
 1738SOL     OW 6654   0.933   1.550   9.234  0.0595 -0.4396  0.4848
 1738SOL    HW1 6655   0.843   1.526   9.213 -0.6369  2.3146 -0.0971
 1738SOL    HW2 6656   0.985   1.472   9.213 -1.9777 -1.5613 -0.6495
 1739SOL     OW 6657   7.474   3.354   6.944  0.3134 -1.0525 -0.8657
 1739SOL    HW1 6658   7.484   3.342   6.850  2.5926 -0.5644 -0.7355
 1739SOL    HW2 6659   7.526   3.284   6.983  0.1273 -0.7125  0.0217
 1740SOL     OW 6660   5.494   0.540   8.471  0.1347 -0.1394 -0.5662
 1740SOL    HW1 6661   5.497   0.504   8.559  1.4100 -1.3155 -1.0434
 1740SOL    HW2 6662   5.412   0.507   8.434 -0.1613 -0.0520  0.0001
 1741SOL     OW 6663   5.439   1.168   6.939 -0.2782  0.2901 -0.1218
 1741SOL    HW1 6664   5.533   1.158   6.920 -0.3059  0.1267 -0.1728
 1741SOL    HW2 6665   5.395   1.126   6.865 -0.3995  1.0571 -0.4881
 1742SOL     OW 6666   4.857   1.962   1.698 -0.3489 -0.4385 -0.2390
 1742SOL    HW1 6667   4.894   1.907   1.767 -0.4543  0.5985  0.6803
 1742SOL    HW2 6668   4.772   1.989   1.732  0.5313  1.9576  0.3146
 1743SOL     OW 6669   5.130   7.383   1.064  0.0640 -0.0551  0.0723
 1743SOL    HW1 6670   5.148   7.298   1.025  1.6880  1.0944 -1.9040
 1743SOL    HW2 6671   5.035   7.391   1.063 -0.0365 -1.0205 -1.6354
 1744SOL     OW 6672   0.217   7.025   5.807  0.2485  0.4429 -0.5292
 1744SOL    HW1 6673   0.288   7.038   5.744 -0.8071 -0.2687 -1.9393
 1744SOL    HW2 6674   0.176   6.942   5.780  0.2048 -0.2922  1.5804
 1745SOL     OW 6675   4.542   6.479  10.535 -0.1697  0.1243 -0.8961
 1745SOL    HW1 6676   4.585   6.534  10.469  2.0305 -1.7776 -1.1678
 1745SOL    HW2 6677   4.448   6.492  10.519  0.2475 -0.0027 -4.2140
 1746SOL     OW 6678   3.180   4.664   0.833 -0.0875 -0.2855  0.4254
 1746SOL    HW1 6679   3.206   4.735   0.774 -1.0768 -0.2600 -0.0028
 1746SOL    HW2 6680   3.262   4.633   0.871  0.4578  0.4208 -0.1423
 1747SOL     OW 6681   5.749   6.423   2.928 -0.1917 -0.0402  0.3047
 1747SOL    HW1 6682   5.782   6.512   2.938  0.1923 -0.2395  0.8569
 1747SOL    HW2 6683   5.720   6.418   2.837 -0.9720  0.9031  0.4889
 1748SOL     OW 6684   0.063   4.492  11.412 -0.6367  0.2995 -0.2921
 1748SOL    HW1 6685  -0.013   4.532  11.452 -1.8031 -1.4722 -0.6318
 1748SOL    HW2 6686   0.028   4.434  11.344  1.0925  0.5978 -1.5284
 1749SOL     OW 6687   6.794   0.490   9.005  0.1797  0.1247 -0.6683
 1749SOL    HW1 6688   6.842   0.566   8.971  1.0090 -0.2894 -0.4668
 1749SOL    HW2 6689   6.713   0.527   9.041  1.5859  1.2984  1.5965
 1750SOL     OW 6690   4.303   1.988   1.252  0.3020  0.0307 -0.2420
 1750SOL    HW1 6691   4.392   2.010   1.224 -0.8175  2.8768 -1.9361
 1750SOL    HW2 6692   4.294   2.028   1.338  1.1753 -1.8327  0.7673
 1751SOL     OW 6693   4.678   2.328   9.274  0.1284 -0.0728  0.3088
 1751SOL    HW1 6694   4.596   2.282   9.258  0.5161 -0.3389 -1.0794
 1751SOL    HW2 6695   4.670   2.410   9.226  0.8971 -0.3787 -0.3750
 1752SOL     OW 6696   5.573   6.566   1.721 -0.0221 -0.3968 -0.1385
 1752SOL    HW1 6697   5.482   6.551   1.748  0.1665 -1.2227  0.0645
 1752SOL    HW2 6698   5.575   6.546   1.628 -0.4490  1.4590 -0.5782
 1753SOL     OW 6699   7.095   2.844   6.728  0.0216  0.0797  0.0796
 1753SOL    HW1 6700   7.070   2.920   6.676 -1.5373  0.4440  1.2747
 1753SOL    HW2 6701   7.176   2.813   6.688 -0.2527  1.2953 -1.5274
 1754SOL     OW 6702   5.817   5.345  11.926  0.3266  0.0394 -0.1546
 1754SOL    HW1 6703   5.776   5.431  11.936 -1.9936 -0.3265 -4.3141
 1754SOL    HW2 6704   5.763   5.286  11.979 -1.3217  0.4275 -1.3222
 1755SOL     OW 6705   6.310   4.483   3.715 -0.0996  0.2708 -0.0233
 1755SOL    HW1 6706   6.323   4.443   3.629  0.8061 -0.2346  0.3417
 1755SOL    HW2 6707   6.362   4.430   3.775 -0.1802  1.0267  0.7315
 1756SOL     OW 6708   5.657   0.907   8.015 -0.3735  0.2203 -0.4355
 1756SOL    HW1 6709   5.659   0.932   8.108 -1.7453  0.7705 -0.5339
 1756SOL    HW2 6710   5.695   0.819   8.014  0.0043  0.3507  0.5962
 1757SOL     OW 6711   1.737   6.849   1.054  0.6684  0.2228 -0.0537
 1757SOL    HW1 6712   1.732   6.814   0.965 -0.7520  2.0018 -0.7509
 1757SOL    HW2 6713   1.813   6.907   1.053  0.1028  0.9816 -0.4348
 1758SOL     OW 6714   2.712   4.125   1.405 -0.9076  0.1339  0.0561
 1758SOL    HW1 6715   2.782   4.150   1.345 -0.7693 -0.6527 -0.1313
 1758SOL    HW2 6716   2.710   4.195   1.470 -1.0556  0.9984 -0.8537
 1759SOL     OW 6717   3.304   7.330   2.855 -0.1369  0.2171 -0.0646
 1759SOL    HW1 6718   3.360   7.399   2.891 -0.3845  1.4322 -1.8775
 1759SOL    HW2 6719   3.274   7.365   2.771  0.1678 -2.3167 -1.3137
 1760SOL     OW 6720   4.737   5.763   7.721  0.3715  0.1402 -0.3396
 1760SOL    HW1 6721   4.743   5.853   7.751  1.9993 -0.0084 -0.1164
 1760SOL    HW2 6722   4.723   5.712   7.801  1.1857  0.0672 -0.2256
 1761SOL     OW 6723   3.984   1.418  12.064 -0.0126  0.2060  0.2044
 1761SOL    HW1 6724   3.980   1.461  11.978  0.4658 -1.9915 -1.0036
 1761SOL    HW2 6725   3.915   1.351  12.060  1.3372 -1.2649  0.7186
 1762SOL     OW 6726   5.740   6.333   4.245  0.0124  0.0278 -0.7224
 1762SOL    HW1 6727   5.801   6.362   4.312  0.7232  0.8491 -1.6793
 1762SOL    HW2 6728   5.719   6.243   4.268  1.2850 -0.1433 -0.1561
 1763SOL     OW 6729   4.892   3.531   5.098 -0.2897  0.1562 -0.2952
 1763SOL    HW1 6730   4.825   3.477   5.056  0.5882 -2.2198  1.1238
 1763SOL    HW2 6731   4.847   3.612   5.122 -1.7932 -0.0597 -2.1874
 1764SOL     OW 6732   3.384   4.129   1.395 -0.0394 -0.3379 -0.3581
 1764SOL    HW1 6733   3.303   4.094   1.358 -0.0192 -1.0251  0.2151
 1764SOL    HW2 6734   3.448   4.059   1.383  0.0143 -0.5093  0.7804
 1765SOL     OW 6735   6.200   1.541   4.153 -0.5245  0.3626 -0.0043
 1765SOL    HW1 6736   6.180   1.576   4.066 -0.2786 -0.4199 -0.3938
 1765SOL    HW2 6737   6.210   1.617   4.209  1.6535  1.0122 -1.1566
 1766SOL     OW 6738   0.602   6.398   5.739  0.2999  0.6820  0.0118
 1766SOL    HW1 6739   0.585   6.306   5.718  0.5357  0.6583 -0.0784
 1766SOL    HW2 6740   0.554   6.447   5.672 -1.3582  0.6776  1.1318
 1767SOL     OW 6741   6.492   4.021   2.467  0.3240 -0.1357 -0.0196
 1767SOL    HW1 6742   6.574   4.050   2.507  0.5530 -0.0138 -0.5799
 1767SOL    HW2 6743   6.468   4.091   2.406  0.4418 -0.7332 -0.7574
 1768SOL     OW 6744   0.854   7.926  10.661 -0.7047  0.1287  0.0944
 1768SOL    HW1 6745   0.900   7.843  10.656 -0.5711  0.1005  1.3868
 1768SOL    HW2 6746   0.779   7.908  10.718 -0.2197  1.0608  1.0773
 1769SOL     OW 6747   1.826   7.753   8.802 -0.4450 -0.3977 -0.0552
 1769SOL    HW1 6748   1.905   7.806   8.800 -0.0487 -0.8285  1.8402
 1769SOL    HW2 6749   1.763   7.800   8.747  0.3746  1.1989  0.3237
 1770SOL     OW 6750   4.116   0.682   8.178 -0.5263  0.2189 -0.6210
 1770SOL    HW1 6751   4.107   0.767   8.136 -0.5056 -0.1118 -1.3209
 1770SOL    HW2 6752   4.122   0.620   8.105  1.2115 -0.2095 -0.1560
 1771SOL     OW 6753   4.993   6.286  11.615 -0.6284  0.1114  0.3557
 1771SOL    HW1 6754   5.021   6.368  11.656 -1.1114 -0.6613  2.3523
 1771SOL    HW2 6755   5.048   6.278  11.537  0.5322  1.5309  0.9882
 1772SOL     OW 6756   5.481   2.575   4.792 -0.0953 -0.2974  0.3570
 1772SOL    HW1 6757   5.426   2.531   4.728 -1.5278 -0.0740  1.3929
 1772SOL    HW2 6758   5.428   2.648   4.825  0.4295 -0.6276  2.0641
 1773SOL     OW 6759   1.823   0.159   8.178  0.5340 -0.0479  0.4184
 1773SOL    HW1 6760   1.765   0.157   8.102  1.3304  0.4017 -0.2168
 1773SOL    HW2 6761   1.766   0.142   8.253  0.0025 -2.2427 -0.4243
 1774SOL     OW 6762   2.490   1.982   7.863 -0.1522 -0.1632 -0.7685
 1774SOL    HW1 6763   2.517   1.911   7.804  0.1408  0.0319 -0.8675
 1774SOL    HW2 6764   2.539   2.058   7.833 -0.1783 -0.0090 -0.4186
 1775SOL     OW 6765   0.481   4.403   4.144  0.3216 -0.0853 -0.3746
 1775SOL    HW1 6766   0.439   4.384   4.060  0.5249 -1.7824 -0.1383
 1775SOL    HW2 6767   0.425   4.469   4.185  0.1727  0.6894 -1.7935
 1776SOL     OW 6768   3.614   5.872   1.860 -0.5264  0.2316 -0.3413
 1776SOL    HW1 6769   3.548   5.941   1.856 -0.1061  0.6232 -3.1658
 1776SOL    HW2 6770   3.568   5.793   1.832 -0.3531 -0.0416  0.1299
 1777SOL     OW 6771   1.711   5.317   3.850 -0.4520  0.4644 -0.3390
 1777SOL    HW1 6772   1.706   5.237   3.799  1.0363  0.5130 -0.5975
 1777SOL    HW2 6773   1.626   5.359   3.838 -1.4507 -1.2997  0.2260
 1778SOL     OW 6774   7.081   7.110   9.953  0.2758  1.1407 -0.4634
 1778SOL    HW1 6775   7.019   7.164  10.002  1.0077 -1.3794  3.7393
 1778SOL    HW2 6776   7.032   7.032   9.929  0.8000  0.8903 -0.7386
 1779SOL     OW 6777   3.242   6.370   9.359 -0.0233  0.4086  0.4082
 1779SOL    HW1 6778   3.316   6.397   9.305  0.0228  0.4655  0.4982
 1779SOL    HW2 6779   3.235   6.439   9.426  0.7026 -0.2871  1.2254
 1780SOL     OW 6780   7.116   5.877   5.666 -0.3395  0.3531 -0.1911
 1780SOL    HW1 6781   7.169   5.895   5.743  0.0091  0.0138 -0.3494
 1780SOL    HW2 6782   7.120   5.782   5.655  0.2456  0.4648 -1.0731
 1781SOL     OW 6783   2.122   4.903   8.414 -0.5057  0.3005  0.0262
 1781SOL    HW1 6784   2.103   4.995   8.434  0.4434  0.3221  0.9214
 1781SOL    HW2 6785   2.210   4.888   8.451  0.7025 -0.1233 -2.7561
 1782SOL     OW 6786   7.753   5.313  12.091  0.5384  0.4017  0.2396
 1782SOL    HW1 6787   7.807   5.392  12.080 -0.0159  0.8949  1.0250
 1782SOL    HW2 6788   7.689   5.336  12.158 -0.5300 -0.2561 -0.5315
 1783SOL     OW 6789   3.927   3.174   6.150 -0.0163  0.3835 -0.4917
 1783SOL    HW1 6790   4.005   3.226   6.166  0.0950  0.7316 -2.0457
 1783SOL    HW2 6791   3.958   3.098   6.101 -0.1721 -1.2297  1.7252
 1784SOL     OW 6792   1.684   1.182   4.154 -0.3835  0.2538  0.0974
 1784SOL    HW1 6793   1.671   1.094   4.190  0.3101 -0.7472 -1.9408
 1784SOL    HW2 6794   1.622   1.237   4.202 -1.1605 -1.4303  1.1079
 1785SOL     OW 6795   7.832   5.563   1.859 -0.3178  0.4302 -0.1584
 1785SOL    HW1 6796   7.843   5.486   1.915  0.2955 -1.1239 -2.2723
 1785SOL    HW2 6797   7.915   5.610   1.867  0.5542 -0.8403 -1.1752
 1786SOL     OW 6798   1.872   3.302   0.153 -0.7907 -1.0199  0.2245
 1786SOL    HW1 6799   1.939   3.357   0.193 -0.3750 -1.0338 -0.4216
 1786SOL    HW2 6800   1.845   3.242   0.222 -3.0272  1.5021  1.7115
 1787SOL     OW 6801   1.895   7.479  11.233 -0.2438 -0.3988 -0.4284
 1787SOL    HW1 6802   1.811   7.518  11.259  1.6173  2.7216  1.6524
 1787SOL    HW2 6803   1.901   7.498  11.139 -2.0904 -1.3154 -0.7862
 1788SOL     OW 6804   0.304   1.072  11.683 -0.3334 -0.1559 -0.3524
 1788SOL    HW1 6805   0.397   1.096  11.689 -0.1304 -1.1009  0.4993
 1788SOL    HW2 6806   0.299   1.011  11.609 -0.4089  0.4369 -0.8477
 1789SOL     OW 6807   0.514   3.968   8.344  0.5812 -0.0213 -0.0535
 1789SOL    HW1 6808   0.515   3.876   8.369 -1.7225  0.4003  1.9519
 1789SOL    HW2 6809   0.606   3.995   8.347  1.5819 -2.6364 -2.6236
 1790SOL     OW 6810   5.397   6.482   8.308 -0.0187  0.0202 -0.4985
 1790SOL    HW1 6811   5.420   6.403   8.356  1.9691  0.7319 -0.1822
 1790SOL    HW2 6812   5.475   6.502   8.255 -0.8499  1.2121 -1.3343
 1791SOL     OW 6813   1.145   1.491   8.585  0.5552  0.1109  0.6579
 1791SOL    HW1 6814   1.051   1.483   8.601  0.3385  0.7261 -0.2063
 1791SOL    HW2 6815   1.152   1.489   8.489  1.2450  1.7663  0.6448
 1792SOL     OW 6816   7.021   3.603  11.665 -0.1220 -0.2594 -0.0738
 1792SOL    HW1 6817   6.965   3.621  11.740  0.8257  0.2233  0.5446
 1792SOL    HW2 6818   7.001   3.672  11.603  1.4560  1.3742  1.1266
 1793SOL     OW 6819   0.680   1.641   0.905 -0.1820 -0.2449  0.5867
 1793SOL    HW1 6820   0.749   1.582   0.932 -1.0288 -1.8079 -0.5009
 1793SOL    HW2 6821   0.600   1.606   0.945 -0.5913  0.6264  0.5724
 1794SOL     OW 6822   4.407   3.055  11.283  0.3049  1.3248 -0.3844
 1794SOL    HW1 6823   4.447   3.098  11.359 -0.7190  1.6504 -0.0119
 1794SOL    HW2 6824   4.437   2.964  11.289  0.6978  1.4756  0.0771
 1795SOL     OW 6825   3.475   3.979   0.061 -0.0124 -0.0162  0.4177
 1795SOL    HW1 6826   3.541   3.911   0.049 -0.0136 -0.0045  0.3431
 1795SOL    HW2 6827   3.403   3.936   0.106 -0.5602 -0.3936 -0.7803
 1796SOL     OW 6828   2.337   0.035   2.702  0.4495 -0.2149  0.7898
 1796SOL    HW1 6829   2.424   0.076   2.694  0.6838 -1.0204 -1.2092
 1796SOL    HW2 6830   2.324  -0.010   2.619 -1.9630 -0.0182  1.0138
 1797SOL     OW 6831   0.325   4.911   9.233  0.1046 -1.1776  0.0880
 1797SOL    HW1 6832   0.341   4.966   9.310 -0.6429 -0.2524 -0.4041
 1797SOL    HW2 6833   0.275   4.836   9.267 -0.1233 -0.8351  0.5184
 1798SOL     OW 6834   2.241   7.243   9.267 -0.1105 -0.1107  0.3367
 1798SOL    HW1 6835   2.323   7.277   9.231 -0.3698  1.8008  1.4097
 1798SOL    HW2 6836   2.241   7.150   9.244 -0.0829  0.8056 -4.1010
 1799SOL     OW 6837   2.170   7.485   5.575  0.2637  0.1419  0.3058
 1799SOL    HW1 6838   2.081   7.514   5.599  0.2722 -0.1751  0.7334
 1799SOL    HW2 6839   2.157   7.425   5.502  0.0091 -0.8466  1.1358
 1800SOL     OW 6840   7.207   4.344   1.700 -0.1714  0.4623 -0.6272
 1800SOL    HW1 6841   7.173   4.408   1.763 -1.0236 -0.8502  0.2786
 1800SOL    HW2 6842   7.131   4.321   1.646 -0.5970 -1.7661  0.7928
 1801SOL     OW 6843   2.317   3.576   4.195  0.2118  0.3319 -0.5666
 1801SOL    HW1 6844   2.309   3.481   4.197 -0.5908  0.3987 -0.4676
 1801SOL    HW2 6845   2.369   3.598   4.272  0.0909  0.0016 -0.3933
 1802SOL     OW 6846   6.822   3.960   4.429  0.7249 -0.3899  0.1901
 1802SOL    HW1 6847   6.824   3.901   4.353  0.2109  0.5795 -0.6008
 1802SOL    HW2 6848   6.817   3.902   4.504  0.4550 -1.3605 -0.5601
 1803SOL     OW 6849   7.132   3.203   4.505 -0.3012  0.0115  0.7192
 1803SOL    HW1 6850   7.222   3.222   4.476 -0.5043  0.9467  0.6710
 1803SOL    HW2 6851   7.143   3.166   4.593  0.1225  0.4918  0.8781
 1804SOL     OW 6852   0.227   6.892   3.104  0.0330 -0.2262 -0.2300
 1804SOL    HW1 6853   0.209   6.799   3.116  0.4930 -0.4569 -1.2339
 1804SOL    HW2 6854   0.227   6.904   3.009 -0.9105  0.9809 -0.1042
 1805SOL     OW 6855   7.506   0.723   1.598 -0.7801 -0.3751 -0.1687
 1805SOL    HW1 6856   7.507   0.659   1.670  1.5788 -0.3343 -0.0871
 1805SOL    HW2 6857   7.475   0.804   1.639 -1.2439 -0.8071  0.3552
 1806SOL     OW 6858   5.602   7.751   5.810 -0.7936  0.3754  0.1853
 1806SOL    HW1 6859   5.534   7.775   5.747 -1.9565 -2.3070  0.2881
 1806SOL    HW2 6860   5.662   7.696   5.761 -1.5434 -1.4898  1.2687
 1807SOL     OW 6861   5.640   7.900   5.213  0.2985 -0.4255 -0.3252
 1807SOL    HW1 6862   5.660   7.956   5.137 -0.4968 -0.0097 -0.2381
 1807SOL    HW2 6863   5.704   7.925   5.279 -0.1487  0.5196 -0.2299
 1808SOL     OW 6864   7.753   1.078   4.788 -0.2919 -0.1238  0.0140
 1808SOL    HW1 6865   7.809   1.083   4.710 -1.3294 -0.8037 -0.8028
 1808SOL    HW2 6866   7.763   0.988   4.818 -0.5535 -0.0986  0.1687
 1809SOL     OW 6867   7.172   1.680  11.083 -0.5052 -0.3764 -0.0166
 1809SOL    HW1 6868   7.164   1.773  11.061  0.1789 -0.0559  1.0168
 1809SOL    HW2 6869   7.106   1.666  11.151  1.6853  0.2454  2.3884
 1810SOL     OW 6870   4.917   5.335   9.676 -0.4610 -0.1194  0.0224
 1810SOL    HW1 6871   4.830   5.356   9.642 -0.2957  0.0859 -0.2701
 1810SOL    HW2 6872   4.919   5.239   9.678 -0.5633 -0.1281 -0.2980
 1811SOL     OW 6873   7.314   2.839  10.598 -0.2170 -0.1232  0.1331
 1811SOL    HW1 6874   7.221   2.847  10.617 -0.3416 -0.1695 -0.4420
 1811SOL    HW2 6875   7.344   2.930  10.589  0.1419 -0.0333  1.8957
 1812SOL     OW 6876   2.718   5.872   9.437 -0.3937  0.2405  0.1527
 1812SOL    HW1 6877   2.739   5.927   9.361 -2.0529  1.1888  0.3236
 1812SOL    HW2 6878   2.797   5.873   9.490 -0.1411  1.9376 -0.1950
 1813SOL     OW 6879   6.008   4.990   8.717  0.1371  0.1044  0.0741
 1813SOL    HW1 6880   5.935   5.053   8.714 -0.3324 -0.4687 -1.3141
 1813SOL    HW2 6881   6.052   5.000   8.632  1.2311 -0.0985  0.6004
 1814SOL     OW 6882   2.229   4.906   4.975  0.1002  0.3692 -0.4290
 1814SOL    HW1 6883   2.166   4.952   5.031 -1.0289 -1.8820  0.2797
 1814SOL    HW2 6884   2.314   4.935   5.006 -0.5378  2.2555 -0.3000
 1815SOL     OW 6885   4.699   0.844   8.000  0.3743  0.5673 -0.4108
 1815SOL    HW1 6886   4.772   0.814   7.946  0.7068  1.8006 -0.6835
 1815SOL    HW2 6887   4.703   0.940   7.995 -0.8707  0.6684  0.0982
 1816SOL     OW 6888   1.264   7.023   1.557  0.3680  0.1016 -0.4855
 1816SOL    HW1 6889   1.302   7.071   1.631 -0.6507 -1.1082  0.8767
 1816SOL    HW2 6890   1.271   6.931   1.582 -0.8023 -0.2845 -1.4904
 1817SOL     OW 6891   1.359   1.421   7.106  0.3597  0.5513  0.2531
 1817SOL    HW1 6892   1.342   1.460   7.020 -0.6948  0.1806  0.2814
 1817SOL    HW2 6893   1.383   1.331   7.086 -3.3721 -0.6436  0.4472
 1818SOL     OW 6894   5.591   1.484  10.059 -0.5194  0.0530 -0.2994
 1818SOL    HW1 6895   5.675   1.526  10.078 -0.1771 -0.8387  0.1778
 1818SOL    HW2 6896   5.543   1.488  10.141 -0.7975  0.2099 -0.4684
 1819SOL     OW 6897   1.949   3.552   7.454 -0.5764  0.0294 -0.0482
 1819SOL    HW1 6898   2.030   3.501   7.459 -0.2307  0.6741  1.7040
 1819SOL    HW2 6899   1.941   3.575   7.362 -0.5558 -2.8220 -0.8713
 1820SOL     OW 6900   0.438   1.686   7.013  0.2625 -0.5229  0.3734
 1820SOL    HW1 6901   0.419   1.737   7.092 -2.5102  0.1403 -0.6265
 1820SOL    HW2 6902   0.514   1.730   6.974  0.1793  0.5860  1.4160
 1821SOL     OW 6903   6.000   6.014   1.026 -0.7347  0.5335  0.6827
 1821SOL    HW1 6904   6.061   5.944   1.007  0.4050  1.1477  1.9670
 1821SOL    HW2 6905   5.928   5.972   1.073 -0.2569  0.1731  1.0861
 1822SOL     OW 6906   1.045   3.556   7.820  0.2819  0.0186  0.1313
 1822SOL    HW1 6907   1.133   3.586   7.840  0.2736 -0.0529  0.2739
 1822SOL    HW2 6908   1.053   3.518   7.732 -0.0314  1.7820 -0.6891
 1823SOL     OW 6909   6.139   0.768  11.193 -0.3225  0.0791 -0.3043
 1823SOL    HW1 6910   6.095   0.769  11.278  1.0757 -0.6626  0.4718
 1823SOL    HW2 6911   6.227   0.802  11.211  1.0112 -2.7707 -0.7811
 1824SOL     OW 6912   1.206   5.060   3.537  0.0717 -0.1694 -0.1470
 1824SOL    HW1 6913   1.217   4.997   3.609 -0.4145 -1.5011 -1.1846
 1824SOL    HW2 6914   1.257   5.023   3.465  1.4162  1.6869 -0.1950
 1825SOL     OW 6915   5.636   3.005   2.069 -0.1307 -0.2066 -0.3089
 1825SOL    HW1 6916   5.620   2.918   2.032 -0.1947 -0.4651  0.3020
 1825SOL    HW2 6917   5.729   3.021   2.053 -0.5130  0.4432 -2.1073
 1826SOL     OW 6918   2.706   7.615   6.028  0.2186  0.0088 -0.2868
 1826SOL    HW1 6919   2.615   7.611   5.999 -0.0883 -0.5375  0.6856
 1826SOL    HW2 6920   2.747   7.680   5.970 -0.5275 -0.4791 -1.3953
 1827SOL     OW 6921   6.991   1.665   4.044  0.5975 -0.6893  0.5085
 1827SOL    HW1 6922   7.025   1.597   4.102  1.3389 -0.2445  0.6092
 1827SOL    HW2 6923   7.013   1.747   4.089 -1.6292 -0.3817  1.1467
 1828SOL     OW 6924   7.641   7.405   4.519 -0.3485  0.6807 -0.4925
 1828SOL    HW1 6925   7.593   7.378   4.597  1.1571  1.2179  0.6583
 1828SOL    HW2 6926   7.733   7.403   4.545  0.5817 -2.5492 -3.2533
 1829SOL     OW 6927   7.541   3.117   9.508 -0.2533 -0.2396 -0.4011
 1829SOL    HW1 6928   7.461   3.095   9.461 -0.5865 -0.9997  0.5087
 1829SOL    HW2 6929   7.600   3.044   9.491 -0.1181 -0.1729 -0.2271
 1830SOL     OW 6930   3.424   4.037  11.332 -0.6530  0.1157  0.2808
 1830SOL    HW1 6931   3.377   4.014  11.252 -0.9745  3.7507 -0.7324
 1830SOL    HW2 6932   3.359   4.030  11.401 -0.7538 -1.5989  0.0639
 1831SOL     OW 6933   3.633   7.124   6.884 -0.0726 -0.1517  0.1639
 1831SOL    HW1 6934   3.637   7.048   6.942  0.1626  0.0838  0.4636
 1831SOL    HW2 6935   3.540   7.136   6.867 -0.1677 -0.0543  0.7264
 1832SOL     OW 6936   5.486   2.683   6.654 -0.3756 -0.1721  0.7107
 1832SOL    HW1 6937   5.410   2.635   6.620  0.0457 -0.8966  0.7610
 1832SOL    HW2 6938   5.486   2.664   6.748 -0.5726  0.4590  0.8428
 1833SOL     OW 6939   1.136   1.847   5.800 -0.6159 -0.0755  0.5350
 1833SOL    HW1 6940   1.086   1.906   5.744  0.3632  0.5335  0.2913
 1833SOL    HW2 6941   1.071   1.784   5.831 -1.1317 -0.6590 -1.5619
 1834SOL     OW 6942   3.517   7.974   4.193 -0.0997  0.6921 -0.3521
 1834SOL    HW1 6943   3.506   7.966   4.288  1.3942 -1.1612 -0.2663
 1834SOL    HW2 6944   3.428   7.982   4.159 -0.9620 -1.7291  1.0159
 1835SOL     OW 6945   6.964   1.808   6.456  0.3259 -0.3513 -0.0597
 1835SOL    HW1 6946   6.902   1.748   6.497 -0.0923  0.8981  1.2063
 1835SOL    HW2 6947   6.913   1.887   6.437  1.5667  0.8450  1.3424
 1836SOL     OW 6948   4.129   1.067   8.756 -0.4075  0.2253  0.3762
 1836SOL    HW1 6949   4.193   1.071   8.684 -0.3084  0.5336  0.4800
 1836SOL    HW2 6950   4.092   0.979   8.750 -2.2172  1.0486 -1.6309
 1837SOL     OW 6951   6.219   7.459  11.404  0.5485  0.7085  0.0328
 1837SOL    HW1 6952   6.272   7.496  11.333  0.8867  0.1983  0.0192
 1837SOL    HW2 6953   6.163   7.395  11.361  1.0723  0.0688  0.2838
 1838SOL     OW 6954   5.340   6.711  10.717 -0.1039  0.4101 -0.1964
 1838SOL    HW1 6955   5.406   6.675  10.657 -1.0091 -0.6061 -0.6037
 1838SOL    HW2 6956   5.349   6.657  10.796 -2.1156 -1.4499 -1.1502
 1839SOL     OW 6957   0.004   6.026   9.573 -0.2763  0.2689 -0.4759
 1839SOL    HW1 6958   0.054   5.973   9.635  0.0658  0.3654 -0.6617
 1839SOL    HW2 6959   0.036   5.998   9.487 -0.5236  0.3529 -0.5966
 1840SOL     OW 6960   0.149   4.372   4.328  0.2099  0.1877  0.1045
 1840SOL    HW1 6961   0.167   4.296   4.273  3.0637  1.1273 -0.4598
 1840SOL    HW2 6962   0.193   4.352   4.411 -1.6084  0.0002  1.0660
 1841SOL     OW 6963   6.986   7.196   7.848 -0.1140  0.1387  0.0714
 1841SOL    HW1 6964   7.054   7.129   7.841 -1.1623 -0.8824 -0.6384
 1841SOL    HW2 6965   7.006   7.258   7.777  0.2928  0.0514  0.1106
 1842SOL     OW 6966   6.056   2.978   4.432  0.2004 -0.1982  0.0005
 1842SOL    HW1 6967   5.969   2.958   4.467 -0.7378  1.2381 -1.3122
 1842SOL    HW2 6968   6.079   2.902   4.380 -1.1539  0.1085 -1.1243
 1843SOL     OW 6969   7.538   6.943   6.328  0.0204  0.0645 -0.2629
 1843SOL    HW1 6970   7.520   6.886   6.403 -0.8616  1.2161  0.4241
 1843SOL    HW2 6971   7.600   7.008   6.361  0.4500 -0.0479 -0.8348
 1844SOL     OW 6972   6.259   3.888   4.900 -0.2728  0.0655  0.6921
 1844SOL    HW1 6973   6.322   3.955   4.926  0.2967 -0.4195  0.5806
 1844SOL    HW2 6974   6.307   3.805   4.906 -0.3738 -0.1633 -0.9633
 1845SOL     OW 6975   6.222   2.150   1.906 -0.2286  0.0129 -0.4044
 1845SOL    HW1 6976   6.222   2.130   2.000  0.3778 -1.7586 -0.7284
 1845SOL    HW2 6977   6.132   2.134   1.878 -0.0359 -1.1939 -0.4107
 1846SOL     OW 6978   7.727   3.036   8.405  0.3701 -0.0834  0.6777
 1846SOL    HW1 6979   7.678   3.080   8.474 -0.9437 -1.4605  0.6884
 1846SOL    HW2 6980   7.723   3.095   8.330 -1.1992 -0.0702  0.7379
 1847SOL     OW 6981   0.108   7.185  11.058  0.1351 -0.5727  0.2022
 1847SOL    HW1 6982   0.030   7.229  11.023  0.5715 -0.8598 -1.1784
 1847SOL    HW2 6983   0.181   7.242  11.033  0.7989 -2.2936 -2.2296
 1848SOL     OW 6984   5.182   2.823   2.015  0.4577  0.3701  0.4740
 1848SOL    HW1 6985   5.219   2.837   1.928 -0.9475 -1.5545 -0.5206
 1848SOL    HW2 6986   5.242   2.762   2.058  0.1406 -0.2446  0.0663
 1849SOL     OW 6987   6.016   3.433   0.168  0.4156  0.2701  0.2353
 1849SOL    HW1 6988   6.003   3.340   0.184 -0.5595  0.5918  1.5548
 1849SOL    HW2 6989   6.108   3.441   0.143  1.6540 -0.6814  3.7774
 1850SOL     OW 6990   3.146   3.832   4.359  0.0491  0.2918 -0.1173
 1850SOL    HW1 6991   3.235   3.809   4.331 -0.7972 -1.6273 -1.4050
 1850SOL    HW2 6992   3.119   3.758   4.414 -0.9305  0.6247 -0.1443
 1851SOL     OW 6993   2.670   7.429   7.962 -0.0964  1.1337  0.1220
 1851SOL    HW1 6994   2.612   7.501   7.938 -1.5545 -0.3984 -1.1754
 1851SOL    HW2 6995   2.746   7.439   7.905  0.6258  2.6740  1.2620
 1852SOL     OW 6996   5.874   0.382   8.478  0.2833 -0.1808 -0.3625
 1852SOL    HW1 6997   5.945   0.319   8.493  0.4776  0.1700  0.2359
 1852SOL    HW2 6998   5.800   0.346   8.527  0.4965  0.2256  0.2724
 1853SOL     OW 6999   5.527   2.399   6.356  0.2571  0.0076 -0.0972
 1853SOL    HW1 7000   5.452   2.459   6.354 -1.2137 -1.7063  0.3269
 1853SOL    HW2 7001   5.541   2.375   6.265  0.7644  0.8689 -0.2541
 1854SOL     OW 7002   3.442   5.309   4.516 -0.2229  0.2786 -0.0203
 1854SOL    HW1 7003   3.386   5.367   4.568  1.5309  0.8226  1.3627
 1854SOL    HW2 7004   3.503   5.272   4.580  0.3082 -1.1220 -1.2992
 1855SOL     OW 7005   0.460   6.007   3.867 -0.2922  0.7903  0.7472
 1855SOL    HW1 7006   0.392   5.973   3.924 -0.2831 -0.2969  0.1500
 1855SOL    HW2 7007   0.460   5.947   3.792  1.4107  0.6539  0.8082
 1856SOL     OW 7008   0.945   1.092   2.558  0.8608 -0.1632  0.5879
 1856SOL    HW1 7009   0.960   1.184   2.581  0.3274 -0.2775  1.4583
 1856SOL    HW2 7010   0.897   1.095   2.475  0.8666  0.3486  0.6012
 1857SOL     OW 7011   2.541   0.874   8.711  0.2469  0.1045  0.3348
 1857SOL    HW1 7012   2.579   0.795   8.672  2.8118  0.1612  2.4599
 1857SOL    HW2 7013   2.454   0.880   8.672  0.9714 -2.2527 -1.9098
 1858SOL     OW 7014   2.872   7.059  12.103 -0.0493 -0.2337  0.1396
 1858SOL    HW1 7015   2.933   7.131  12.117 -0.6614  0.1109  1.0893
 1858SOL    HW2 7016   2.898   6.993  12.166 -0.6876 -0.0611  0.5901
 1859SOL     OW 7017   3.389   1.700   0.316  0.3177  0.3047 -0.1417
 1859SOL    HW1 7018   3.300   1.682   0.286  0.0819  1.0448  0.0817
 1859SOL    HW2 7019   3.446   1.666   0.247 -0.1499  0.1253 -0.4389
 1860SOL     OW 7020   6.477   0.163   7.479  0.0424  0.1406 -0.2158
 1860SOL    HW1 7021   6.548   0.221   7.508  0.4475 -0.4693  0.0419
 1860SOL    HW2 7022   6.509   0.126   7.397 -0.6960  1.1306 -0.9644
 1861SOL     OW 7023   6.343   7.790  11.499 -0.0071 -0.3445  0.5503
 1861SOL    HW1 7024   6.338   7.768  11.406  0.5052 -1.4830  0.7725
 1861SOL    HW2 7025   6.340   7.885  11.502 -0.1444 -0.3078 -0.6272
 1862SOL     OW 7026   5.807   7.916   1.681 -0.2243  0.1166 -0.2917
 1862SOL    HW1 7027   5.828   7.831   1.641  1.8600  0.3415  0.2333
 1862SOL    HW2 7028   5.748   7.894   1.753  2.2225 -1.2681  1.4314
 1863SOL     OW 7029   2.016   0.211   6.964 -0.1035  0.1001  0.1116
 1863SOL    HW1 7030   1.979   0.279   6.908  1.5876 -0.4271 -1.7674
 1863SOL    HW2 7031   1.948   0.144   6.969 -1.7401  1.7708  1.8936
 1864SOL     OW 7032   3.438   5.499   8.829 -0.0564  0.2725 -0.0834
 1864SOL    HW1 7033   3.441   5.576   8.886 -2.4625 -0.5840  1.3610
 1864SOL    HW2 7034   3.507   5.442   8.862  0.7454  1.1814 -0.1750
 1865SOL     OW 7035   6.479   1.276   5.358  0.0124 -0.4137 -0.2283
 1865SOL    HW1 7036   6.573   1.279   5.342  0.1772 -1.6929  0.3778
 1865SOL    HW2 7037   6.445   1.222   5.287 -0.1133 -0.8169  0.1324
 1866SOL     OW 7038   2.341   5.325   3.907  0.2057  0.2439  0.3759
 1866SOL    HW1 7039   2.362   5.316   3.999  0.2436 -0.2169  0.3234
 1866SOL    HW2 7040   2.254   5.287   3.898  0.1970  0.2979  0.2244
 1867SOL     OW 7041   5.601   2.972   7.440 -0.3405 -0.4222 -0.0850
 1867SOL    HW1 7042   5.575   2.991   7.530  0.7205 -0.1740  0.1887
 1867SOL    HW2 7043   5.585   3.053   7.392  0.0756 -0.2203  0.1161
 1868SOL     OW 7044   6.482   1.714  10.296 -0.1139 -0.3171 -0.0546
 1868SOL    HW1 7045   6.566   1.676  10.322  0.7986  1.9095  0.4487
 1868SOL    HW2 7046   6.485   1.715  10.201  0.8589  0.5670 -0.0350
 1869SOL     OW 7047   4.797   5.589   2.587 -0.2509  0.8355 -0.1753
 1869SOL    HW1 7048   4.774   5.661   2.527 -2.0944  0.0864 -0.4281
 1869SOL    HW2 7049   4.753   5.612   2.669  2.1514  1.7856  0.9292
 1870SOL     OW 7050   5.946   1.934   4.033 -0.1823  0.0159  0.3179
 1870SOL    HW1 7051   5.880   1.950   3.965 -0.1361  0.2924  0.3381
 1870SOL    HW2 7052   5.895   1.902   4.108 -0.5343  2.0644  0.9981
 1871SOL     OW 7053   7.577   4.166   9.196  0.0473  0.0027 -0.1868
 1871SOL    HW1 7054   7.573   4.076   9.230 -0.4569 -0.2268 -0.8519
 1871SOL    HW2 7055   7.486   4.195   9.193  0.3059  1.2251  1.7958
 1872SOL     OW 7056   1.255   4.476   1.616  0.2273  0.4568 -0.4723
 1872SOL    HW1 7057   1.328   4.507   1.562 -0.1724  0.5646 -0.9622
 1872SOL    HW2 7058   1.225   4.396   1.572 -0.3164  0.7304 -0.6066
 1873SOL     OW 7059   0.686   4.807   1.745 -0.0225  0.6819 -0.5879
 1873SOL    HW1 7060   0.640   4.753   1.680 -1.1063  3.1950 -2.0466
 1873SOL    HW2 7061   0.642   4.788   1.828  0.3382 -1.3945 -0.8186
 1874SOL     OW 7062   0.838   4.888   6.086 -0.4336 -0.2041 -0.0891
 1874SOL    HW1 7063   0.837   4.891   6.182  0.9717  0.5072 -0.0652
 1874SOL    HW2 7064   0.811   4.975   6.059 -1.0389 -0.4694 -0.3569
 1875SOL     OW 7065   7.725   0.980   4.273 -0.7578 -0.6913  0.2978
 1875SOL    HW1 7066   7.788   0.931   4.326 -1.2253 -1.0616  0.5179
 1875SOL    HW2 7067   7.753   0.966   4.183  0.1691  0.1174  0.4468
 1876SOL     OW 7068   2.997   6.500   8.275 -0.0638  0.3261 -0.0707
 1876SOL    HW1 7069   3.000   6.556   8.197  0.6699 -0.3964 -0.5797
 1876SOL    HW2 7070   2.996   6.411   8.240 -1.3184  0.0073  0.7264
 1877SOL     OW 7071   0.229   6.283  11.317  0.0218  0.1260 -0.1809
 1877SOL    HW1 7072   0.151   6.247  11.276 -0.3630 -0.7945  1.2735
 1877SOL    HW2 7073   0.299   6.269  11.254 -1.0298  1.3529 -1.6933
 1878SOL     OW 7074   0.872   5.868   2.083  0.0149  0.6885 -0.2793
 1878SOL    HW1 7075   0.877   5.778   2.113 -1.3417  0.7288  0.1181
 1878SOL    HW2 7076   0.946   5.877   2.022 -0.0137 -0.7694 -0.5615
 1879SOL     OW 7077   5.303   2.794   8.549 -0.2546  0.0333 -0.0688
 1879SOL    HW1 7078   5.372   2.860   8.546  1.0553 -1.3372 -0.9723
 1879SOL    HW2 7079   5.280   2.788   8.642  1.7150 -0.3455  0.4286
 1880SOL     OW 7080   6.281   6.348   5.378  0.4333  0.4813 -0.1785
 1880SOL    HW1 7081   6.254   6.413   5.313 -0.8386  1.0447  0.8880
 1880SOL    HW2 7082   6.246   6.265   5.345 -1.0429  0.9152  0.2515
 1881SOL     OW 7083   5.036   2.451   4.505  0.1483 -0.0040 -0.2866
 1881SOL    HW1 7084   5.006   2.526   4.556 -0.9303 -0.1658 -0.6529
 1881SOL    HW2 7085   4.993   2.375   4.545  1.1335 -0.4320  0.0072
 1882SOL     OW 7086   3.046   7.253   1.250 -0.4160  0.5157  0.1239
 1882SOL    HW1 7087   3.041   7.349   1.250  0.2218  0.5732  1.1437
 1882SOL    HW2 7088   2.984   7.226   1.317  0.8971  0.3623  1.3407
 1883SOL     OW 7089   1.588   6.941  10.830 -0.2899 -0.0581 -0.1195
 1883SOL    HW1 7090   1.582   6.909  10.740 -0.1709 -2.4611  0.6561
 1883SOL    HW2 7091   1.501   6.924  10.868 -0.2910  0.7770  0.2950
 1884SOL     OW 7092   4.341   2.548   8.249  0.3295  0.1678 -0.7082
 1884SOL    HW1 7093   4.248   2.564   8.263  0.0344 -1.4809 -0.5844
 1884SOL    HW2 7094   4.371   2.624   8.199 -0.5148  1.9052  1.2734
 1885SOL     OW 7095   4.640   2.349   4.150 -0.2163  0.1231 -0.3995
 1885SOL    HW1 7096   4.615   2.330   4.059 -1.3224  2.7182 -0.7409
 1885SOL    HW2 7097   4.565   2.397   4.185  0.4717 -0.2578  1.7070
 1886SOL     OW 7098   5.884   0.907  11.858 -0.2484  0.4485  0.1168
 1886SOL    HW1 7099   5.955   0.853  11.823 -1.0713 -0.5202 -0.0970
 1886SOL    HW2 7100   5.868   0.973  11.791  0.0430  0.2937 -0.1064
 1887SOL     OW 7101   6.129   3.937  12.128 -0.4686 -0.7074  0.8035
 1887SOL    HW1 7102   6.194   3.935  12.199  1.8450 -0.6325 -1.1683
 1887SOL    HW2 7103   6.141   4.024  12.089 -0.5961 -1.3019 -0.5932
 1888SOL     OW 7104   6.000   0.072   8.118  0.3283  0.3472  0.2877
 1888SOL    HW1 7105   5.963   0.160   8.109  1.2118  0.6162 -0.8208
 1888SOL    HW2 7106   5.929   0.021   8.157 -1.0736  0.9540 -1.3605
 1889SOL     OW 7107   1.954   1.943   4.325  0.3582  0.6107 -0.3077
 1889SOL    HW1 7108   1.981   1.870   4.269  0.4190  1.0571 -0.8676
 1889SOL    HW2 7109   2.008   2.017   4.296 -0.5687  1.1956 -0.5955
 1890SOL     OW 7110   3.172   2.487   3.972  0.4805 -0.0013 -0.5327
 1890SOL    HW1 7111   3.203   2.416   3.916  2.0566 -2.4229  3.0750
 1890SOL    HW2 7112   3.251   2.537   3.993 -0.1448  1.0866 -0.6663
 1891SOL     OW 7113   7.214   3.579   4.988  0.4076 -0.7259 -0.3451
 1891SOL    HW1 7114   7.189   3.498   4.943 -0.9517 -1.0129  0.8434
 1891SOL    HW2 7115   7.202   3.647   4.921 -2.0942 -1.0662 -0.3735
 1892SOL     OW 7116   6.094   3.811   6.605 -0.0153  0.1256 -0.2207
 1892SOL    HW1 7117   6.022   3.844   6.550  0.0217 -0.2816 -0.5250
 1892SOL    HW2 7118   6.092   3.866   6.683 -1.6154 -0.8015  0.4594
 1893SOL     OW 7119   4.942   1.624   0.335  0.0115 -0.5213  0.1641
 1893SOL    HW1 7120   5.000   1.622   0.258 -1.4792 -1.1456 -0.9994
 1893SOL    HW2 7121   4.955   1.539   0.377 -1.1076 -1.2593 -0.9346
 1894SOL     OW 7122   5.044   7.689   6.339  0.5497  0.6163 -0.1332
 1894SOL    HW1 7123   5.056   7.633   6.416  2.0181 -0.0456 -0.7998
 1894SOL    HW2 7124   4.949   7.703   6.334  0.3256 -0.2569  1.1389
 1895SOL     OW 7125   7.480   2.117   7.542 -0.4796 -0.0075 -0.1809
 1895SOL    HW1 7126   7.492   2.207   7.572 -0.4734 -0.5447  1.5029
 1895SOL    HW2 7127   7.451   2.126   7.451  1.4489  1.6431 -0.7057
 1896SOL     OW 7128   4.435   2.832   7.145  0.0419  0.2319  0.5427
 1896SOL    HW1 7129   4.412   2.922   7.170  2.1140  0.4005  2.1537
 1896SOL    HW2 7130   4.369   2.777   7.186 -1.0319  0.9795 -0.1423
 1897SOL     OW 7131   6.301   6.534   9.662 -0.0902 -0.3226 -1.1301
 1897SOL    HW1 7132   6.225   6.587   9.687 -1.0503 -1.5398 -1.3540
 1897SOL    HW2 7133   6.316   6.556   9.570 -1.3049 -1.3444 -1.6051
 1898SOL     OW 7134   5.455   5.642   8.225  0.5583  0.5893  0.3743
 1898SOL    HW1 7135   5.380   5.674   8.275  1.6096  0.9026  1.8089
 1898SOL    HW2 7136   5.424   5.561   8.184 -0.8143  1.1737  0.2109
 1899SOL     OW 7137   1.193   3.199   5.290  0.4786 -0.0637  0.3750
 1899SOL    HW1 7138   1.193   3.209   5.195  1.6088  0.2366  0.3885
 1899SOL    HW2 7139   1.238   3.277   5.322 -0.0782 -0.0598  1.1716
 1900SOL     OW 7140   2.150   5.624   3.077  0.4917 -0.0429  0.5565
 1900SOL    HW1 7141   2.236   5.646   3.112  1.4834 -3.2893  0.4697
 1900SOL    HW2 7142   2.167   5.593   2.988 -0.3357 -3.0131  1.3306
 1901SOL     OW 7143   5.258   7.755  12.158 -0.0447 -0.3198  0.5778
 1901SOL    HW1 7144   5.254   7.850  12.158 -0.4175 -0.3266  1.2700
 1901SOL    HW2 7145   5.290   7.732  12.246 -2.5285 -0.8975  1.4403
 1902SOL     OW 7146   1.670   6.194   8.805  0.6962  0.2790 -0.0932
 1902SOL    HW1 7147   1.640   6.280   8.777 -2.7999  0.4009  3.2385
 1902SOL    HW2 7148   1.748   6.211   8.858  0.5584  1.2768 -0.1942
 1903SOL     OW 7149   0.387   1.245   9.316  0.3447 -0.0836 -0.5343
 1903SOL    HW1 7150   0.350   1.272   9.232 -0.0965 -0.1922 -0.3797
 1903SOL    HW2 7151   0.354   1.308   9.379 -0.5750 -0.8665 -0.1974
 1904SOL     OW 7152   0.296   3.236   9.031  0.1956  0.0871  0.0132
 1904SOL    HW1 7153   0.266   3.324   9.053 -0.2495 -0.5174  2.0457
 1904SOL    HW2 7154   0.389   3.237   9.054 -0.0339 -0.2379  1.0102
 1905SOL     OW 7155   4.900   3.081  12.281  0.4213  0.6373  0.5441
 1905SOL    HW1 7156   4.965   3.016  12.306  0.2279  1.0672  2.2765
 1905SOL    HW2 7157   4.942   3.131  12.210  0.9965 -0.6217 -0.0330
 1906SOL     OW 7158   5.948   6.457  11.854 -0.8192  0.2693 -0.2816
 1906SOL    HW1 7159   5.864   6.502  11.839 -0.3825  1.2684  0.1461
 1906SOL    HW2 7160   5.993   6.463  11.769 -2.4890 -3.3100 -1.6171
 1907SOL     OW 7161   4.464   4.506   2.930 -0.1185 -0.4918 -0.0411
 1907SOL    HW1 7162   4.399   4.474   2.868  0.7369  0.1394 -1.2967
 1907SOL    HW2 7163   4.448   4.456   3.010 -0.0430 -2.7028 -1.3334
 1908SOL     OW 7164   4.004   5.349   5.365  0.4634 -0.3187  0.1625
 1908SOL    HW1 7165   4.070   5.412   5.335 -0.9907  1.4561  0.5333
 1908SOL    HW2 7166   3.980   5.379   5.452 -0.5933 -1.1378  0.1650
 1909SOL     OW 7167   2.689   1.656  10.079  0.1863 -0.0123  0.1783
 1909SOL    HW1 7168   2.695   1.581  10.137 -0.9112  0.3914  0.8380
 1909SOL    HW2 7169   2.780   1.676  10.056  0.5859 -0.6144  1.1781
 1910SOL     OW 7170   7.019   2.085   5.032  0.1092  0.5160 -0.1524
 1910SOL    HW1 7171   6.999   2.169   4.991 -2.4942 -0.0881 -0.2936
 1910SOL    HW2 7172   6.934   2.051   5.061  1.2472 -1.4191  1.1971
 1911SOL     OW 7173   5.680   5.348   8.843 -0.3514  0.7328 -0.2890
 1911SOL    HW1 7174   5.673   5.441   8.821  2.9178  1.5603  1.5301
 1911SOL    HW2 7175   5.667   5.344   8.938 -0.1133 -0.6234 -0.2911
 1912SOL     OW 7176   7.898   5.885   5.556  0.0234 -0.0068  0.0488
 1912SOL    HW1 7177   7.938   5.967   5.529 -1.8524  0.9441 -0.0046
 1912SOL    HW2 7178   7.911   5.826   5.481  1.8645  0.0216  0.3110
 1913SOL     OW 7179   2.922   3.041   5.896 -0.2717  0.1180  0.0811
 1913SOL    HW1 7180   2.952   2.973   5.836 -0.8651 -0.3356  0.2797
 1913SOL    HW2 7181   2.963   3.019   5.980 -0.1664  0.2218  0.0573
 1914SOL     OW 7182   6.584   6.930   2.775  0.5813 -0.2116 -0.2006
 1914SOL    HW1 7183   6.497   6.926   2.737  0.2651  0.1465  0.4673
 1914SOL    HW2 7184   6.636   6.870   2.722 -0.1894 -0.8126 -0.2937
 1915SOL     OW 7185   0.082   4.768  10.528  0.1184 -0.2441 -0.1171
 1915SOL    HW1 7186   0.149   4.782  10.595 -0.7278 -0.6777  0.8351
 1915SOL    HW2 7187   0.067   4.674  10.529 -0.0157 -0.2329 -0.8189
 1916SOL     OW 7188   2.208   3.652   7.262 -0.0230 -0.1628 -0.3720
 1916SOL    HW1 7189   2.201   3.719   7.331  0.3493 -0.1420 -0.3532
 1916SOL    HW2 7190   2.124   3.657   7.216 -1.4382 -2.0691  1.7854
 1917SOL     OW 7191   3.261   6.547   1.422 -0.0619 -0.0363  0.1422
 1917SOL    HW1 7192   3.167   6.542   1.403 -0.3418  0.3430  1.3297
 1917SOL    HW2 7193   3.267   6.607   1.496  1.1112 -0.2063  0.2020
 1918SOL     OW 7194   0.462   3.824   2.011 -0.4433  0.1093 -0.4147
 1918SOL    HW1 7195   0.444   3.866   1.927 -0.3407 -1.0580 -1.0421
 1918SOL    HW2 7196   0.375   3.802   2.045 -0.4509 -1.5951 -1.3925
 1919SOL     OW 7197   0.288   0.975   9.596 -0.2655 -0.2558  0.2291
 1919SOL    HW1 7198   0.367   1.017   9.562 -0.4123  0.9420  1.3398
 1919SOL    HW2 7199   0.315   0.935   9.678 -0.3937 -1.4647 -0.2850
 1920SOL     OW 7200   7.228   5.040   7.107  0.6025  0.1971 -0.0447
 1920SOL    HW1 7201   7.238   5.045   7.012  0.8223  0.2806 -0.0172
 1920SOL    HW2 7202   7.251   5.127   7.139 -1.2116  0.7171 -0.0565
 1921SOL     OW 7203   1.181   2.637   6.186  0.4237 -0.4786 -0.0075
 1921SOL    HW1 7204   1.138   2.574   6.242  0.3011 -0.1469  0.2740
 1921SOL    HW2 7205   1.157   2.722   6.222  1.0814 -0.2833 -0.0137
 1922SOL     OW 7206   3.673   4.034   7.768 -0.0317  0.6914 -0.6541
 1922SOL    HW1 7207   3.659   4.125   7.741 -0.5105  0.7032 -0.3752
 1922SOL    HW2 7208   3.647   4.031   7.860  0.1352  0.3090 -0.6159
 1923SOL     OW 7209   7.820   3.639   2.776 -1.1158  0.3931 -0.4126
 1923SOL    HW1 7210   7.863   3.712   2.731  1.0600 -0.8871 -0.4924
 1923SOL    HW2 7211   7.875   3.621   2.852 -1.0853 -1.7253 -0.8791
 1924SOL     OW 7212   2.827   6.824   9.560  0.1773 -0.1750  0.5061
 1924SOL    HW1 7213   2.761   6.757   9.578 -0.5604  0.7663  1.3890
 1924SOL    HW2 7214   2.792   6.904   9.597  1.1741  0.6683 -0.2790
 1925SOL     OW 7215   2.133   6.429  12.197  0.1742  0.3335 -0.0726
 1925SOL    HW1 7216   2.093   6.343  12.213  0.1704  0.2171 -0.6867
 1925SOL    HW2 7217   2.221   6.422  12.234  0.0132  0.2199  0.2932
 1926SOL     OW 7218   0.959   0.196   1.083 -0.2653 -0.6050 -0.4575
 1926SOL    HW1 7219   0.926   0.215   1.171  0.1033 -2.4413  0.1182
 1926SOL    HW2 7220   0.971   0.282   1.043  1.3509  0.3722  1.9332
 1927SOL     OW 7221   1.997   1.534   6.585  0.2363 -0.1013  0.3817
 1927SOL    HW1 7222   2.089   1.560   6.586 -0.0170  0.8672 -0.1707
 1927SOL    HW2 7223   1.994   1.458   6.526  0.8647 -0.9743  1.4239
 1928SOL     OW 7224   1.173   3.726   2.437  0.1408 -0.2894  0.0023
 1928SOL    HW1 7225   1.087   3.696   2.408 -1.1310  0.3867  2.6808
 1928SOL    HW2 7226   1.235   3.679   2.382 -1.9074 -0.0917 -2.6870
 1929SOL     OW 7227   3.635   3.436   4.636  0.7981 -0.5897  0.0269
 1929SOL    HW1 7228   3.629   3.383   4.715 -0.8489 -2.0295 -0.9819
 1929SOL    HW2 7229   3.719   3.410   4.597  1.4726 -0.1020  1.1069
 1930SOL     OW 7230   2.210   5.184   7.555  0.1685  0.2146  0.3025
 1930SOL    HW1 7231   2.293   5.176   7.509  0.7550  0.1012  1.3440
 1930SOL    HW2 7232   2.148   5.131   7.504  1.0653 -0.8356  0.2728
 1931SOL     OW 7233   4.724   1.913  10.540  0.0707 -0.0632 -0.6917
 1931SOL    HW1 7234   4.720   1.942  10.631 -1.0882  0.5727 -0.9325
 1931SOL    HW2 7235   4.686   1.825  10.541 -1.0218  0.3902 -0.7208
 1932SOL     OW 7236   4.591   5.334  10.039 -0.0104  0.0714  0.2423
 1932SOL    HW1 7237   4.674   5.375  10.012  0.2749  0.0956  1.1129
 1932SOL    HW2 7238   4.602   5.242  10.017 -0.1072  0.2281 -0.4658
 1933SOL     OW 7239   1.015   7.559  11.661  0.5224  0.9597  0.3548
 1933SOL    HW1 7240   0.932   7.592  11.626  1.1887 -0.3912 -2.7616
 1933SOL    HW2 7241   0.989   7.488  11.720 -0.5636  0.0741 -1.1266
 1934SOL     OW 7242   2.686   5.338   4.318  0.1245  0.1136 -0.0216
 1934SOL    HW1 7243   2.758   5.400   4.325 -0.7601  1.1062  0.5934
 1934SOL    HW2 7244   2.697   5.280   4.394  0.9464 -0.4866 -0.5916
 1935SOL     OW 7245   5.033   5.722   8.568 -0.4668  0.1663 -0.4244
 1935SOL    HW1 7246   5.053   5.650   8.628 -2.4106 -0.4091 -0.4018
 1935SOL    HW2 7247   4.941   5.709   8.544 -0.7878  2.4533 -0.6798
 1936SOL     OW 7248   7.448   1.481   1.990  0.3199  0.4761  0.1156
 1936SOL    HW1 7249   7.456   1.519   2.077  0.7378  1.2115 -0.2332
 1936SOL    HW2 7250   7.354   1.474   1.976  0.2497  0.4377  0.5894
 1937SOL     OW 7251   3.921   4.727   1.836 -0.3659  0.2459 -0.3556
 1937SOL    HW1 7252   3.982   4.776   1.891 -0.1572 -0.3087 -0.0858
 1937SOL    HW2 7253   3.913   4.642   1.879 -0.7869  0.0733 -0.7727
 1938SOL     OW 7254   5.576   5.886   4.566  0.5662 -0.2742  0.1284
 1938SOL    HW1 7255   5.504   5.936   4.527  1.2517  0.3446 -0.3694
 1938SOL    HW2 7256   5.639   5.875   4.494  0.1234 -2.5010 -0.0020
 1939SOL     OW 7257   5.027   6.530   0.344  0.3868  0.2941 -0.0526
 1939SOL    HW1 7258   4.937   6.558   0.330  1.2292  3.2449 -0.1704
 1939SOL    HW2 7259   5.033   6.512   0.437 -0.1253  0.8384  0.0878
 1940SOL     OW 7260   0.262   5.451   7.834  0.2820 -0.2843  0.2368
 1940SOL    HW1 7261   0.319   5.494   7.770 -0.6161 -0.1296 -0.4738
 1940SOL    HW2 7262   0.262   5.359   7.808 -1.0154 -0.0277 -0.7120
 1941SOL     OW 7263   2.312   1.340   4.852 -0.1013  0.5019  0.4580
 1941SOL    HW1 7264   2.405   1.359   4.840  0.4277 -1.5216  0.9265
 1941SOL    HW2 7265   2.281   1.408   4.912  0.8700  1.6479 -0.2916
 1942SOL     OW 7266   0.058   5.973   8.176  0.5084 -0.0876 -0.3926
 1942SOL    HW1 7267   0.131   6.033   8.191  0.9720  0.2128 -3.2867
 1942SOL    HW2 7268  -0.013   6.030   8.145 -0.4718 -0.5703  0.8833
 1943SOL     OW 7269   4.643   1.681   7.665 -0.1531  0.4206 -0.4370
 1943SOL    HW1 7270   4.718   1.727   7.627  0.3791 -1.2104 -1.4796
 1943SOL    HW2 7271   4.573   1.693   7.600  0.1056 -0.5220 -0.9094
 1944SOL     OW 7272   4.513   4.566   5.835 -0.5723  0.0266 -0.4265
 1944SOL    HW1 7273   4.472   4.480   5.843  0.2227 -0.3311 -0.0622
 1944SOL    HW2 7274   4.546   4.585   5.923 -0.3830  0.5161 -0.6014
 1945SOL     OW 7275   1.701   2.083  10.998 -0.1753  0.3051  0.3302
 1945SOL    HW1 7276   1.738   2.147  11.059  2.1785  0.9370 -1.6049
 1945SOL    HW2 7277   1.778   2.041  10.958 -1.4962  0.8320 -3.1017
 1946SOL     OW 7278   5.033   7.222  12.158 -0.2968 -0.1354 -0.3265
 1946SOL    HW1 7279   5.050   7.179  12.074  0.2977  0.1154 -0.3376
 1946SOL    HW2 7280   4.991   7.154  12.211 -1.3109 -0.0973 -1.0458
 1947SOL     OW 7281   1.621   6.916   2.366 -0.2436 -0.0781  0.2553
 1947SOL    HW1 7282   1.582   6.883   2.285  0.5604  0.5361 -0.4016
 1947SOL    HW2 7283   1.569   6.876   2.436 -2.3865  1.0540 -0.5664
 1948SOL     OW 7284   7.800   0.797   3.711 -0.3358  0.2238 -0.1155
 1948SOL    HW1 7285   7.833   0.883   3.685 -0.0756 -0.1535 -1.0765
 1948SOL    HW2 7286   7.872   0.737   3.692 -1.6012 -0.6593 -2.5440
 1949SOL     OW 7287   1.811   1.074  12.011 -0.1784  0.4986  0.3298
 1949SOL    HW1 7288   1.757   1.115  11.944  0.0146  0.7923  0.3536
 1949SOL    HW2 7289   1.793   0.980  12.002 -0.3307  0.5554  0.0269
 1950SOL     OW 7290   1.841   2.046   1.468  0.1915 -0.2863  0.7378
 1950SOL    HW1 7291   1.925   2.024   1.427 -0.0352 -1.7085  0.9751
 1950SOL    HW2 7292   1.794   2.095   1.401  2.1383  2.8126  1.4473
 1951SOL     OW 7293   5.196   5.691   1.005  0.5215  0.2283 -0.1884
 1951SOL    HW1 7294   5.158   5.744   0.935 -0.6991 -2.1724 -1.4502
 1951SOL    HW2 7295   5.138   5.707   1.080 -0.0394  0.4140 -0.6483
 1952SOL     OW 7296   7.132   4.652  12.114  0.0757  0.2381  0.3192
 1952SOL    HW1 7297   7.110   4.653  12.207  1.9939  0.7883  0.8149
 1952SOL    HW2 7298   7.079   4.722  12.076  0.1982  0.8653  1.2612
 1953SOL     OW 7299   7.524   3.197   6.115  0.3494  0.3614 -0.3830
 1953SOL    HW1 7300   7.470   3.139   6.169  2.4362  1.2660  2.9423
 1953SOL    HW2 7301   7.573   3.138   6.059  0.3318 -0.8957  0.8782
 1954SOL     OW 7302   3.697   1.566  10.108 -0.0372  0.2657 -0.5776
 1954SOL    HW1 7303   3.603   1.575  10.124 -0.1459 -1.6256  0.0159
 1954SOL    HW2 7304   3.734   1.537  10.191  0.2828 -3.8755 -1.9522
 1955SOL     OW 7305   1.862   5.404   5.820 -0.2034 -0.1954  0.2598
 1955SOL    HW1 7306   1.916   5.476   5.787 -0.8468  0.2271  0.0823
 1955SOL    HW2 7307   1.924   5.337   5.849  0.4117  0.4772  0.5265
 1956SOL     OW 7308   4.472   6.154   7.518 -0.3208  0.3326 -0.2786
 1956SOL    HW1 7309   4.563   6.163   7.545 -0.1667 -0.3091 -0.5571
 1956SOL    HW2 7310   4.473   6.083   7.454 -1.3489 -1.2400  1.3664
 1957SOL     OW 7311   3.739   5.815   8.406 -1.1053  0.5834 -0.8871
 1957SOL    HW1 7312   3.828   5.784   8.389 -0.7940  0.0091  1.4582
 1957SOL    HW2 7313   3.706   5.841   8.320  1.9557  2.5671 -1.6085
 1958SOL     OW 7314   6.731   2.358   6.967  0.5405  0.5867 -0.0860
 1958SOL    HW1 7315   6.645   2.346   7.009  0.7038 -0.5094 -0.0266
 1958SOL    HW2 7316   6.765   2.439   7.005 -0.3118  0.8445  0.1599
 1959SOL     OW 7317   3.775   6.277  11.685 -0.0692  0.0147 -0.2096
 1959SOL    HW1 7318   3.827   6.284  11.605 -1.2824 -0.9873 -1.1218
 1959SOL    HW2 7319   3.757   6.184  11.695  2.4388 -0.3237  2.8702
 1960SOL     OW 7320   1.311   3.624   4.749 -0.1766 -0.4800  0.6245
 1960SOL    HW1 7321   1.348   3.545   4.711  0.6179  0.2600 -0.2006
 1960SOL    HW2 7322   1.218   3.620   4.728  0.0930 -0.5407 -0.6374
 1961SOL     OW 7323   7.437   2.059   9.355  0.6743 -0.2217  0.1655
 1961SOL    HW1 7324   7.508   2.122   9.348  1.0492 -0.5920  0.5966
 1961SOL    HW2 7325   7.475   1.977   9.324 -0.4415  0.2014 -2.6509
 1962SOL     OW 7326   7.824   6.313   8.667 -0.4121  0.4669 -0.0718
 1962SOL    HW1 7327   7.830   6.275   8.580 -1.7152  1.7479 -0.7579
 1962SOL    HW2 7328   7.873   6.253   8.723  0.7405 -0.1929 -1.7325
 1963SOL     OW 7329   3.996   4.138   3.513 -0.5269  0.1302 -0.3524
 1963SOL    HW1 7330   3.987   4.196   3.589  0.0872  0.8959 -0.8427
 1963SOL    HW2 7331   4.055   4.069   3.542  1.4322  1.5579 -0.7290
 1964SOL     OW 7332   4.599   3.314   6.813 -0.5341 -0.3671 -0.3247
 1964SOL    HW1 7333   4.656   3.346   6.883  1.2799 -0.2456 -1.7837
 1964SOL    HW2 7334   4.531   3.381   6.805  1.6224  1.8324 -1.4607
 1965SOL     OW 7335   5.093   7.125  10.653  0.6055  0.5327  0.2895
 1965SOL    HW1 7336   5.011   7.167  10.682  0.6287  1.6540 -1.1389
 1965SOL    HW2 7337   5.090   7.037  10.691 -0.6233  1.0038  1.3633
 1966SOL     OW 7338   2.954   1.666  11.818 -0.1329  0.2830  0.4168
 1966SOL    HW1 7339   3.046   1.640  11.826  0.8998  2.8532 -1.6620
 1966SOL    HW2 7340   2.928   1.636  11.731 -1.0995  0.1591  0.7363
 1967SOL     OW 7341   0.827   0.594  11.104 -0.5479  0.0891 -0.4037
 1967SOL    HW1 7342   0.839   0.673  11.157 -0.1297 -1.3649  1.7821
 1967SOL    HW2 7343   0.889   0.604  11.032  0.4461  1.1553  0.5662
 1968SOL     OW 7344   2.651   5.588   1.952  0.3467  0.6294  0.1226
 1968SOL    HW1 7345   2.595   5.511   1.950  1.7329 -0.3946 -0.2248
 1968SOL    HW2 7346   2.608   5.650   1.892 -1.3627  0.5978  1.2352
 1969SOL     OW 7347   2.595   2.643  10.430  0.3834  0.4207 -0.2937
 1969SOL    HW1 7348   2.639   2.713  10.383 -1.6611  2.4629  0.6550
 1969SOL    HW2 7349   2.656   2.618  10.499  1.7760  0.1271 -1.5882
 1970SOL     OW 7350   7.310   4.296   0.505  0.1244 -0.2323 -0.3048
 1970SOL    HW1 7351   7.307   4.228   0.573  0.8262 -0.2674 -0.3094
 1970SOL    HW2 7352   7.401   4.323   0.502 -0.2172  1.0201 -0.0002
 1971SOL     OW 7353   7.242   4.933   8.715  0.2093 -0.3603 -0.3861
 1971SOL    HW1 7354   7.263   4.845   8.683 -2.5506 -1.1451 -0.3483
 1971SOL    HW2 7355   7.213   4.919   8.806 -0.7181  0.4862 -0.5352
 1972SOL     OW 7356   1.035   6.932   7.467 -0.5951 -0.2327 -0.0784
 1972SOL    HW1 7357   0.976   6.990   7.419  1.0178 -0.7475 -2.8795
 1972SOL    HW2 7358   1.002   6.844   7.449 -1.1992 -0.3924  1.5999
 1973SOL     OW 7359   3.699   1.181   0.503  0.1930 -0.4311  0.3423
 1973SOL    HW1 7360   3.727   1.270   0.484  0.8157 -0.3186  1.6872
 1973SOL    HW2 7361   3.768   1.145   0.558  0.2989 -1.9973 -0.7629
 1974SOL     OW 7362   2.883   7.389   9.601 -0.1735 -0.4212 -0.4777
 1974SOL    HW1 7363   2.966   7.386   9.554 -0.4115 -1.3417 -0.8715
 1974SOL    HW2 7364   2.836   7.462   9.561 -0.7280 -1.7196 -2.3498
 1975SOL     OW 7365   1.791   5.345   2.669 -0.4108  0.0358  0.1531
 1975SOL    HW1 7366   1.800   5.427   2.621  1.0531 -0.5184 -0.5970
 1975SOL    HW2 7367   1.825   5.279   2.609  0.7724 -0.7942  1.6726
 1976SOL     OW 7368   7.496   4.574  11.150  0.9784 -0.4706 -0.4847
 1976SOL    HW1 7369   7.462   4.652  11.192  1.7927 -0.3518 -0.0254
 1976SOL    HW2 7370   7.500   4.596  11.057  0.1980 -0.3491 -0.4900
 1977SOL     OW 7371   4.260   4.778   8.969  0.3746  0.3287 -0.0385
 1977SOL    HW1 7372   4.236   4.833   8.895  0.4556 -0.1639 -0.4360
 1977SOL    HW2 7373   4.196   4.707   8.968  1.0543 -0.2915 -0.3245
 1978SOL     OW 7374   7.681   3.830  11.834  0.5494 -0.0886 -0.0278
 1978SOL    HW1 7375   7.587   3.847  11.830  0.4614 -0.7336 -1.1527
 1978SOL    HW2 7376   7.688   3.752  11.890  0.2882 -0.7477 -0.8812
 1979SOL     OW 7377   7.303   7.143  10.122  0.3124  0.9770  0.3493
 1979SOL    HW1 7378   7.375   7.142  10.059 -0.2344 -2.9766 -0.4572
 1979SOL    HW2 7379   7.224   7.128  10.069 -0.4755  0.1456  1.7049
 1980SOL     OW 7380   7.514   0.368   5.831  0.2209  0.8514 -0.2078
 1980SOL    HW1 7381   7.441   0.308   5.820  0.6523  0.5171 -1.5110
 1980SOL    HW2 7382   7.590   0.319   5.799  0.9071  1.4156  0.5146
 1981SOL     OW 7383   1.339   6.629   5.408  0.1592  0.2380 -0.3525
 1981SOL    HW1 7384   1.433   6.630   5.387 -0.0870 -3.9281 -2.6013
 1981SOL    HW2 7385   1.336   6.608   5.501  1.3790  1.2324 -0.0456
 1982SOL     OW 7386   7.160   6.422  10.156  0.3024 -0.6424 -0.0750
 1982SOL    HW1 7387   7.133   6.332  10.135 -0.6310 -0.5511  0.6757
 1982SOL    HW2 7388   7.099   6.477  10.107 -0.8718 -0.4338  1.5416
 1983SOL     OW 7389   5.854   4.069   7.490 -0.0292  0.6343 -1.2097
 1983SOL    HW1 7390   5.836   4.163   7.486  0.6653  0.7552 -4.4869
 1983SOL    HW2 7391   5.772   4.030   7.520 -0.1517  2.2657  0.7739
 1984SOL     OW 7392   6.729   1.059   3.589  0.4239  0.2377  0.6581
 1984SOL    HW1 7393   6.738   1.132   3.528 -2.0267  0.4667  0.4882
 1984SOL    HW2 7394   6.648   1.015   3.563  0.5652 -1.1007  2.2692
 1985SOL     OW 7395   7.479   3.534   4.247 -0.0637 -0.1287 -0.4768
 1985SOL    HW1 7396   7.512   3.450   4.216 -0.6569 -0.4621 -0.2230
 1985SOL    HW2 7397   7.529   3.552   4.327 -1.8840 -1.6626  1.1071
 1986SOL     OW 7398   6.153   6.501  11.166  0.2243 -0.2776 -0.1408
 1986SOL    HW1 7399   6.226   6.460  11.120 -0.3034 -2.0749  0.5305
 1986SOL    HW2 7400   6.101   6.428  11.198 -0.8065  0.9437  1.1056
 1987SOL     OW 7401   4.723   6.107   3.491  0.3080  0.2115  0.2291
 1987SOL    HW1 7402   4.702   6.200   3.493  0.8542  0.3877 -1.2024
 1987SOL    HW2 7403   4.795   6.097   3.554 -0.8690  0.4161  1.6675
 1988SOL     OW 7404   3.903   1.003   0.072  0.0747  0.4164 -0.7611
 1988SOL    HW1 7405   3.939   0.995   0.161  1.5605  0.4871 -1.3206
 1988SOL    HW2 7406   3.960   0.948   0.018  0.5393  2.0442 -2.0231
 1989SOL     OW 7407   3.624   2.372   6.758  0.3310 -0.1252 -0.0460
 1989SOL    HW1 7408   3.614   2.465   6.775  1.5455  0.0433 -0.1302
 1989SOL    HW2 7409   3.674   2.339   6.832  1.8835 -0.2331 -1.0758
 1990SOL     OW 7410   0.222   1.551   1.544  0.0353  0.6456  0.3358
 1990SOL    HW1 7411   0.203   1.462   1.515  2.0358 -0.8371  3.1376
 1990SOL    HW2 7412   0.141   1.580   1.587 -0.8319  0.4770 -1.1124
 1991SOL     OW 7413   7.530   1.171   4.175  0.5790  0.3759 -0.4684
 1991SOL    HW1 7414   7.587   1.099   4.200  1.5869  0.7338 -1.6115
 1991SOL    HW2 7415   7.442   1.142   4.200  1.1147 -0.6871  0.2574
 1992SOL     OW 7416   2.186   0.975   1.087  0.3995 -0.3378 -0.4383
 1992SOL    HW1 7417   2.164   1.013   1.172 -0.3452  0.7838 -1.1133
 1992SOL    HW2 7418   2.111   0.996   1.031  0.7655 -1.2823 -1.3123
 1993SOL     OW 7419   1.313   5.416   3.509 -0.0965 -0.0674 -0.7680
 1993SOL    HW1 7420   1.259   5.339   3.526  0.7936 -0.5642 -0.0632
 1993SOL    HW2 7421   1.394   5.380   3.473  0.6274  0.4659  0.2780
 1994SOL     OW 7422   0.543   0.185   3.812 -0.0050  0.0475 -0.7051
 1994SOL    HW1 7423   0.581   0.123   3.750  1.5413  0.3664 -0.1324
 1994SOL    HW2 7424   0.585   0.269   3.791  0.5181  0.1675  0.7062
 1995SOL     OW 7425   5.168   6.489  11.689  0.3110  0.1331 -0.3526
 1995SOL    HW1 7426   5.160   6.580  11.662 -0.5923  0.1525 -0.0475
 1995SOL    HW2 7427   5.228   6.450  11.625 -0.6022  0.5495 -1.4940
 1996SOL     OW 7428   1.025   1.445   2.815 -0.0172 -0.1367 -0.4541
 1996SOL    HW1 7429   0.992   1.435   2.726 -1.0832  1.9759 -0.3685
 1996SOL    HW2 7430   0.957   1.495   2.860  1.7787  1.4090  0.7084
 1997SOL     OW 7431   7.366   3.426   4.542  0.5190 -0.3692 -0.1974
 1997SOL    HW1 7432   7.278   3.448   4.573  0.9321  1.5466 -0.3116
 1997SOL    HW2 7433   7.408   3.383   4.617 -0.4877 -1.3405 -0.1542
 1998SOL     OW 7434   4.421   7.897   8.293 -0.2871  0.0352 -0.0590
 1998SOL    HW1 7435   4.457   7.911   8.380 -1.3318  0.1737  0.3690
 1998SOL    HW2 7436   4.349   7.960   8.286  0.2910  0.5967 -1.3426
 1999SOL     OW 7437   6.027   4.079   2.201 -0.2160  0.4500  0.2554
 1999SOL    HW1 7438   6.035   4.174   2.211 -1.3448  0.7458 -1.2575
 1999SOL    HW2 7439   5.984   4.050   2.282 -0.8926  1.4108  0.2618
 2000SOL     OW 7440   2.665   6.748   4.965 -0.0684 -0.2355  0.3531
 2000SOL    HW1 7441   2.759   6.747   4.951 -0.1242 -0.4625 -0.0251
 2000SOL    HW2 7442   2.633   6.670   4.919 -0.6655  0.8649 -1.1741
 2001SOL     OW 7443   0.252   1.865   0.779 -0.2203 -0.6145 -0.2965
 2001SOL    HW1 7444   0.170   1.896   0.816 -0.6472 -0.6938 -1.1743
 2001SOL    HW2 7445   0.318   1.926   0.812 -0.7503 -0.0380 -0.2954
 2002SOL     OW 7446   1.187   0.091  10.586  0.7516  0.3429 -0.0551
 2002SOL    HW1 7447   1.215   0.034  10.514 -0.1086 -2.3700  1.5977
 2002SOL    HW2 7448   1.096   0.066  10.602  0.9711  0.7503  2.0728
 2003SOL     OW 7449   7.627   7.023   9.225 -0.2055 -0.2363  0.1842
 2003SOL    HW1 7450   7.607   7.117   9.226  0.8098 -0.0166  0.6962
 2003SOL    HW2 7451   7.719   7.018   9.252 -0.9636 -1.5410  2.8647
 2004SOL     OW 7452   7.933   5.086   1.711 -0.3284 -0.7965 -0.5677
 2004SOL    HW1 7453   7.849   5.122   1.738  0.0369 -1.2684  1.3297
 2004SOL    HW2 7454   7.911   5.002   1.670 -0.8469 -0.4298 -1.0497
 2005SOL     OW 7455   3.064   4.147  12.394  0.0705  0.4070 -0.5064
 2005SOL    HW1 7456   3.031   4.233  12.368 -0.3358  0.2016 -0.6740
 2005SOL    HW2 7457   2.994   4.086  12.371  1.6087 -0.4327 -3.4479
 2006SOL     OW 7458   7.052   7.387   5.510  0.4320 -0.3266 -0.4004
 2006SOL    HW1 7459   7.071   7.347   5.596 -0.5927 -1.2290 -0.5799
 2006SOL    HW2 7460   6.968   7.351   5.485  0.6008  0.1368 -1.6874
 2007SOL     OW 7461   1.809   2.881   5.856 -0.4171 -0.0929  0.6018
 2007SOL    HW1 7462   1.864   2.896   5.779 -0.1136  2.7231  1.2736
 2007SOL    HW2 7463   1.723   2.914   5.830 -0.0598  1.8653  1.7350
 2008SOL     OW 7464   5.474   0.731   1.272 -0.3261 -0.5741 -0.0969
 2008SOL    HW1 7465   5.482   0.816   1.229  1.1720 -0.0485  1.1316
 2008SOL    HW2 7466   5.546   0.679   1.236  0.1400 -0.5603  0.7935
 2009SOL     OW 7467   6.940   2.000   3.854 -0.0657  0.0375 -0.5514
 2009SOL    HW1 7468   6.931   1.951   3.772 -1.8083  0.5517 -0.7053
 2009SOL    HW2 7469   6.896   2.084   3.837  0.9873  0.8172  0.3932
 2010SOL     OW 7470   1.294   6.827   7.081  0.6442 -0.6867  0.3399
 2010SOL    HW1 7471   1.321   6.878   7.158  0.3980  0.2866 -0.1955
 2010SOL    HW2 7472   1.330   6.740   7.096  0.5103 -0.5473  1.6092
 2011SOL     OW 7473   1.422   0.787   1.569  0.3784  0.4310  0.6324
 2011SOL    HW1 7474   1.497   0.844   1.551  1.3241 -1.1009 -0.5133
 2011SOL    HW2 7475   1.455   0.724   1.633  0.4083 -0.8566 -0.6114
 2012SOL     OW 7476   1.707   2.479   9.031  0.2521 -0.4226 -0.0096
 2012SOL    HW1 7477   1.795   2.484   8.994  1.6178 -0.7700  2.9214
 2012SOL    HW2 7478   1.680   2.571   9.041 -0.6449 -0.3050 -2.7002
 2013SOL     OW 7479   2.168   4.035   0.833 -0.0518 -0.6414  0.2135
 2013SOL    HW1 7480   2.153   3.993   0.749  0.0533  0.6585 -0.4868
 2013SOL    HW2 7481   2.081   4.039   0.873 -0.4542  0.4860 -0.7154
 2014SOL     OW 7482   3.452   1.981  11.643  0.2004  0.5221  0.6323
 2014SOL    HW1 7483   3.366   1.953  11.613  0.0767 -1.1321  2.3527
 2014SOL    HW2 7484   3.463   2.069  11.606 -0.8054 -0.4813 -2.2969
 2015SOL     OW 7485   5.132   0.068   8.676 -0.3611 -0.2700  0.8881
 2015SOL    HW1 7486   5.181  -0.008   8.708 -0.7476 -0.1799  1.7081
 2015SOL    HW2 7487   5.162   0.079   8.585  1.9418  0.4331  1.6657
 2016SOL     OW 7488   7.484   1.721  11.514  0.0878  0.4264 -0.2038
 2016SOL    HW1 7489   7.499   1.783  11.443  2.7243  2.3919  1.8622
 2016SOL    HW2 7490   7.572   1.698  11.545 -0.9085 -2.2388  0.9207
 2017SOL     OW 7491   7.007   3.483   0.508  0.6778  0.1125  0.3009
 2017SOL    HW1 7492   6.976   3.486   0.417  1.1365 -1.0587  0.0953
 2017SOL    HW2 7493   7.062   3.561   0.517  1.6391 -0.4142 -0.8079
 2018SOL     OW 7494   7.043   0.186   3.253 -0.7038  0.1206  0.3475
 2018SOL    HW1 7495   7.084   0.262   3.295 -0.6698 -0.1451  0.8110
 2018SOL    HW2 7496   6.971   0.223   3.202  0.1694  0.6050 -0.5682
 2019SOL     OW 7497   4.004   4.338   9.848 -0.4671 -0.1875 -0.1636
 2019SOL    HW1 7498   3.964   4.330   9.762  0.4085 -0.9228 -0.5225
 2019SOL    HW2 7499   4.097   4.319   9.833 -0.4051 -0.9739  1.0330
 2020SOL     OW 7500   3.956   0.707  12.174  0.0601  0.1537  0.0465
 2020SOL    HW1 7501   3.896   0.633  12.185  1.2357 -1.0660 -1.3034
 2020SOL    HW2 7502   3.943   0.735  12.083 -0.6477  1.9287  0.6376
 2021SOL     OW 7503   7.523   1.927   1.981 -0.1963 -0.3823  0.0966
 2021SOL    HW1 7504   7.434   1.897   2.003 -0.0857  0.7648  2.3553
 2021SOL    HW2 7505   7.576   1.847   1.985 -0.7136 -0.6898  1.2625
 2022SOL     OW 7506   2.137   1.915   2.518 -0.2775 -0.0615 -0.1758
 2022SOL    HW1 7507   2.087   1.969   2.580  0.5693  0.9616 -0.3525
 2022SOL    HW2 7508   2.218   1.894   2.565 -0.3306 -0.6728 -0.3470
 2023SOL     OW 7509   2.782   6.215   6.675 -0.1384  0.0760 -0.1737
 2023SOL    HW1 7510   2.737   6.259   6.603 -0.1871  2.1341  1.0400
 2023SOL    HW2 7511   2.711   6.180   6.730 -0.1786  0.4069 -0.0094
 2024SOL     OW 7512   4.349   0.520   5.642 -0.2576  0.2398 -0.2800
 2024SOL    HW1 7513   4.300   0.559   5.714 -0.7232 -0.6912 -0.0772
 2024SOL    HW2 7514   4.397   0.594   5.603 -1.1179  1.0117  0.0730
 2025SOL     OW 7515   3.185   7.415   7.803 -0.1384  0.2023  0.0318
 2025SOL    HW1 7516   3.247   7.475   7.761  0.4551 -0.6605 -0.3559
 2025SOL    HW2 7517   3.240   7.348   7.844 -0.7921 -1.8114 -2.1585
 2026SOL     OW 7518   6.765   2.259   9.116  0.1896 -0.2104  0.0902
 2026SOL    HW1 7519   6.670   2.248   9.110  0.2505  0.0143 -1.6781
 2026SOL    HW2 7520   6.800   2.174   9.093  0.4232 -0.1170  0.1007
 2027SOL     OW 7521   6.243   4.813  11.216  0.0903 -0.0354  0.1333
 2027SOL    HW1 7522   6.163   4.839  11.171 -0.9172 -1.6607  0.9137
 2027SOL    HW2 7523   6.243   4.865  11.297  0.2554  0.5537 -0.2404
 2028SOL     OW 7524   7.367   6.679   1.279  0.2100  0.2161 -0.2173
 2028SOL    HW1 7525   7.334   6.762   1.243  0.9622  0.8252  0.4493
 2028SOL    HW2 7526   7.386   6.625   1.202 -2.8008 -0.3918 -0.6272
 2029SOL     OW 7527   4.259   2.547   5.551  0.3499  0.4314  0.5568
 2029SOL    HW1 7528   4.290   2.465   5.589 -1.5999 -0.5274  0.2115
 2029SOL    HW2 7529   4.330   2.609   5.566  1.4071 -1.0210  1.8677
 2030SOL     OW 7530   7.471   1.228   3.880  0.1760 -0.0133  0.9479
 2030SOL    HW1 7531   7.567   1.232   3.888  0.1306 -0.6045  1.7893
 2030SOL    HW2 7532   7.439   1.219   3.969 -0.9659  5.1947  1.4391
 2031SOL     OW 7533   5.927   2.972   1.294 -0.1522  0.1579 -0.1783
 2031SOL    HW1 7534   5.904   3.065   1.290  0.1530  0.1804 -1.5963
 2031SOL    HW2 7535   5.910   2.948   1.386 -0.6233  1.4996  0.1119
 2032SOL     OW 7536   5.040   6.998  11.623 -0.1449  0.0004 -0.6327
 2032SOL    HW1 7537   4.948   7.022  11.610 -0.0839  0.0196 -1.0243
 2032SOL    HW2 7538   5.088   7.080  11.617 -0.1608  0.0789  0.1786
 2033SOL     OW 7539   2.357   0.173   3.537 -0.0759  0.5701 -0.3412
 2033SOL    HW1 7540   2.272   0.173   3.493  0.4671  0.7273 -1.4208
 2033SOL    HW2 7541   2.342   0.126   3.619 -1.2847  0.9227 -0.3470
 2034SOL     OW 7542   3.355   6.652   5.079 -0.4493  0.3425 -0.1755
 2034SOL    HW1 7543   3.389   6.722   5.134  0.9203  0.6465 -1.3412
 2034SOL    HW2 7544   3.334   6.581   5.139  0.3195  0.9254  0.8049
 2035SOL     OW 7545   6.753   2.335   2.075 -0.3218 -0.0042  0.6502
 2035SOL    HW1 7546   6.808   2.397   2.123 -1.2832  0.8771  0.6433
 2035SOL    HW2 7547   6.693   2.301   2.142  1.0861 -2.0207  0.9702
 2036SOL     OW 7548   1.592   6.980   0.302  0.5329  0.4343 -0.2122
 2036SOL    HW1 7549   1.557   6.950   0.218  0.0462 -0.6246  0.3478
 2036SOL    HW2 7550   1.571   7.074   0.305 -3.0868 -0.2596  0.4411
 2037SOL     OW 7551   2.841   3.142   8.145  0.0596  0.4818 -0.1695
 2037SOL    HW1 7552   2.888   3.210   8.098 -0.0145 -0.2883 -1.3839
 2037SOL    HW2 7553   2.766   3.187   8.184 -0.1986  1.0238 -1.2672
 2038SOL     OW 7554   0.996   2.945   5.747  0.3454  0.0769  0.0527
 2038SOL    HW1 7555   1.073   2.972   5.798  0.1971  0.8807 -0.1351
 2038SOL    HW2 7556   0.932   3.014   5.763 -0.4201 -0.6855  0.3736
 2039SOL     OW 7557   7.647   6.512   9.357 -0.2935  0.2391  0.3017
 2039SOL    HW1 7558   7.614   6.437   9.309  0.5511 -0.0067  0.0746
 2039SOL    HW2 7559   7.601   6.587   9.318 -0.3897 -0.0613 -0.1801
 2040SOL     OW 7560   2.207   4.274   3.222 -0.6140  0.1405  0.1352
 2040SOL    HW1 7561   2.246   4.201   3.271 -0.1184 -0.7637 -1.4848
 2040SOL    HW2 7562   2.118   4.282   3.256 -1.5422 -2.8764 -1.2017
 2041SOL     OW 7563   6.603   6.226   2.303 -0.4233  0.4827 -0.1777
 2041SOL    HW1 7564   6.698   6.234   2.313 -0.4798  0.6970  0.1955
 2041SOL    HW2 7565   6.591   6.202   2.211  0.0068  0.1308 -0.1430
 2042SOL     OW 7566   3.346   5.897   8.798  0.4156  0.0331 -0.2367
 2042SOL    HW1 7567   3.400   5.975   8.786  0.1799  0.2844  0.2798
 2042SOL    HW2 7568   3.368   5.840   8.725  1.2485  0.2103 -0.1269
 2043SOL     OW 7569   1.675   6.004  11.774  0.0682  0.5165 -0.0090
 2043SOL    HW1 7570   1.671   6.028  11.866 -0.5172 -0.3088  0.1881
 2043SOL    HW2 7571   1.598   6.047  11.735 -1.2541 -1.3190  0.4349
 2044SOL     OW 7572   7.966   3.053   3.391  0.5098  0.1281 -0.0903
 2044SOL    HW1 7573   7.876   3.019   3.392 -0.0113  1.4152  1.4142
 2044SOL    HW2 7574   7.960   3.134   3.341  0.3549  1.2667  1.6771
 2045SOL     OW 7575   5.885   6.167   1.736  0.0612 -0.0014 -0.5842
 2045SOL    HW1 7576   5.828   6.092   1.755 -1.0427  0.3187 -2.3734
 2045SOL    HW2 7577   5.840   6.241   1.774  0.9625 -0.1671  0.8528
 2046SOL     OW 7578   4.415   2.733   2.957 -0.2916  0.6000 -0.0251
 2046SOL    HW1 7579   4.368   2.666   2.908 -0.0453 -0.4076  1.0720
 2046SOL    HW2 7580   4.507   2.707   2.954 -0.2105  0.7938  0.5497
 2047SOL     OW 7581   4.747   1.239   3.999 -0.1323 -0.2301 -0.3199
 2047SOL    HW1 7582   4.754   1.330   3.971 -2.2683 -0.5375 -2.1255
 2047SOL    HW2 7583   4.660   1.231   4.038  1.1797 -0.8568  2.8139
 2048SOL     OW 7584   7.050   5.991   3.986  0.5399 -0.3649 -0.4600
 2048SOL    HW1 7585   7.130   6.020   3.942 -0.2624  0.2896 -1.5459
 2048SOL    HW2 7586   7.019   6.068   4.033 -1.0287  0.3670 -2.4982
 2049SOL     OW 7587   5.292   3.854   3.772 -0.3868  0.1152  0.5414
 2049SOL    HW1 7588   5.263   3.937   3.733 -1.6853 -0.8511 -0.6694
 2049SOL    HW2 7589   5.230   3.838   3.843  0.0023  0.2795  0.9220
 2050SOL     OW 7590   4.611   7.422   6.770  0.2079  0.2272 -0.5730
 2050SOL    HW1 7591   4.642   7.437   6.859 -0.2878  1.6888 -0.6235
 2050SOL    HW2 7592   4.524   7.383   6.781  0.6462 -0.7602 -0.4428
 2051SOL     OW 7593   1.612   1.835   1.242 -0.0292 -0.7834  0.2157
 2051SOL    HW1 7594   1.683   1.863   1.184  0.4476 -2.5110 -0.0947
 2051SOL    HW2 7595   1.534   1.838   1.188  0.3178 -1.7867 -0.3762
 2052SOL     OW 7596   4.288   2.289   0.490 -0.0083 -0.1454  0.2006
 2052SOL    HW1 7597   4.250   2.305   0.404  0.5781 -0.4844 -0.1292
 2052SOL    HW2 7598   4.213   2.291   0.550 -0.5182 -0.5529 -0.4037
 2053SOL     OW 7599   5.740   4.400   6.403  0.1584  0.0491 -0.3573
 2053SOL    HW1 7600   5.660   4.352   6.426  0.6070  0.6841  3.0232
 2053SOL    HW2 7601   5.712   4.492   6.399  0.1530  0.0218 -2.5642
 2054SOL     OW 7602   1.114   4.907  11.692 -0.2983 -0.5360  0.2252
 2054SOL    HW1 7603   1.032   4.887  11.647  0.1302 -0.3266 -0.6614
 2054SOL    HW2 7604   1.170   4.947  11.625 -0.6591  2.5323  1.6117
 2055SOL     OW 7605   6.525   4.852  11.568 -0.5343  0.3230 -0.0638
 2055SOL    HW1 7606   6.472   4.929  11.588 -0.6029 -0.4443  3.4358
 2055SOL    HW2 7607   6.473   4.778  11.602  1.4725 -0.7325  0.8932
 2056SOL     OW 7608   6.864   5.033   5.994 -0.0746  0.3286 -0.2666
 2056SOL    HW1 7609   6.799   5.096   6.024 -0.7017 -0.1371 -0.6233
 2056SOL    HW2 7610   6.813   4.963   5.953  0.5515 -0.8413  0.8834
 2057SOL     OW 7611   7.768   3.076   6.373  0.0823 -0.3232 -0.3886
 2057SOL    HW1 7612   7.839   3.093   6.311 -1.1442 -0.4506 -1.8906
 2057SOL    HW2 7613   7.748   2.983   6.363 -1.4162  0.0523 -1.2846
 2058SOL     OW 7614   5.743   0.633   7.993  0.0656  0.4876 -0.0327
 2058SOL    HW1 7615   5.696   0.586   8.062  1.8784 -1.0152  0.2378
 2058SOL    HW2 7616   5.741   0.573   7.918  1.6149  0.3357  0.0211
 2059SOL     OW 7617   0.477   5.147   0.929  0.0650  0.5366  0.3544
 2059SOL    HW1 7618   0.483   5.086   0.855  0.9848  0.3749  0.5595
 2059SOL    HW2 7619   0.383   5.163   0.938 -0.2019 -0.9285  0.3606
 2060SOL     OW 7620   3.789   7.621   5.877 -0.1309  0.3813 -0.8136
 2060SOL    HW1 7621   3.739   7.566   5.817 -0.3953 -0.8976  0.5110
 2060SOL    HW2 7622   3.864   7.650   5.826 -0.0416 -1.1451 -1.6026
 2061SOL     OW 7623   3.385   4.368   7.241 -0.1438  0.1524 -0.1676
 2061SOL    HW1 7624   3.476   4.349   7.263 -0.3614 -0.1109  0.5108
 2061SOL    HW2 7625   3.373   4.460   7.263  0.2986  0.5398 -1.4321
 2062SOL     OW 7626   6.841   7.641   1.910 -0.0646  0.2525  0.3153
 2062SOL    HW1 7627   6.881   7.715   1.956 -2.0265  2.7695 -1.7254
 2062SOL    HW2 7628   6.748   7.663   1.904 -0.7532 -2.4523 -0.3716
 2063SOL     OW 7629   1.853   3.460   4.041  0.6124  0.1276  0.1126
 2063SOL    HW1 7630   1.841   3.371   4.007  3.2747  0.3387 -1.6753
 2063SOL    HW2 7631   1.861   3.514   3.963 -1.7540  2.1705  1.1634
 2064SOL     OW 7632   3.481   5.792   5.753 -0.5983 -0.0994 -0.2911
 2064SOL    HW1 7633   3.527   5.801   5.836 -0.5461 -1.1242 -0.1942
 2064SOL    HW2 7634   3.436   5.708   5.759 -0.6583 -0.1555 -1.2720
 2065SOL     OW 7635   0.245   6.634   8.035  0.7498  0.3566  0.2039
 2065SOL    HW1 7636   0.203   6.584   7.964  2.6122  1.1098 -1.5372
 2065SOL    HW2 7637   0.281   6.567   8.093  0.3219 -0.2969 -0.2682
 2066SOL     OW 7638   6.094   3.970   1.356  0.3986 -0.2416 -0.3427
 2066SOL    HW1 7639   6.175   3.975   1.406  0.5553  0.2277 -0.6353
 2066SOL    HW2 7640   6.082   4.059   1.321 -1.7858  0.5618  2.1047
 2067SOL     OW 7641   6.676   7.637   2.860  0.0622  0.2864  0.4180
 2067SOL    HW1 7642   6.736   7.688   2.914  1.8031  0.2366 -1.3785
 2067SOL    HW2 7643   6.709   7.647   2.771 -0.9756 -1.9991 -0.2956
 2068SOL     OW 7644   3.960   7.786   3.484 -0.4161  0.5057  0.1737
 2068SOL    HW1 7645   3.899   7.776   3.411 -1.5132  2.1769  0.8182
 2068SOL    HW2 7646   4.038   7.826   3.444 -1.2243  1.9359 -0.0102
 2069SOL     OW 7647   2.683   2.806   2.293  0.7450 -0.3244 -0.2893
 2069SOL    HW1 7648   2.768   2.798   2.337  0.1275 -2.0828  0.6997
 2069SOL    HW2 7649   2.644   2.719   2.302 -1.1537  0.4457 -0.7564
 2070SOL     OW 7650   5.799   0.605   5.438  0.3302 -0.0092  0.0564
 2070SOL    HW1 7651   5.841   0.524   5.464  0.3004  0.0599  0.3235
 2070SOL    HW2 7652   5.788   0.654   5.519 -3.2710 -1.3891  0.6121
 2071SOL     OW 7653   4.119   4.411   0.890  0.0314 -0.1741 -0.1596
 2071SOL    HW1 7654   4.176   4.376   0.958 -1.1711 -0.2818  0.8253
 2071SOL    HW2 7655   4.033   4.374   0.909 -1.2257  2.8284  0.6475
 2072SOL     OW 7656   2.798   5.820   4.562 -0.0065  0.1203  0.3363
 2072SOL    HW1 7657   2.861   5.892   4.555  1.0496 -0.8800 -1.0585
 2072SOL    HW2 7658   2.848   5.748   4.599 -0.1118 -0.8661 -1.3071
 2073SOL     OW 7659   1.300   1.875   3.931 -0.6998 -1.3597 -0.6559
 2073SOL    HW1 7660   1.224   1.904   3.880  0.0900 -0.9367 -1.6279
 2073SOL    HW2 7661   1.375   1.888   3.873  0.2629 -0.7758  0.6587
 2074SOL     OW 7662   2.081   4.483   2.642  0.4342 -0.4626  0.0578
 2074SOL    HW1 7663   2.052   4.450   2.727  0.9079  2.7066  1.6082
 2074SOL    HW2 7664   2.000   4.504   2.595  0.1632  0.1308  0.7775
 2075SOL     OW 7665   4.783   4.574   8.582  0.5075 -0.1009 -0.0995
 2075SOL    HW1 7666   4.718   4.643   8.568 -1.0491 -1.6804 -1.0592
 2075SOL    HW2 7667   4.863   4.608   8.543 -0.0768  1.3719 -0.0574
 2076SOL     OW 7668   2.589   2.394   6.089 -0.2982 -0.3151  0.1466
 2076SOL    HW1 7669   2.637   2.466   6.129  2.5101 -2.6549  1.3429
 2076SOL    HW2 7670   2.497   2.418   6.099  0.4755  2.8562  0.7999
 2077SOL     OW 7671   1.921   6.295  10.883 -0.4584  0.1944  0.3538
 2077SOL    HW1 7672   1.993   6.320  10.826 -0.6648  1.8906  0.7944
 2077SOL    HW2 7673   1.939   6.339  10.966 -1.8618  0.4452  0.5560
 2078SOL     OW 7674   4.135   2.793  10.510  0.3082 -0.5088 -0.1533
 2078SOL    HW1 7675   4.066   2.835  10.459  1.0649 -2.4713 -3.0485
 2078SOL    HW2 7676   4.112   2.700  10.510  3.0054 -1.2791 -1.4678
 2079SOL     OW 7677   3.490   6.361  11.497 -0.5119  0.2350 -0.0677
 2079SOL    HW1 7678   3.547   6.285  11.484 -0.0758  0.7904 -1.5575
 2079SOL    HW2 7679   3.476   6.364  11.592 -0.4487 -1.6254  0.0400
 2080SOL     OW 7680   6.582   4.103   5.888  0.7442 -0.0848 -0.0484
 2080SOL    HW1 7681   6.532   4.077   5.811 -0.7841  1.6601  0.2844
 2080SOL    HW2 7682   6.630   4.024   5.914 -2.1279 -2.0109 -0.1549
 2081SOL     OW 7683   3.899   6.056   2.322  0.0700 -0.2910  0.1601
 2081SOL    HW1 7684   3.886   5.983   2.262  0.2950 -0.3082  0.1328
 2081SOL    HW2 7685   3.905   6.133   2.264  0.5523 -0.3403  0.1432
 2082SOL     OW 7686   2.875   6.221   1.591  0.1278  0.3229 -0.6170
 2082SOL    HW1 7687   2.817   6.275   1.537 -1.4171 -0.3706  0.2698
 2082SOL    HW2 7688   2.922   6.167   1.528 -2.6859 -1.5151 -1.3368
 2083SOL     OW 7689   3.597   1.118   5.153  0.4159  0.2672 -0.3999
 2083SOL    HW1 7690   3.574   1.210   5.145  0.3274  0.4329  1.3166
 2083SOL    HW2 7691   3.540   1.085   5.222 -0.9587 -1.6056 -2.3056
 2084SOL     OW 7692   3.622   0.316   9.253 -0.1260 -0.4439  0.2590
 2084SOL    HW1 7693   3.706   0.361   9.259 -0.8441  1.0975 -0.6876
 2084SOL    HW2 7694   3.581   0.351   9.174 -1.7243 -1.0308  0.7805
 2085SOL     OW 7695   1.865   4.853  10.287  0.1096 -0.5089  0.1851
 2085SOL    HW1 7696   1.898   4.900  10.211 -2.3867 -0.3316 -0.8531
 2085SOL    HW2 7697   1.837   4.921  10.348 -2.1070 -0.5557 -0.6948
 2086SOL     OW 7698   3.715   0.149   0.952  0.5462  0.1033  0.2474
 2086SOL    HW1 7699   3.777   0.080   0.929 -0.0283  0.5297 -2.9857
 2086SOL    HW2 7700   3.724   0.214   0.883 -0.7210  2.1124  1.8495
 2087SOL     OW 7701   3.485   3.933   6.729 -0.4474 -0.5089 -0.4015
 2087SOL    HW1 7702   3.509   3.840   6.734 -0.0224 -0.3450  1.1896
 2087SOL    HW2 7703   3.569   3.978   6.724 -0.6351 -0.1813 -0.5951
 2088SOL     OW 7704   5.064   6.087   8.399 -0.0785 -0.4418 -0.1306
 2088SOL    HW1 7705   5.010   6.040   8.463  0.6713 -0.5379  0.4459
 2088SOL    HW2 7706   5.048   6.179   8.418  0.0174 -0.4696  0.0856
 2089SOL     OW 7707   5.696   3.604   1.715  0.0378 -0.3205 -0.5844
 2089SOL    HW1 7708   5.638   3.618   1.790  0.5539  0.1462 -0.2663
 2089SOL    HW2 7709   5.774   3.657   1.734 -0.2767  0.7057 -1.9547
 2090SOL     OW 7710   5.908   7.457   4.715  0.1773 -0.4454 -0.4279
 2090SOL    HW1 7711   5.895   7.403   4.637  1.1161 -0.8377 -0.3285
 2090SOL    HW2 7712   5.842   7.425   4.777 -0.0695 -0.6513 -0.7916
 2091SOL     OW 7713   5.817   0.077   0.223  0.1267  0.2252 -0.0262
 2091SOL    HW1 7714   5.802   0.011   0.155 -1.3669  0.5310 -0.0426
 2091SOL    HW2 7715   5.833   0.158   0.175 -3.0389  0.9178 -0.1626
 2092SOL     OW 7716   3.145   1.271  12.473  1.0328  0.2631  0.1271
 2092SOL    HW1 7717   3.176   1.281  12.383  1.7085 -0.7494  0.2244
 2092SOL    HW2 7718   3.169   1.181  12.496  2.1025  0.9155  1.7657
 2093SOL     OW 7719   4.079   5.719   0.922 -0.0320 -0.4216 -0.0012
 2093SOL    HW1 7720   4.057   5.643   0.977 -1.8955  0.1295  0.0851
 2093SOL    HW2 7721   4.079   5.793   0.982  1.1161 -0.2408 -0.2060
 2094SOL     OW 7722   4.801   7.959   9.954  0.0646 -0.0019 -0.2140
 2094SOL    HW1 7723   4.742   7.940  10.028  0.9400 -0.1968  0.4430
 2094SOL    HW2 7724   4.808   8.054   9.953  0.6655 -0.0307  0.4554
 2095SOL     OW 7725   4.124   5.835   4.345 -0.2144  0.1541  0.3666
 2095SOL    HW1 7726   4.197   5.782   4.376 -0.3080  0.9281  2.0156
 2095SOL    HW2 7727   4.068   5.847   4.422 -1.7706  0.1042 -0.7020
 2096SOL     OW 7728   5.477   7.425   9.724  0.1184 -0.5644 -0.3082
 2096SOL    HW1 7729   5.474   7.509   9.770 -1.1388 -1.0578  0.5628
 2096SOL    HW2 7730   5.392   7.385   9.741 -0.2947 -0.9299 -2.8102
 2097SOL     OW 7731   1.789   5.921   3.328 -0.8343  0.1914  0.7626
 2097SOL    HW1 7732   1.711   5.868   3.312 -0.9445  0.6163 -0.1618
 2097SOL    HW2 7733   1.859   5.878   3.279 -0.0984 -1.0565  2.7940
 2098SOL     OW 7734   0.973   6.375   4.520  0.0546 -0.2682 -0.1521
 2098SOL    HW1 7735   0.931   6.460   4.510 -0.7546 -0.7892 -1.4823
 2098SOL    HW2 7736   0.992   6.347   4.431  0.5374 -1.3787  0.2787
 2099SOL     OW 7737   5.087   7.516   6.570  0.0787  0.7063 -0.1157
 2099SOL    HW1 7738   5.121   7.427   6.555 -1.1060  0.3736 -1.0155
 2099SOL    HW2 7739   5.066   7.518   6.663 -1.1389 -0.4552 -0.3310
 2100SOL     OW 7740   5.537   4.615   2.009 -0.2405 -0.3724  0.2761
 2100SOL    HW1 7741   5.489   4.533   1.995 -0.8308  0.3393 -2.2115
 2100SOL    HW2 7742   5.616   4.587   2.057 -2.2672 -1.7667  3.1115
 2101SOL     OW 7743   6.552   2.461   4.687 -0.5081  0.2787  0.0674
 2101SOL    HW1 7744   6.592   2.516   4.620 -0.2028  1.1144  0.9108
 2101SOL    HW2 7745   6.593   2.375   4.674 -0.8069  0.2922 -1.1053
 2102SOL     OW 7746   2.172   4.036  10.889 -0.1544 -0.2289 -0.3747
 2102SOL    HW1 7747   2.165   4.064  10.798  0.8025  0.8924 -0.1277
 2102SOL    HW2 7748   2.237   3.965  10.888  0.9555  0.7570 -0.3976
 2103SOL     OW 7749   7.635   7.272  12.270 -0.6084 -0.5431 -0.1475
 2103SOL    HW1 7750   7.672   7.360  12.265 -1.0989 -0.3327 -0.0325
 2103SOL    HW2 7751   7.584   7.271  12.351  1.4183 -1.7084  1.2080
 2104SOL     OW 7752   6.272   0.021  11.107 -0.3716  0.0640 -0.2368
 2104SOL    HW1 7753   6.204  -0.040  11.077 -0.2156 -0.5094  0.5446
 2104SOL    HW2 7754   6.224   0.089  11.153 -0.4749  0.0626 -0.3401
 2105SOL     OW 7755   6.312   5.487  10.040 -0.2672  0.5656  0.0824
 2105SOL    HW1 7756   6.407   5.474  10.029 -0.2301  0.4007  0.5526
 2105SOL    HW2 7757   6.290   5.433  10.116 -0.6221  1.1272  0.3828
 2106SOL     OW 7758   0.898   1.058   8.501  0.0677 -0.2890 -0.6382
 2106SOL    HW1 7759   0.804   1.039   8.500  0.3260 -1.8764  0.8346
 2106SOL    HW2 7760   0.917   1.084   8.591  1.5982 -3.5760  0.1490
 2107SOL     OW 7761   2.055   7.411  10.677  0.4671 -0.6062  0.3270
 2107SOL    HW1 7762   1.974   7.390  10.630  0.9236 -2.3941  0.2613
 2107SOL    HW2 7763   2.118   7.433  10.607  0.4571 -0.7376  0.2768
 2108SOL     OW 7764   0.452   1.904   1.825  0.6949 -0.2565 -0.5845
 2108SOL    HW1 7765   0.412   1.930   1.742 -0.1387 -0.6114 -0.3058
 2108SOL    HW2 7766   0.484   1.986   1.863  1.1486 -0.0979 -1.2805
 2109SOL     OW 7767   7.839   4.710  10.430 -0.4884  0.2036  0.1634
 2109SOL    HW1 7768   7.923   4.750  10.447 -0.5626  0.6470 -0.4929
 2109SOL    HW2 7769   7.838   4.631  10.485  0.4814  0.0180 -0.0793
 2110SOL     OW 7770   5.526   0.671  12.028  0.6721  0.3770 -0.6987
 2110SOL    HW1 7771   5.605   0.724  12.041 -0.0387  1.0941  0.9612
 2110SOL    HW2 7772   5.553   0.582  12.052  1.0299  0.5964 -0.2634
 2111SOL     OW 7773   3.308   4.069  12.317 -0.0894 -0.2481  0.2097
 2111SOL    HW1 7774   3.325   3.975  12.320  0.5091 -0.1606 -0.3387
 2111SOL    HW2 7775   3.227   4.080  12.367 -0.0524 -1.0264  0.4503
 2112SOL     OW 7776   6.364   3.496   2.401 -0.2291 -0.3142 -0.0856
 2112SOL    HW1 7777   6.400   3.439   2.469  0.6933 -0.1073 -0.3819
 2112SOL    HW2 7778   6.373   3.584   2.437  0.2525 -0.2049 -0.4583
 2113SOL     OW 7779   4.396   2.793   8.053 -0.7755  0.6078  0.2110
 2113SOL    HW1 7780   4.331   2.861   8.071 -0.5937  0.8874 -0.1772
 2113SOL    HW2 7781   4.476   2.841   8.031 -0.0520  0.2790  1.9455
 2114SOL     OW 7782   5.002   0.080  11.953  0.2240  0.6602  0.1375
 2114SOL    HW1 7783   4.996   0.170  11.986 -0.7137  1.0102 -0.9337
 2114SOL    HW2 7784   4.921   0.038  11.982  0.1789  0.4706 -0.2618
 2115SOL     OW 7785   3.988   6.750  10.821 -0.1565 -0.6368 -0.1768
 2115SOL    HW1 7786   4.011   6.837  10.856 -0.1523 -0.9466  0.5976
 2115SOL    HW2 7787   4.066   6.724  10.772  0.8667 -1.2781  1.6790
 2116SOL     OW 7788   3.398   6.538   9.632 -0.4070 -0.0308  0.0654
 2116SOL    HW1 7789   3.425   6.448   9.653  2.0409  0.5557 -0.2581
 2116SOL    HW2 7790   3.388   6.581   9.717 -0.8061 -0.3789  0.1991
 2117SOL     OW 7791   6.509   1.643   7.890  0.2434 -0.1728 -0.1582
 2117SOL    HW1 7792   6.579   1.579   7.906 -0.2018 -1.0833 -1.6686
 2117SOL    HW2 7793   6.441   1.593   7.845 -0.6769  1.0838 -0.2005
 2118SOL     OW 7794   0.823   1.088   2.334 -0.4427  0.1658 -0.6097
 2118SOL    HW1 7795   0.894   1.046   2.286 -0.4192 -0.2900 -0.1888
 2118SOL    HW2 7796   0.769   1.131   2.267 -1.0852 -1.4608 -1.1752
 2119SOL     OW 7797   7.937   3.157   6.190  0.0656  0.4189  0.2849
 2119SOL    HW1 7798   8.032   3.152   6.175  0.2789  0.7985  1.4184
 2119SOL    HW2 7799   7.906   3.215   6.120  0.4448 -0.8082 -0.9375
 2120SOL     OW 7800   7.139   6.829  10.676  0.1452  0.2492 -0.1656
 2120SOL    HW1 7801   7.121   6.912  10.720  0.9432  0.7922 -0.8347
 2120SOL    HW2 7802   7.212   6.848  10.617 -0.5705 -0.5959 -1.3568
 2121SOL     OW 7803   0.188   0.622   4.395  0.1820 -0.0222  0.1238
 2121SOL    HW1 7804   0.187   0.665   4.310 -0.8679 -3.3416 -1.7014
 2121SOL    HW2 7805   0.104   0.646   4.435 -0.0060  0.3053 -0.4579
 2122SOL     OW 7806   2.494   2.552  12.269 -0.2462 -1.1851  0.1856
 2122SOL    HW1 7807   2.480   2.550  12.364  0.6073 -0.9963  0.3294
 2122SOL    HW2 7808   2.408   2.534  12.231 -1.1320  1.1088  0.9636
 2123SOL     OW 7809   0.204   2.822   4.536  1.2087 -0.2688  0.0193
 2123SOL    HW1 7810   0.282   2.766   4.536  0.6059 -1.1720  1.5800
 2123SOL    HW2 7811   0.220   2.885   4.606  0.7312 -0.1723  0.0444
 2124SOL     OW 7812   7.317   5.846  10.474  0.3129 -0.0313 -0.2542
 2124SOL    HW1 7813   7.351   5.925  10.516  3.3542 -1.0738 -0.4902
 2124SOL    HW2 7814   7.390   5.784  10.477 -2.0997 -3.0992  0.4567
 2125SOL     OW 7815   1.617   4.452   6.289 -0.2946 -0.0660  0.5944
 2125SOL    HW1 7816   1.629   4.486   6.200  0.0073 -0.7398  0.3637
 2125SOL    HW2 7817   1.704   4.457   6.328 -0.7732  1.8908  1.4869
 2126SOL     OW 7818   7.142   7.944   8.435 -0.7420  0.5375  0.2663
 2126SOL    HW1 7819   7.168   8.004   8.365  1.2981  0.1116  0.6041
 2126SOL    HW2 7820   7.100   7.871   8.389 -0.7775  0.9568 -0.3830
 2127SOL     OW 7821   4.729   3.490   1.694 -0.6009 -0.2760  0.0752
 2127SOL    HW1 7822   4.714   3.460   1.605 -0.5881 -1.4953  0.4599
 2127SOL    HW2 7823   4.710   3.414   1.748 -0.0902  0.2852  1.0777
 2128SOL     OW 7824   4.712   1.834  11.298 -0.2208  0.7031 -0.0591
 2128SOL    HW1 7825   4.778   1.899  11.323 -1.6062  1.4483  1.9256
 2128SOL    HW2 7826   4.722   1.763  11.362 -0.4957  0.2052 -0.5563
 2129SOL     OW 7827   6.337   5.141   8.049 -0.0396 -0.0766 -0.2533
 2129SOL    HW1 7828   6.414   5.162   7.996  0.6697 -2.5023 -0.2989
 2129SOL    HW2 7829   6.316   5.223   8.094  1.3924  1.1413 -1.7000
 2130SOL     OW 7830   2.642   4.068   7.678  0.4870 -0.2821  0.0815
 2130SOL    HW1 7831   2.715   4.064   7.616  0.8398 -0.5719  0.5088
 2130SOL    HW2 7832   2.579   4.003   7.645  0.8418 -0.7084  0.2327
 2131SOL     OW 7833   1.215   3.586  11.990  0.3807  0.2159 -0.8812
 2131SOL    HW1 7834   1.263   3.667  12.009  0.9757 -0.4300  0.5215
 2131SOL    HW2 7835   1.136   3.615  11.945 -0.0869  1.7282  0.7840
 2132SOL     OW 7836   1.664   2.188   7.347  0.6462  0.0600  0.0744
 2132SOL    HW1 7837   1.638   2.277   7.371 -0.8883 -0.5473  0.7567
 2132SOL    HW2 7838   1.592   2.133   7.377  1.0877 -1.3116 -1.2773
 2133SOL     OW 7839   3.218   1.619  11.896 -0.0320 -0.0464  0.0691
 2133SOL    HW1 7840   3.171   1.538  11.916 -0.4181  0.0945 -0.2622
 2133SOL    HW2 7841   3.220   1.666  11.980  0.0154 -0.3043  0.2161
 2134SOL     OW 7842   7.456   2.197  11.813 -0.2049 -0.3220 -0.6117
 2134SOL    HW1 7843   7.385   2.233  11.865  1.2754  1.1123  0.5240
 2134SOL    HW2 7844   7.469   2.261  11.742  0.3837 -0.2159 -0.4159
 2135SOL     OW 7845   7.435   4.401  11.854  0.5907 -0.0695  0.0466
 2135SOL    HW1 7846   7.374   4.335  11.884  0.3230  0.5008  0.8053
 2135SOL    HW2 7847   7.388   4.450  11.787  0.7157 -0.5106 -0.3644
 2136SOL     OW 7848   3.894   5.705  10.929  0.5542  0.2361 -0.3158
 2136SOL    HW1 7849   3.811   5.729  10.969  0.1679 -1.3432 -0.0907
 2136SOL    HW2 7850   3.870   5.646  10.857  1.3102  2.1368 -2.2053
 2137SOL     OW 7851   5.726   5.950   1.750  0.2967 -0.5661  0.0923
 2137SOL    HW1 7852   5.639   5.966   1.713  0.5767 -0.2269 -0.4219
 2137SOL    HW2 7853   5.749   5.862   1.718  1.2835  0.4097 -2.0500
 2138SOL     OW 7854   0.389   3.760   9.373 -0.1245 -0.6557  0.6578
 2138SOL    HW1 7855   0.457   3.695   9.357  0.3903 -0.0361  0.2956
 2138SOL    HW2 7856   0.434   3.833   9.415 -0.4654 -0.0309 -0.0426
 2139SOL     OW 7857   4.917   0.644   6.432  0.1295  0.7715 -1.0191
 2139SOL    HW1 7858   4.935   0.550   6.441 -0.5775  0.7228  0.1358
 2139SOL    HW2 7859   4.997   0.687   6.463 -0.1707  0.5366  0.1623
 2140SOL     OW 7860   6.794   5.817   6.187  0.5033 -0.2552 -0.4603
 2140SOL    HW1 7861   6.725   5.878   6.157 -0.4174 -1.0797 -0.0808
 2140SOL    HW2 7862   6.809   5.841   6.278  0.3776 -0.3760 -0.4073
 2141SOL     OW 7863   1.029   6.480  11.518 -0.2835 -0.6246 -0.2420
 2141SOL    HW1 7864   1.004   6.405  11.465 -0.8469 -0.2795 -0.4697
 2141SOL    HW2 7865   0.990   6.555  11.474  0.5848 -0.1443 -0.2313
 2142SOL     OW 7866   5.299   6.472   0.843 -0.2265  0.0957  0.1689
 2142SOL    HW1 7867   5.331   6.474   0.933 -1.0767  1.2316  0.4654
 2142SOL    HW2 7868   5.289   6.378   0.823 -1.2767 -0.1602  1.7161
 2143SOL     OW 7869   7.000   3.678  10.932 -0.0158  0.0389  0.0366
 2143SOL    HW1 7870   7.019   3.761  10.889 -0.9825  0.4675  0.3974
 2143SOL    HW2 7871   7.084   3.650  10.969  0.0436  1.6133  1.1751
 2144SOL     OW 7872   2.813   5.166   8.732  0.2000  0.3661  0.1622
 2144SOL    HW1 7873   2.747   5.216   8.683 -1.3897 -1.2875  0.5183
 2144SOL    HW2 7874   2.860   5.116   8.666  0.3545  0.7122  0.0094
 2145SOL     OW 7875   3.032   0.101  10.865 -0.5187  0.0505 -0.0461
 2145SOL    HW1 7876   2.947   0.132  10.835 -0.7162 -0.0774  0.3788
 2145SOL    HW2 7877   3.013   0.020  10.913 -0.2127  0.3019  0.5010
 2146SOL     OW 7878   1.216   7.066   4.841  0.1275  0.1308 -0.1670
 2146SOL    HW1 7879   1.171   6.991   4.803  1.0805 -0.2852 -0.4842
 2146SOL    HW2 7880   1.146   7.128   4.861 -0.7747 -1.1542  0.8457
 2147SOL     OW 7881   2.094   5.984  11.558  0.5119  0.1623  0.3806
 2147SOL    HW1 7882   2.028   6.050  11.579 -0.4956 -0.5201 -0.5770
 2147SOL    HW2 7883   2.082   5.967  11.465  0.3049 -1.8626  0.7470
 2148SOL     OW 7884   4.304   3.352   1.486 -0.2328  0.1405  0.0115
 2148SOL    HW1 7885   4.352   3.399   1.419 -1.2034  0.0734 -0.7600
 2148SOL    HW2 7886   4.249   3.418   1.528  0.9246  0.3354  1.2950
 2149SOL     OW 7887   2.574   7.362   1.390 -0.1684 -0.2483 -0.2728
 2149SOL    HW1 7888   2.617   7.439   1.352 -0.5735 -0.2038 -0.6366
 2149SOL    HW2 7889   2.510   7.335   1.325 -0.5583 -0.4383  0.1847
 2150SOL     OW 7890   6.503   6.090   0.744 -0.0135  0.3515 -0.1313
 2150SOL    HW1 7891   6.472   6.107   0.655  0.4026  0.3703 -0.2723
 2150SOL    HW2 7892   6.593   6.060   0.733  0.0092  0.2652  0.2777
 2151SOL     OW 7893   4.619   0.519  11.387  0.1099 -0.3260 -0.3154
 2151SOL    HW1 7894   4.655   0.465  11.458 -0.4229 -0.1778  0.0679
 2151SOL    HW2 7895   4.600   0.603  11.428  2.9193  0.9520 -1.3265
 2152SOL     OW 7896   4.057   6.481   2.167 -0.5133  0.0294  0.5895
 2152SOL    HW1 7897   4.120   6.429   2.118  0.4829  2.5896 -1.0659
 2152SOL    HW2 7898   4.104   6.508   2.245 -0.7950 -0.8953  1.0977
 2153SOL     OW 7899   0.028   4.496   7.125  0.1426  0.2041 -0.1647
 2153SOL    HW1 7900  -0.025   4.569   7.095 -1.0046  1.0412  3.4325
 2153SOL    HW2 7901  -0.030   4.447   7.183  2.2998 -0.8603  1.1966
 2154SOL     OW 7902   4.328   7.028   7.469  0.4004 -0.5075 -0.4384
 2154SOL    HW1 7903   4.259   7.068   7.416 -0.1601 -1.6348 -0.5885
 2154SOL    HW2 7904   4.373   6.968   7.410  1.9964  0.7072 -0.5336
 2155SOL     OW 7905   3.197   0.199   9.619 -0.3046  0.4862  0.7331
 2155SOL    HW1 7906   3.275   0.253   9.634  0.4356  0.5209 -2.4098
 2155SOL    HW2 7907   3.124   0.253   9.648  0.6220  2.1003  0.1957
 2156SOL     OW 7908   6.740   5.708   7.901  0.5504 -0.2884  0.0905
 2156SOL    HW1 7909   6.738   5.799   7.931  0.7536  0.1842 -1.2458
 2156SOL    HW2 7910   6.799   5.709   7.825  0.1683 -1.4419 -0.2467
 2157SOL     OW 7911   6.246   0.292   0.391 -0.6927 -0.8549 -0.2525
 2157SOL    HW1 7912   6.329   0.262   0.355 -1.1211 -1.7674 -0.5162
 2157SOL    HW2 7913   6.181   0.268   0.325 -0.8235  2.9980 -1.7232
 2158SOL     OW 7914   7.151   0.306   7.137 -0.5719  0.0409  0.1022
 2158SOL    HW1 7915   7.222   0.265   7.186 -1.6039 -2.3560 -0.2277
 2158SOL    HW2 7916   7.181   0.306   7.046  0.2309  1.9623  0.3245
 2159SOL     OW 7917   0.203   4.887   1.331  0.7452 -0.3423  0.5983
 2159SOL    HW1 7918   0.261   4.866   1.258  0.5199 -0.1930  0.3763
 2159SOL    HW2 7919   0.115   4.876   1.296  0.6222 -1.5939  1.2209
 2160SOL     OW 7920   4.105   6.375  12.305  0.0015 -0.2984 -0.0094
 2160SOL    HW1 7921   4.035   6.373  12.371 -0.1562  0.4239 -0.1458
 2160SOL    HW2 7922   4.180   6.409  12.353 -0.0255 -0.0809 -0.1227
 2161SOL     OW 7923   7.863   4.820  11.821 -0.0240 -0.0647  0.1498
 2161SOL    HW1 7924   7.925   4.749  11.839 -0.1091  0.2107  1.7442
 2161SOL    HW2 7925   7.780   4.789  11.858 -0.3109  0.4261 -0.0778
 2162SOL     OW 7926   5.764   4.693   7.124  0.2735  0.1470 -0.3774
 2162SOL    HW1 7927   5.792   4.784   7.114 -0.7315  0.4490 -0.5517
 2162SOL    HW2 7928   5.737   4.686   7.215  0.0430  0.1129 -0.4482
 2163SOL     OW 7929   2.598   1.344  11.320  0.0072 -0.4300  0.7268
 2163SOL    HW1 7930   2.678   1.292  11.315  0.8762  0.9591 -0.8845
 2163SOL    HW2 7931   2.530   1.286  11.285  0.9220 -0.5983 -0.8831
 2164SOL     OW 7932   6.407   1.436  11.234  0.6530 -0.3461 -0.0135
 2164SOL    HW1 7933   6.392   1.507  11.172  2.5121  1.5252  1.5341
 2164SOL    HW2 7934   6.501   1.419  11.230  0.5455 -1.3629  1.0718
 2165SOL     OW 7935   0.432   5.081   9.452 -0.2000 -0.9903 -0.3130
 2165SOL    HW1 7936   0.439   5.006   9.512 -0.2785 -1.3018 -0.6899
 2165SOL    HW2 7937   0.354   5.127   9.481 -0.3220 -1.2240 -0.2673
 2166SOL     OW 7938   4.267   1.611   1.245  0.2133 -0.0450 -0.2067
 2166SOL    HW1 7939   4.245   1.518   1.243 -0.0056  0.0097 -0.3189
 2166SOL    HW2 7940   4.209   1.651   1.181 -0.5148  0.3520  0.6884
 2167SOL     OW 7941   5.802   6.202   2.649  0.0779  0.3437 -0.3891
 2167SOL    HW1 7942   5.815   6.293   2.620  2.1977  0.9199  1.9847
 2167SOL    HW2 7943   5.718   6.204   2.696 -0.9597  0.5188 -2.1793
 2168SOL     OW 7944   4.040   2.839   3.755 -0.2034 -0.3130  0.0313
 2168SOL    HW1 7945   4.011   2.778   3.823 -1.1477 -1.2800 -1.1952
 2168SOL    HW2 7946   3.960   2.884   3.727  0.4172  1.2781  0.6574
 2169SOL     OW 7947   3.028   0.244  10.571 -0.3501 -0.0913 -0.5444
 2169SOL    HW1 7948   2.989   0.326  10.541  2.1758  2.8118  3.2914
 2169SOL    HW2 7949   3.122   0.256  10.561  0.1098 -2.7354 -0.1997
 2170SOL     OW 7950   1.932   3.962   9.363  0.1012 -0.2313 -0.1328
 2170SOL    HW1 7951   1.951   3.892   9.427  0.5774 -0.8362 -0.9101
 2170SOL    HW2 7952   1.865   4.015   9.405  1.8476  0.6023  1.7526
 2171SOL     OW 7953   1.792   0.776   7.840  0.0459 -0.1760  0.4863
 2171SOL    HW1 7954   1.726   0.786   7.771  0.1029 -1.5155  0.1944
 2171SOL    HW2 7955   1.875   0.792   7.797  0.1208 -1.5083  0.0866
 2172SOL     OW 7956   3.358   2.712   4.956  0.2194 -0.0856 -0.5933
 2172SOL    HW1 7957   3.304   2.784   4.925  2.0805  1.3500 -0.7095
 2172SOL    HW2 7958   3.388   2.742   5.042  0.9342 -0.7643 -0.6026
 2173SOL     OW 7959   2.609   3.545   8.040  0.3289  0.4019  0.1560
 2173SOL    HW1 7960   2.545   3.589   8.096  1.2500  0.5530  1.1476
 2173SOL    HW2 7961   2.671   3.614   8.017  0.1729  0.2493 -0.7508
 2174SOL     OW 7962   4.844   6.748   5.279  0.1756  0.1292  0.3870
 2174SOL    HW1 7963   4.782   6.748   5.205  0.6765  0.9067 -0.0442
 2174SOL    HW2 7964   4.891   6.830   5.270  1.0507 -0.3111  0.9018
 2175SOL     OW 7965   7.130   0.041   5.483 -0.2397 -0.5068  0.4380
 2175SOL    HW1 7966   7.165  -0.048   5.495 -1.1134 -0.8143  0.7214
 2175SOL    HW2 7967   7.156   0.063   5.393  0.1844 -0.9515  0.4401
 2176SOL     OW 7968   5.909   6.272   1.318 -0.1139  0.1494  0.3734
 2176SOL    HW1 7969   5.826   6.226   1.330  0.3565 -0.8230  0.0316
 2176SOL    HW2 7970   5.972   6.203   1.296 -0.0789  1.2040 -3.8256
 2177SOL     OW 7971   0.662   6.584   7.289  0.4498  0.9234 -0.9469
 2177SOL    HW1 7972   0.687   6.511   7.232  1.2275 -0.0061  0.5451
 2177SOL    HW2 7973   0.616   6.544   7.362 -0.3177  2.0785 -0.7564
 2178SOL     OW 7974   3.440   1.473   0.649 -0.0195  0.2986  0.7008
 2178SOL    HW1 7975   3.508   1.528   0.611 -0.6269 -0.3227 -1.4731
 2178SOL    HW2 7976   3.362   1.491   0.596 -0.3636 -2.2490  0.2081
 2179SOL     OW 7977   2.969   6.959   8.541  0.1624 -0.3417 -0.1569
 2179SOL    HW1 7978   2.924   6.914   8.470  2.2935 -1.8658 -0.6470
 2179SOL    HW2 7979   3.007   6.888   8.594 -1.9004  0.6925  2.9758
 2180SOL     OW 7980   3.564   7.405  12.285 -0.0101  0.2577 -0.0269
 2180SOL    HW1 7981   3.598   7.491  12.259  1.6187 -0.0956  0.7938
 2180SOL    HW2 7982   3.582   7.348  12.210 -1.5706  0.6920 -0.7892
 2181SOL     OW 7983   5.428   6.885  10.991  0.5233  0.1500  0.1345
 2181SOL    HW1 7984   5.403   6.919  10.905  1.0405  2.4672  0.8286
 2181SOL    HW2 7985   5.357   6.826  11.015 -0.5504  0.9064 -1.0802
 2182SOL     OW 7986   1.331   0.054   7.783 -0.2282 -0.3936  0.2720
 2182SOL    HW1 7987   1.355   0.041   7.691  0.0321 -0.6860  0.3788
 2182SOL    HW2 7988   1.235   0.052   7.783 -0.3081  1.7122 -0.2921
 2183SOL     OW 7989   7.442   4.087   4.158  0.0780  0.6585 -0.1732
 2183SOL    HW1 7990   7.510   4.021   4.165 -0.1261  0.2034 -1.9902
 2183SOL    HW2 7991   7.370   4.054   4.212  0.4886  0.0635  0.0081
 2184SOL     OW 7992   5.225   4.188   9.300  0.7426  0.6799  0.1863
 2184SOL    HW1 7993   5.131   4.193   9.287  0.7960 -0.2401 -0.7194
 2184SOL    HW2 7994   5.238   4.212   9.392  0.0054  4.4000 -0.5241
 2185SOL     OW 7995   4.701   3.220   5.264 -0.1042 -0.0316  0.3116
 2185SOL    HW1 7996   4.642   3.294   5.246  0.4933  0.3559 -0.0781
 2185SOL    HW2 7997   4.712   3.221   5.359  1.4584  1.6200  0.1608
 2186SOL     OW 7998   0.590   2.543   2.738  0.5446  0.6469 -0.1622
 2186SOL    HW1 7999   0.518   2.545   2.675  0.6210 -0.2054 -0.2995
 2186SOL    HW2 8000   0.559   2.485   2.808  1.9086 -1.6383 -1.3112
 2187SOL     OW 8001   4.683   7.098  11.896  0.4542  0.1516  0.0429
 2187SOL    HW1 8002   4.689   7.172  11.835  0.1976 -1.4238 -2.0364
 2187SOL    HW2 8003   4.624   7.127  11.964 -0.1319  1.6656 -1.0623
 2188SOL     OW 8004   2.738   5.532   1.510  0.0667 -0.5633  0.1054
 2188SOL    HW1 8005   2.750   5.459   1.570  0.2252 -0.4284  0.2392
 2188SOL    HW2 8006   2.801   5.598   1.540  0.0586 -0.4480 -0.1322
 2189SOL     OW 8007   6.621   1.045   7.049  0.7530 -0.2206  0.1193
 2189SOL    HW1 8008   6.578   1.130   7.045  2.2429  0.6367  1.1959
 2189SOL    HW2 8009   6.614   1.019   7.140  2.0732 -0.2512  0.2400
 2190SOL     OW 8010   6.559   6.373   4.105  0.0231 -0.6585  0.2204
 2190SOL    HW1 8011   6.565   6.444   4.041 -1.5743 -1.8936 -1.4202
 2190SOL    HW2 8012   6.525   6.414   4.184  2.9842  1.1017  0.7053
 2191SOL     OW 8013   7.279   6.938   4.315 -0.0117  0.3694 -0.1063
 2191SOL    HW1 8014   7.314   6.889   4.389 -3.0251  0.6359  1.6678
 2191SOL    HW2 8015   7.329   6.907   4.239  1.8581 -1.3698  1.7262
 2192SOL     OW 8016   3.778   6.163   8.987 -0.2467 -0.4328 -0.9788
 2192SOL    HW1 8017   3.716   6.216   8.937 -0.7782  0.2393  0.3532
 2192SOL    HW2 8018   3.835   6.123   8.921 -0.4723  0.9971 -2.0693
 2193SOL     OW 8019   1.028   5.926  11.653 -0.1138  0.5797 -0.3531
 2193SOL    HW1 8020   1.074   6.009  11.638  0.6836  0.4619  1.2550
 2193SOL    HW2 8021   1.075   5.862  11.600 -0.7082  1.1089 -1.5731
 2194SOL     OW 8022   6.427   0.048   6.434  0.0190 -0.1341 -0.0214
 2194SOL    HW1 8023   6.490  -0.007   6.387 -0.5561 -2.4417  1.7236
 2194SOL    HW2 8024   6.344   0.000   6.427 -0.5425  0.5795  1.4427
 2195SOL     OW 8025   1.036   5.063   8.626 -0.1121  0.0764 -0.1937
 2195SOL    HW1 8026   0.994   5.024   8.703 -0.3726  1.1334  0.2181
 2195SOL    HW2 8027   0.965   5.073   8.563  0.3053 -1.8673 -1.0680
 2196SOL     OW 8028   0.992   6.326   7.339 -0.1106 -0.3940 -0.4890
 2196SOL    HW1 8029   0.994   6.365   7.251  0.6070  2.0167  0.5113
 2196SOL    HW2 8030   0.901   6.338   7.368 -0.4969 -1.7184 -1.0756
 2197SOL     OW 8031   1.170   2.959   9.413  0.3960  0.2007  0.2109
 2197SOL    HW1 8032   1.162   3.029   9.348  1.8442  0.0848 -0.1407
 2197SOL    HW2 8033   1.110   2.983   9.483 -0.5817  0.7604 -0.7880
 2198SOL     OW 8034   3.956   6.852   1.404  0.3698 -0.2011 -0.2258
 2198SOL    HW1 8035   3.973   6.930   1.352 -2.4216 -0.2192 -1.3251
 2198SOL    HW2 8036   3.955   6.780   1.341 -3.7556 -0.1329 -0.5291
 2199SOL     OW 8037   4.131   4.909   9.927 -0.8783 -0.5600 -0.0603
 2199SOL    HW1 8038   4.068   4.898   9.856 -1.6046  2.4481 -0.0032
 2199SOL    HW2 8039   4.077   4.916  10.006 -0.1808 -1.9510  0.5894
 2200SOL     OW 8040   5.948   1.965   8.370  0.5058 -0.6085 -0.0235
 2200SOL    HW1 8041   5.877   1.956   8.433  0.5275 -0.1053  0.0755
 2200SOL    HW2 8042   5.993   2.046   8.396  0.2597 -0.1662 -0.9294
 2201SOL     OW 8043   4.282   2.867   3.934 -0.7682  0.4987 -0.2737
 2201SOL    HW1 8044   4.226   2.869   3.857 -0.0472  1.1645 -0.7854
 2201SOL    HW2 8045   4.358   2.920   3.911  1.6414 -2.8319 -0.7853
 2202SOL     OW 8046   5.896   6.354   4.468 -0.2718 -0.8744 -0.5016
 2202SOL    HW1 8047   5.875   6.322   4.555  0.3123 -0.6789 -0.2793
 2202SOL    HW2 8048   5.955   6.287   4.432  0.3505 -0.4305 -0.3250
 2203SOL     OW 8049   1.698   1.726   9.524  0.1650  0.3243  0.3778
 2203SOL    HW1 8050   1.651   1.712   9.605  1.4365  0.7633  1.2261
 2203SOL    HW2 8051   1.732   1.640   9.500 -0.7322  0.0787 -0.0386
 2204SOL     OW 8052   0.680   1.192   6.399 -0.0005 -0.4158  0.0497
 2204SOL    HW1 8053   0.686   1.159   6.488  0.0609 -0.4296  0.0404
 2204SOL    HW2 8054   0.722   1.278   6.401  0.3704 -0.5909 -0.0557
 2205SOL     OW 8055   6.382   3.654   4.861 -0.0429 -0.1718  0.1415
 2205SOL    HW1 8056   6.442   3.620   4.794 -0.8238 -1.0198 -0.1598
 2205SOL    HW2 8057   6.406   3.606   4.941  1.1276  1.1018  0.5819
 2206SOL     OW 8058   6.956   6.130  10.800 -0.3436  0.3992 -0.2587
 2206SOL    HW1 8059   6.982   6.114  10.710  2.5020  1.3380  0.3051
 2206SOL    HW2 8060   7.033   6.105  10.852 -1.9380 -0.2463  1.9451
 2207SOL     OW 8061   4.279   3.959   1.639 -0.2266 -0.6555  0.6233
 2207SOL    HW1 8062   4.280   4.028   1.574  0.2374 -0.5129  0.7762
 2207SOL    HW2 8063   4.221   3.892   1.603 -1.3359  0.1615  0.8430
 2208SOL     OW 8064   3.125   4.981   3.161 -0.1969 -0.0913 -0.3260
 2208SOL    HW1 8065   3.196   4.997   3.223 -0.8249  1.0031  0.1419
 2208SOL    HW2 8066   3.150   5.029   3.082  0.1559 -0.7158 -0.6015
 2209SOL     OW 8067   0.857   0.015   1.766  0.0954 -0.1819 -0.0440
 2209SOL    HW1 8068   0.807   0.097   1.760  0.8099  0.2047 -1.1264
 2209SOL    HW2 8069   0.948   0.043   1.776  0.5207 -0.7809 -1.8483
 2210SOL     OW 8070   2.129   7.813   3.884  0.0873 -0.2699 -0.1984
 2210SOL    HW1 8071   2.214   7.838   3.846  1.2887  0.1336  2.5397
 2210SOL    HW2 8072   2.109   7.729   3.843  1.3695  0.0149 -1.5298
 2211SOL     OW 8073   2.722   0.649   0.366 -0.2707  0.8132  0.2303
 2211SOL    HW1 8074   2.781   0.671   0.439 -2.2885  1.5715  1.7050
 2211SOL    HW2 8075   2.665   0.581   0.401  0.8176 -1.2550 -1.7841
 2212SOL     OW 8076   2.631   6.423   4.184 -0.2290 -0.0690  0.0754
 2212SOL    HW1 8077   2.655   6.494   4.124 -0.2448 -0.1613 -0.0397
 2212SOL    HW2 8078   2.714   6.394   4.222 -0.3369  0.7990  1.0104
 2213SOL     OW 8079   0.729   7.638   3.308  0.1596 -0.4858 -0.3772
 2213SOL    HW1 8080   0.655   7.644   3.368 -0.1849 -0.2466 -0.8223
 2213SOL    HW2 8081   0.806   7.649   3.364 -0.2008  1.0677 -0.1463
 2214SOL     OW 8082   2.920   6.316   2.601  0.6260 -0.4522 -0.2161
 2214SOL    HW1 8083   2.956   6.329   2.514  1.1518 -0.0160  0.0589
 2214SOL    HW2 8084   2.990   6.276   2.651  0.8388  0.6304  0.3909
 2215SOL     OW 8085   7.230   6.383  11.106 -0.5747 -0.4054 -0.2353
 2215SOL    HW1 8086   7.287   6.309  11.126 -0.4972 -0.3746 -0.3394
 2215SOL    HW2 8087   7.197   6.366  11.018  0.8531  0.5556 -0.9979
 2216SOL     OW 8088   7.028   0.540  11.523 -0.5773  0.2814  0.0362
 2216SOL    HW1 8089   6.975   0.617  11.545 -1.5659 -0.7265  1.4147
 2216SOL    HW2 8090   6.997   0.472  11.584  1.0550 -0.8812 -0.3637
 2217SOL     OW 8091   7.560   2.520   1.826  0.1623  0.2482 -0.2454
 2217SOL    HW1 8092   7.633   2.482   1.875 -0.4754  0.4867  0.9281
 2217SOL    HW2 8093   7.593   2.605   1.795  0.5530  0.1225 -0.1748
 2218SOL     OW 8094   1.956   4.838   3.240  0.4959  0.3584  0.1794
 2218SOL    HW1 8095   1.919   4.926   3.230  0.4568  0.3224  0.0175
 2218SOL    HW2 8096   2.038   4.852   3.288  0.2991  0.4429  0.5002
 2219SOL     OW 8097   3.249   4.631  12.089  0.0411  0.4436 -0.0128
 2219SOL    HW1 8098   3.239   4.660  11.998  0.9213 -0.0372 -0.2653
 2219SOL    HW2 8099   3.220   4.540  12.088 -0.5261  0.6128  0.3240
 2220SOL     OW 8100   3.780   2.340   4.752  0.3785 -0.4896 -0.3523
 2220SOL    HW1 8101   3.740   2.342   4.665  0.6363 -0.6020 -0.4744
 2220SOL    HW2 8102   3.815   2.428   4.764 -1.2547  0.0945  0.3973
 2221SOL     OW 8103   2.990   6.608  10.490  0.4313 -0.3569 -0.6610
 2221SOL    HW1 8104   2.975   6.514  10.475 -1.0787 -0.3311  0.4283
 2221SOL    HW2 8105   2.979   6.648  10.404  1.1591 -1.1816 -1.1542
 2222SOL     OW 8106   7.214   5.118   3.641 -0.0339 -0.3486 -0.1563
 2222SOL    HW1 8107   7.179   5.196   3.597  1.1013  0.8357  0.9310
 2222SOL    HW2 8108   7.195   5.046   3.582 -2.5455  0.4911 -0.4895
 2223SOL     OW 8109   2.660   1.913   2.621  0.5671  0.2725 -0.3434
 2223SOL    HW1 8110   2.680   1.979   2.554  2.8750  0.0906  0.1146
 2223SOL    HW2 8111   2.731   1.850   2.615  0.2364 -0.3463  1.5477
 2224SOL     OW 8112   3.005   7.627   8.238  0.2148 -0.1663  0.1643
 2224SOL    HW1 8113   3.054   7.587   8.310  0.0450 -0.9516 -0.1470
 2224SOL    HW2 8114   2.935   7.565   8.218  0.0861  0.1743 -0.4892
 2225SOL     OW 8115   3.233   0.774   9.123 -0.5113  0.0431  0.2062
 2225SOL    HW1 8116   3.160   0.789   9.183 -1.1800  0.1429 -0.6107
 2225SOL    HW2 8117   3.243   0.857   9.076  1.2992  0.6314  1.5141
 2226SOL     OW 8118   6.116   7.602   4.298  0.0762  0.5971 -0.0532
 2226SOL    HW1 8119   6.127   7.692   4.330  1.9840  0.9732 -1.6107
 2226SOL    HW2 8120   6.038   7.606   4.243 -0.3770  1.0623  0.5945
 2227SOL     OW 8121   7.289   0.403   1.176  0.0563  0.3037 -0.1699
 2227SOL    HW1 8122   7.353   0.418   1.106  1.5407 -1.3701  0.7396
 2227SOL    HW2 8123   7.302   0.312   1.202 -1.6836  0.3534  1.1015
 2228SOL     OW 8124   0.600   4.520   2.172 -0.5567  0.1713 -0.4870
 2228SOL    HW1 8125   0.581   4.581   2.101 -1.0622  0.9408  0.2851
 2228SOL    HW2 8126   0.522   4.522   2.227  0.3045  0.5714  0.7691
 2229SOL     OW 8127   0.911   6.574   5.951 -0.0670  0.0080  0.6412
 2229SOL    HW1 8128   0.918   6.519   6.029  0.1520 -0.4274  0.3172
 2229SOL    HW2 8129   0.921   6.513   5.878 -1.5675  0.2056  0.2468
 2230SOL     OW 8130   6.010   4.955   8.017 -0.2463 -0.0471 -0.3450
 2230SOL    HW1 8131   6.077   4.887   8.026 -1.0185 -0.7992 -0.2112
 2230SOL    HW2 8132   5.940   4.914   7.967 -0.5622  0.7708 -0.5908
 2231SOL     OW 8133   6.368   6.343  12.042  0.5344  0.9144  0.2198
 2231SOL    HW1 8134   6.433   6.408  12.015  2.5857 -1.0350  0.1630
 2231SOL    HW2 8135   6.382   6.269  11.983 -1.2215  0.1139  0.7377
 2232SOL     OW 8136   0.472   7.255   7.416 -0.3505 -0.2015 -0.5808
 2232SOL    HW1 8137   0.520   7.173   7.425  1.8083  0.9056 -1.3335
 2232SOL    HW2 8138   0.398   7.233   7.360 -0.9104 -2.0034  0.7553
 2233SOL     OW 8139   0.841   0.605   6.395  0.4754  0.2471 -0.5419
 2233SOL    HW1 8140   0.836   0.557   6.478 -0.2880  0.2736 -0.5673
 2233SOL    HW2 8141   0.755   0.647   6.386  0.6225  0.4144 -1.2410
 2234SOL     OW 8142   3.882   4.976   0.061 -0.1289  0.6332 -0.1713
 2234SOL    HW1 8143   3.917   4.914   0.125 -2.0204 -0.6368 -0.2992
 2234SOL    HW2 8144   3.873   4.924  -0.019 -2.5999  0.7622 -0.0425
 2235SOL     OW 8145   5.743   7.256   1.561  0.6451  0.1815  0.1521
 2235SOL    HW1 8146   5.730   7.162   1.578 -0.8569  0.2241 -0.5947
 2235SOL    HW2 8147   5.838   7.267   1.563  0.8565 -1.3494  0.3181
 2236SOL     OW 8148   3.615   0.241   3.406 -0.0420  0.0106  0.6635
 2236SOL    HW1 8149   3.698   0.286   3.421 -0.1078  0.1989  0.4661
 2236SOL    HW2 8150   3.549   0.306   3.429 -0.2170  1.1837 -2.6411
 2237SOL     OW 8151   6.132   3.819   0.475 -0.4211 -0.0168  0.3327
 2237SOL    HW1 8152   6.117   3.907   0.442  0.5850 -0.0090 -0.1393
 2237SOL    HW2 8153   6.045   3.786   0.497 -1.1078  0.1562 -1.8632
 2238SOL     OW 8154   6.485   1.896  10.506 -0.6807  0.0576 -0.0108
 2238SOL    HW1 8155   6.454   1.836  10.439 -3.6959  2.4363 -0.9406
 2238SOL    HW2 8156   6.520   1.971  10.457 -0.3391  0.6312  1.0770
 2239SOL     OW 8157   7.152   2.045   3.572 -0.3339 -0.2382 -0.0558
 2239SOL    HW1 8158   7.180   2.127   3.612  0.2217 -0.0138 -0.8806
 2239SOL    HW2 8159   7.057   2.055   3.562 -0.3358  0.1028  0.2932
 2240SOL     OW 8160   5.017   1.751  12.444 -0.4656  0.2494 -0.3100
 2240SOL    HW1 8161   5.087   1.800  12.488  0.6392  0.7166 -2.4204
 2240SOL    HW2 8162   5.042   1.659  12.454  0.9691  0.4352 -1.7133
 2241SOL     OW 8163   7.062   4.036   1.267 -0.3568 -0.0463  0.8141
 2241SOL    HW1 8164   7.045   3.943   1.280 -0.2370 -0.1900 -0.0364
 2241SOL    HW2 8165   7.149   4.040   1.228 -0.5418  0.3940  0.4412
 2242SOL     OW 8166   7.079   0.872   9.888 -0.2525  0.7852 -0.0069
 2242SOL    HW1 8167   7.158   0.821   9.899 -1.3997 -0.6661  2.2314
 2242SOL    HW2 8168   7.079   0.934   9.961 -2.0472 -0.5489  1.2113
 2243SOL     OW 8169   6.862   7.849   1.581  0.2812 -0.4750  0.3451
 2243SOL    HW1 8170   6.824   7.883   1.662 -0.0466 -1.4769  0.6232
 2243SOL    HW2 8171   6.812   7.769   1.563  1.2717 -1.0057 -0.0929
 2244SOL     OW 8172   0.854   1.012   5.047 -0.2192  0.2130  0.7356
 2244SOL    HW1 8173   0.841   1.020   5.142  0.5414 -0.8698  0.9525
 2244SOL    HW2 8174   0.793   0.942   5.021  1.0118 -0.9364  0.8053
 2245SOL     OW 8175   1.016   0.322   1.451 -0.3222 -0.0885 -0.0711
 2245SOL    HW1 8176   1.032   0.352   1.540 -0.4957  0.4043 -0.2023
 2245SOL    HW2 8177   1.027   0.400   1.397 -1.4096 -0.1046 -0.3521
 2246SOL     OW 8178   6.544   1.025   4.378 -0.3373 -0.0828  0.1776
 2246SOL    HW1 8179   6.548   1.114   4.412 -0.3781 -0.3456  0.8909
 2246SOL    HW2 8180   6.609   1.023   4.309  0.3161  0.2470  0.7686
 2247SOL     OW 8181   4.331   1.472   8.063  0.2569 -0.7216  0.1728
 2247SOL    HW1 8182   4.384   1.403   8.021  1.3247 -0.6332  1.3036
 2247SOL    HW2 8183   4.265   1.425   8.113 -0.9712 -0.8307 -1.4495
 2248SOL     OW 8184   0.070   7.103   7.024 -0.1259 -0.4764  0.1861
 2248SOL    HW1 8185   0.037   7.014   7.040 -2.3534 -0.6553 -4.0530
 2248SOL    HW2 8186  -0.004   7.160   7.046 -0.0617 -0.0271 -0.7418
 2249SOL     OW 8187   5.442   4.590   7.126 -0.3856  0.1264 -0.8687
 2249SOL    HW1 8188   5.364   4.561   7.078 -0.5717 -2.5105  0.7924
 2249SOL    HW2 8189   5.498   4.512   7.129  0.8242  1.0010  0.8088
 2250SOL     OW 8190   0.151   0.624   8.539  0.2029  0.0905  0.0617
 2250SOL    HW1 8191   0.218   0.563   8.510  1.0614  1.3574 -0.7100
 2250SOL    HW2 8192   0.075   0.569   8.556  0.9662 -1.1993 -0.5135
 2251SOL     OW 8193   6.052   1.965  12.270  0.4528 -0.5532 -0.0876
 2251SOL    HW1 8194   6.049   2.004  12.183  1.7920  1.3122  0.6535
 2251SOL    HW2 8195   5.960   1.962  12.299  0.2185  1.1038 -0.5951
 2252SOL     OW 8196   4.655   3.999  11.502  0.0851 -0.4123 -0.1833
 2252SOL    HW1 8197   4.688   3.932  11.443 -0.8110  0.6755 -2.0008
 2252SOL    HW2 8198   4.631   4.072  11.445 -0.0060  1.0463  1.6140
 2253SOL     OW 8199   3.183   3.050   6.995  0.1829  0.1731  0.1876
 2253SOL    HW1 8200   3.199   3.140   6.965 -0.8250  0.5823  0.8340
 2253SOL    HW2 8201   3.185   3.057   7.091  0.0776 -0.4995  0.2395
 2254SOL     OW 8202   6.314   0.856   0.841  0.3125  0.0478  0.7093
 2254SOL    HW1 8203   6.260   0.925   0.880 -0.9661 -1.0744  0.9638
 2254SOL    HW2 8204   6.297   0.779   0.894  0.0458 -1.0263 -0.8795
 2255SOL     OW 8205   1.443   4.696   3.809  0.2506  0.0354  0.0071
 2255SOL    HW1 8206   1.446   4.757   3.735  0.9221  0.0886  0.0700
 2255SOL    HW2 8207   1.422   4.611   3.770  0.8810  0.0081 -0.2905
 2256SOL     OW 8208   0.379   6.889   3.313 -0.5609 -0.3530  0.0599
 2256SOL    HW1 8209   0.323   6.916   3.240  0.1812 -0.2047 -0.4662
 2256SOL    HW2 8210   0.335   6.924   3.391 -1.5928 -0.8840 -0.2583
 2257SOL     OW 8211   7.358   4.908   5.911 -0.0540  0.0097 -0.4199
 2257SOL    HW1 8212   7.279   4.896   5.964  0.6463  0.7467  0.8465
 2257SOL    HW2 8213   7.428   4.920   5.975  1.1147 -0.7100 -1.5234
 2258SOL     OW 8214   6.026   5.904  11.516 -0.4013 -1.0591 -0.4586
 2258SOL    HW1 8215   5.992   5.826  11.472  1.3088 -1.6646 -0.7755
 2258SOL    HW2 8216   6.093   5.938  11.457 -0.5872  0.2321  0.0372
 2259SOL     OW 8217   7.615   1.679   5.828 -0.2632  0.5209  0.3325
 2259SOL    HW1 8218   7.580   1.701   5.741  0.2335 -1.0120 -0.2992
 2259SOL    HW2 8219   7.596   1.585   5.837  2.2482 -0.0144  0.6277
 2260SOL     OW 8220   6.387   5.103   5.345 -0.3724 -0.6389 -0.1604
 2260SOL    HW1 8221   6.319   5.078   5.407  0.3722  0.8439  1.3135
 2260SOL    HW2 8222   6.405   5.195   5.364  1.1587 -0.6530 -1.3586
 2261SOL     OW 8223   5.141   3.219   9.549 -0.3604 -0.4727  0.7970
 2261SOL    HW1 8224   5.066   3.163   9.527 -0.7514  0.1064  0.6283
 2261SOL    HW2 8225   5.188   3.170   9.617 -0.2724 -1.3459  0.1312
 2262SOL     OW 8226   1.630   0.673   4.314 -0.1877 -0.2729  0.0467
 2262SOL    HW1 8227   1.557   0.735   4.325 -0.1060 -0.4629  1.7870
 2262SOL    HW2 8228   1.632   0.623   4.395 -0.9792 -3.4091 -1.7013
 2263SOL     OW 8229   0.293   4.804   0.408  0.4010  0.3621  0.7369
 2263SOL    HW1 8230   0.234   4.845   0.345  0.2167  0.0371  0.6968
 2263SOL    HW2 8231   0.380   4.835   0.382  0.7244 -2.1101 -1.5859
 2264SOL     OW 8232   1.929   0.977   9.167 -0.0397  0.1738 -0.1633
 2264SOL    HW1 8233   1.841   0.957   9.135 -0.1793  1.9521 -1.0055
 2264SOL    HW2 8234   1.987   0.950   9.096  0.0913 -0.6546  0.2425
 2265SOL     OW 8235   4.184   1.222   3.802 -0.1660 -0.4953  0.7243
 2265SOL    HW1 8236   4.213   1.154   3.862  0.7235  0.3034  1.2380
 2265SOL    HW2 8237   4.254   1.227   3.736  0.3826  0.7061  1.3586
 2266SOL     OW 8238   6.141   0.427   4.238  0.1087 -0.2560 -0.1641
 2266SOL    HW1 8239   6.208   0.431   4.307 -0.0412  0.0059 -0.0305
 2266SOL    HW2 8240   6.059   0.448   4.284  0.1361  0.8582 -0.5985
 2267SOL     OW 8241   1.500   2.905   4.037 -0.3016 -0.9442 -0.1890
 2267SOL    HW1 8242   1.562   2.959   4.085 -2.7984  0.1258  2.0454
 2267SOL    HW2 8243   1.531   2.815   4.051  1.0744 -0.4093  0.3432
 2268SOL     OW 8244   7.939   5.839   6.284  0.2396  0.0588 -0.0917
 2268SOL    HW1 8245   7.951   5.932   6.300 -0.1262  0.3439 -1.3467
 2268SOL    HW2 8246   8.013   5.815   6.227  0.8848 -0.6538  1.0001
 2269SOL     OW 8247   0.375   0.386   2.800 -0.5662  0.2039 -0.2563
 2269SOL    HW1 8248   0.468   0.398   2.782 -0.1520 -1.8968  0.1604
 2269SOL    HW2 8249   0.363   0.291   2.799 -2.9768  0.4273 -1.6126
 2270SOL     OW 8250   4.331   2.064   4.115 -0.1219  0.0132 -0.1522
 2270SOL    HW1 8251   4.307   2.122   4.042  2.1033 -1.0795 -1.8500
 2270SOL    HW2 8252   4.363   2.124   4.183 -2.5078  1.0688  0.1625
 2271SOL     OW 8253   3.418   5.131   8.880  0.6958 -0.2969 -0.5709
 2271SOL    HW1 8254   3.490   5.193   8.891  0.1973 -0.1779  3.0777
 2271SOL    HW2 8255   3.436   5.061   8.943 -3.0967  0.5888  1.8572
 2272SOL     OW 8256   1.086   6.009   8.123  0.2432 -0.7060 -0.2181
 2272SOL    HW1 8257   1.071   6.034   8.031 -1.0327 -0.1322  0.1185
 2272SOL    HW2 8258   1.035   5.929   8.134  0.0979 -0.5723  0.0873
 2273SOL     OW 8259   1.032   1.726   6.810  0.6200  0.4641 -0.5370
 2273SOL    HW1 8260   0.984   1.785   6.752 -0.0350 -0.4904 -0.9915
 2273SOL    HW2 8261   1.124   1.752   6.799  0.6785 -0.4309 -2.9446
 2274SOL     OW 8262   4.468   1.064   6.373  0.2063 -0.3789  0.2343
 2274SOL    HW1 8263   4.461   1.070   6.469  0.6309  0.7045  0.2113
 2274SOL    HW2 8264   4.475   1.155   6.344  2.1543 -0.7668 -0.6769
 2275SOL     OW 8265   5.658   7.912   4.757  0.2928  0.3156 -0.0448
 2275SOL    HW1 8266   5.722   7.880   4.821  0.6575  0.1200 -0.4966
 2275SOL    HW2 8267   5.638   7.836   4.703  2.3712  1.1260 -2.1429
 2276SOL     OW 8268   2.393   6.561   8.551 -0.4139 -0.1524 -0.3580
 2276SOL    HW1 8269   2.391   6.507   8.630 -2.6263 -1.1119 -0.9737
 2276SOL    HW2 8270   2.312   6.539   8.505 -0.0136  1.6231 -2.0724
 2277SOL     OW 8271   7.391   1.525   5.072 -0.2618 -0.2236 -1.1951
 2277SOL    HW1 8272   7.453   1.587   5.032 -1.6411  1.3376 -1.0288
 2277SOL    HW2 8273   7.323   1.514   5.006 -0.5278 -0.7936 -0.8280
 2278SOL     OW 8274   6.904   6.642   6.492  0.3249  0.2239 -0.4717
 2278SOL    HW1 8275   6.924   6.670   6.403 -1.4436  0.7034 -0.7599
 2278SOL    HW2 8276   6.878   6.550   6.484 -2.4427  0.9479 -0.9500
 2279SOL     OW 8277   4.583   4.687   6.063 -0.9521 -0.7885 -0.2276
 2279SOL    HW1 8278   4.617   4.738   6.136 -0.5758 -0.9518 -0.2869
 2279SOL    HW2 8279   4.510   4.740   6.029  0.8841  0.9106 -1.7891
 2280SOL     OW 8280   4.246   4.590   6.140 -0.0000  0.5698  0.0812
 2280SOL    HW1 8281   4.337   4.561   6.148 -0.4527 -1.1727 -0.4254
 2280SOL    HW2 8282   4.205   4.562   6.222 -0.3559  0.1069 -0.2450
 2281SOL     OW 8283   1.464   6.816   2.543  0.0916 -0.3394  0.1324
 2281SOL    HW1 8284   1.462   6.772   2.628 -0.5828 -0.9184 -0.1694
 2281SOL    HW2 8285   1.397   6.772   2.492  0.2135  0.2727 -0.5749
 2282SOL     OW 8286   2.438   5.190   1.561 -0.2845  0.2875  0.4275
 2282SOL    HW1 8287   2.354   5.236   1.550 -0.1010  0.0547 -2.9862
 2282SOL    HW2 8288   2.498   5.237   1.502  1.0011 -1.7541  0.0326
 2283SOL     OW 8289   4.683   2.456   8.808  0.0906 -0.1924 -0.6086
 2283SOL    HW1 8290   4.639   2.443   8.724  1.6405 -1.7996 -1.2511
 2283SOL    HW2 8291   4.714   2.368   8.832  0.6425  0.4299  1.1044
 2284SOL     OW 8292   0.306   0.469  11.098  0.4493 -0.2760 -0.4232
 2284SOL    HW1 8293   0.398   0.478  11.073  0.6372 -1.0019 -0.0085
 2284SOL    HW2 8294   0.308   0.458  11.193 -0.2253  1.9370 -0.0803
 2285SOL     OW 8295   2.953   0.683   4.838  0.2108  0.3633  0.2494
 2285SOL    HW1 8296   3.043   0.654   4.848  0.0760 -0.3702 -0.5990
 2285SOL    HW2 8297   2.958   0.758   4.778  0.4289  1.4627  1.5698
 2286SOL     OW 8298   2.088   4.501   6.839  0.5512  0.2130  0.4367
 2286SOL    HW1 8299   2.096   4.416   6.795 -0.5605  0.7826 -0.9426
 2286SOL    HW2 8300   2.000   4.531   6.816  0.4179  1.1435  2.0248
 2287SOL     OW 8301   4.791   7.734   2.022 -0.2593 -0.0720 -0.0705
 2287SOL    HW1 8302   4.746   7.672   1.964 -0.7549 -0.5778  0.8332
 2287SOL    HW2 8303   4.740   7.815   2.013  0.9435  0.5500 -1.9816
 2288SOL     OW 8304   6.367   7.929   9.150 -0.3912 -0.4765  0.2557
 2288SOL    HW1 8305   6.282   7.940   9.192 -1.8901 -2.0978 -2.1630
 2288SOL    HW2 8306   6.349   7.932   9.057  2.2530 -0.7222 -0.3563
 2289SOL     OW 8307   3.850   7.229   8.178 -0.1468 -0.2163 -0.2769
 2289SOL    HW1 8308   3.851   7.262   8.268 -0.1987  0.0099 -0.3594
 2289SOL    HW2 8309   3.789   7.155   8.181 -0.9424  0.4196 -0.3432
 2290SOL     OW 8310   2.018   3.695  11.905  0.2926 -0.6266 -0.8540
 2290SOL    HW1 8311   2.013   3.784  11.938 -0.7650 -1.3919  1.2477
 2290SOL    HW2 8312   1.954   3.646  11.957  1.2510 -2.7264 -1.5279
 2291SOL     OW 8313   4.317   2.515  12.130  0.4052 -0.0874  0.0094
 2291SOL    HW1 8314   4.329   2.597  12.180  2.5923 -0.4770  0.2326
 2291SOL    HW2 8315   4.369   2.528  12.051  0.9468 -1.3351  0.1457
 2292SOL     OW 8316   6.071   5.284   4.916  0.0333  0.6222 -0.3596
 2292SOL    HW1 8317   6.161   5.289   4.949  0.6072 -0.2198 -1.6989
 2292SOL    HW2 8318   6.036   5.204   4.955 -0.1007  0.9052  0.0965
 2293SOL     OW 8319   7.346   2.456   0.760 -0.1782  0.3805 -0.1361
 2293SOL    HW1 8320   7.425   2.491   0.719  1.4316  0.6119  2.9525
 2293SOL    HW2 8321   7.343   2.365   0.732  0.3332  0.7348 -1.4289
 2294SOL     OW 8322   7.932   1.924   8.064  0.2983  0.1551  0.4858
 2294SOL    HW1 8323   8.006   1.982   8.083  0.4660  0.0196  0.2614
 2294SOL    HW2 8324   7.929   1.921   7.968  1.8906 -2.2045  0.4152
 2295SOL     OW 8325   4.323   4.660   1.948 -0.0194 -0.1774  0.4548
 2295SOL    HW1 8326   4.309   4.604   2.025 -0.0952 -1.1659 -0.2567
 2295SOL    HW2 8327   4.244   4.713   1.942 -0.8417 -1.4097 -0.0017
 2296SOL     OW 8328   5.636   3.997   9.238 -0.2384  0.3310  0.1241
 2296SOL    HW1 8329   5.683   3.974   9.318 -1.4330 -0.2139  0.6886
 2296SOL    HW2 8330   5.629   3.915   9.190 -1.7252  0.1235  0.6540
 2297SOL     OW 8331   3.014   2.810  11.034 -0.0033  0.7724  0.9847
 2297SOL    HW1 8332   2.988   2.901  11.047 -1.7815  0.6760 -1.2717
 2297SOL    HW2 8333   2.932   2.764  11.014  1.2171 -0.6751 -1.1030
 2298SOL     OW 8334   1.279   3.323   1.081  0.1764 -0.4502 -0.9709
 2298SOL    HW1 8335   1.211   3.390   1.085  1.1256  0.5471 -0.8803
 2298SOL    HW2 8336   1.238   3.244   1.116 -1.7232 -0.6170 -3.2765
 2299SOL     OW 8337   1.310   0.294   3.980 -0.6479 -0.2387  0.0460
 2299SOL    HW1 8338   1.309   0.316   3.887 -0.1981 -1.0430 -0.1622
 2299SOL    HW2 8339   1.359   0.366   4.021 -0.3570 -0.1618 -0.4222
 2300SOL     OW 8340   5.953   0.517   9.582 -0.0017 -0.4602 -0.0133
 2300SOL    HW1 8341   5.870   0.472   9.600  1.4483 -3.4712 -0.2005
 2300SOL    HW2 8342   5.971   0.500   9.490  0.7584  0.2420 -0.0079
 2301SOL     OW 8343   5.321   4.144   5.294 -0.1982 -0.0931  0.6031
 2301SOL    HW1 8344   5.287   4.132   5.205 -0.5652 -0.6120  0.8063
 2301SOL    HW2 8345   5.315   4.238   5.309 -3.8674 -0.2939  1.4917
 2302SOL     OW 8346   2.115   6.819   4.754  0.0716  0.4276  0.0680
 2302SOL    HW1 8347   2.026   6.849   4.732 -0.3266  0.2537  1.3377
 2302SOL    HW2 8348   2.170   6.896   4.739 -0.1142  0.2386 -1.7252
 2303SOL     OW 8349   0.456   2.146   9.938  0.1201  0.0328 -0.6126
 2303SOL    HW1 8350   0.519   2.126   9.869  1.2489 -0.0899  0.4216
 2303SOL    HW2 8351   0.489   2.101  10.015 -0.5883  0.9454  0.2620
 2304SOL     OW 8352   4.351   2.324   4.232 -0.4020 -0.5702 -0.2984
 2304SOL    HW1 8353   4.313   2.301   4.317 -0.9825 -0.3811 -0.4974
 2304SOL    HW2 8354   4.372   2.417   4.240 -0.0493 -0.6558 -0.2164
 2305SOL     OW 8355   2.092   3.559   1.469 -0.6664  0.0558 -0.5746
 2305SOL    HW1 8356   2.149   3.620   1.422  0.8915 -0.2050  0.8345
 2305SOL    HW2 8357   2.135   3.549   1.554 -2.3363 -0.9496  0.1885
 2306SOL     OW 8358   0.858   3.743  11.666  0.1705 -0.0619 -0.2357
 2306SOL    HW1 8359   0.779   3.689  11.667  0.6150 -0.7274 -0.2606
 2306SOL    HW2 8360   0.879   3.752  11.573 -0.0923  0.4440 -0.2490
 2307SOL     OW 8361   5.210   6.762   3.594  0.0591  0.4969 -0.2493
 2307SOL    HW1 8362   5.213   6.856   3.615 -0.2114  0.8762 -1.7546
 2307SOL    HW2 8363   5.117   6.744   3.581  0.0686 -0.0904  0.4537
 2308SOL     OW 8364   4.646   0.936   4.576  0.4321 -0.0181 -0.4224
 2308SOL    HW1 8365   4.686   0.993   4.641  0.8479 -0.7944  0.0232
 2308SOL    HW2 8366   4.720   0.892   4.534  0.1316 -0.0785 -0.8944
 2309SOL     OW 8367   4.705   6.032   3.202  0.3498  0.8428  0.5111
 2309SOL    HW1 8368   4.694   6.113   3.251  0.6849  0.3686  1.3989
 2309SOL    HW2 8369   4.784   6.045   3.149  1.2580  0.5827  1.7564
 2310SOL     OW 8370   1.040   2.371   8.519  0.0628 -0.2353  0.4398
 2310SOL    HW1 8371   1.114   2.394   8.463  0.4133  0.2777  1.0940
 2310SOL    HW2 8372   0.979   2.445   8.510  0.7131  0.4897  1.7309
 2311SOL     OW 8373   2.735   4.624   8.687 -0.1109 -0.0070 -0.6502
 2311SOL    HW1 8374   2.692   4.709   8.675 -0.4038  0.2001  1.5234
 2311SOL    HW2 8375   2.826   4.646   8.705 -0.6008  0.1031  2.2394
 2312SOL     OW 8376   3.734   5.201   7.762  0.1572 -0.0140  0.5546
 2312SOL    HW1 8377   3.653   5.189   7.712 -1.5893  2.7592  2.4479
 2312SOL    HW2 8378   3.757   5.113   7.793 -0.9123 -1.1855 -1.7173
 2313SOL     OW 8379   2.979   7.026   1.845 -0.0489  0.5976 -0.4575
 2313SOL    HW1 8380   3.017   6.938   1.840 -0.3376  0.3243  1.4374
 2313SOL    HW2 8381   2.940   7.040   1.759  1.6064 -0.3674 -1.4217
 2314SOL     OW 8382   2.063   2.912   1.067 -0.0734  0.4014  0.3342
 2314SOL    HW1 8383   1.974   2.901   1.033 -0.0588 -1.2912  0.7771
 2314SOL    HW2 8384   2.095   2.992   1.025 -0.9754 -0.2249 -1.6508
 2315SOL     OW 8385   3.575   6.942   4.752 -0.4407  0.2067  1.4003
 2315SOL    HW1 8386   3.526   6.861   4.762 -0.2066 -0.1582 -0.1291
 2315SOL    HW2 8387   3.657   6.916   4.711 -0.6221  1.2635  0.2806
 2316SOL     OW 8388   6.634   1.774   1.237 -0.0563  0.0030 -0.0263
 2316SOL    HW1 8389   6.658   1.840   1.172 -0.4217  0.0696 -0.0960
 2316SOL    HW2 8390   6.649   1.816   1.322  0.1790  0.0028 -0.0658
 2317SOL     OW 8391   5.179   3.473   4.274 -0.2713  0.0980  0.3368
 2317SOL    HW1 8392   5.089   3.441   4.274 -0.3426  0.2926  0.4678
 2317SOL    HW2 8393   5.208   3.466   4.365 -0.1152 -0.0707  0.2738
 2318SOL     OW 8394   3.375   3.551   1.019  0.7671 -0.5366 -0.6416
 2318SOL    HW1 8395   3.328   3.619   1.067  1.1456 -1.2022  0.6964
 2318SOL    HW2 8396   3.406   3.595   0.940 -1.5392  0.0850 -1.2783
 2319SOL     OW 8397   7.409   1.226   2.780  0.3452 -0.1466  0.0035
 2319SOL    HW1 8398   7.358   1.266   2.709 -0.6685  0.0145  0.8039
 2319SOL    HW2 8399   7.386   1.277   2.858 -0.4030 -1.7724  0.9115
 2320SOL     OW 8400   1.061   0.799   7.395  0.3592  0.1642 -0.1891
 2320SOL    HW1 8401   1.083   0.776   7.305 -2.0504  0.9826 -1.0561
 2320SOL    HW2 8402   1.117   0.743   7.449  2.5903  0.3683 -2.1483
 2321SOL     OW 8403   4.852   5.426   1.592  0.4440 -0.1531  0.2710
 2321SOL    HW1 8404   4.825   5.385   1.510  0.3308  0.6302 -0.0873
 2321SOL    HW2 8405   4.791   5.391   1.657 -0.5860  0.5322 -0.2882
 2322SOL     OW 8406   1.482   4.141   6.368 -0.1984 -0.0646 -0.4262
 2322SOL    HW1 8407   1.443   4.056   6.348 -1.6765 -0.0688  2.0243
 2322SOL    HW2 8408   1.532   4.163   6.290 -0.2057 -2.9124 -1.3755
 2323SOL     OW 8409   1.040   7.884   7.515 -0.6043 -0.1174  0.4641
 2323SOL    HW1 8410   0.964   7.827   7.507  0.2525 -1.2702  0.3094
 2323SOL    HW2 8411   1.114   7.831   7.484  0.2604  0.9820  0.5711
 2324SOL     OW 8412   3.921   2.565   8.048  0.2731 -0.3123  0.0196
 2324SOL    HW1 8413   4.014   2.569   8.024 -0.1359 -1.9425 -2.1651
 2324SOL    HW2 8414   3.901   2.651   8.083  2.4387  0.3080 -0.1399
 2325SOL     OW 8415   3.278   3.850   0.663 -0.3807  0.1302 -0.2346
 2325SOL    HW1 8416   3.313   3.934   0.633 -1.0585  0.2320 -0.7412
 2325SOL    HW2 8417   3.262   3.800   0.583 -0.8414 -0.1443  0.0270
 2326SOL     OW 8418   5.685   0.064  12.437  0.1459 -0.0364 -0.2650
 2326SOL    HW1 8419   5.710   0.156  12.425  1.7188 -0.5430 -1.1511
 2326SOL    HW2 8420   5.724   0.019  12.362 -1.7057 -1.2450 -0.5513
 2327SOL     OW 8421   5.832   3.368   1.899 -0.3049 -0.7171 -0.2664
 2327SOL    HW1 8422   5.769   3.434   1.871 -0.9140 -1.4318 -0.5812
 2327SOL    HW2 8423   5.916   3.400   1.865 -0.7900 -0.7552 -1.5257
 2328SOL     OW 8424   0.663   4.128  11.465 -0.2360  0.0440  0.0673
 2328SOL    HW1 8425   0.668   4.042  11.507  0.7285 -0.6411 -1.3717
 2328SOL    HW2 8426   0.730   4.180  11.509  1.0398 -0.7870 -0.8227
 2329SOL     OW 8427   5.218   6.644   8.118  0.5282 -0.3505 -0.6380
 2329SOL    HW1 8428   5.281   6.680   8.056  0.8342  1.2420  0.5462
 2329SOL    HW2 8429   5.271   6.612   8.191  0.0373  0.8024  0.2686
 2330SOL     OW 8430   2.275   3.042   0.563  0.0783  0.1014  0.6821
 2330SOL    HW1 8431   2.337   2.970   0.575 -0.2527 -0.5514 -1.1656
 2330SOL    HW2 8432   2.189   3.004   0.582 -0.3058 -0.5868 -2.0489
 2331SOL     OW 8433   3.418   7.346   6.229 -0.0040 -0.0481  0.0112
 2331SOL    HW1 8434   3.511   7.322   6.227 -0.6290 -2.8091  0.1691
 2331SOL    HW2 8435   3.372   7.263   6.230 -2.5431  1.2437 -0.8846
 2332SOL     OW 8436   2.253   1.912  10.412  0.4912 -0.0140  0.3942
 2332SOL    HW1 8437   2.251   1.850  10.485  1.0525 -0.0042  0.4237
 2332SOL    HW2 8438   2.297   1.865  10.341 -2.2346 -0.9442 -0.8344
 2333SOL     OW 8439   5.697   6.657   2.674  0.3275  0.2020  0.0083
 2333SOL    HW1 8440   5.662   6.649   2.585  2.0625 -0.3757 -0.6527
 2333SOL    HW2 8441   5.721   6.750   2.682  2.7230 -0.2572 -1.1717
 2334SOL     OW 8442   0.212   7.168   0.212 -0.2909 -0.2158  0.4020
 2334SOL    HW1 8443   0.225   7.116   0.133  0.4253  0.1985  0.2392
 2334SOL    HW2 8444   0.136   7.128   0.255 -1.6815  0.5023 -1.2639
 2335SOL     OW 8445   4.554   7.487   4.789 -0.2211  0.5002  0.2766
 2335SOL    HW1 8446   4.587   7.399   4.807 -0.0966  0.8817  2.0664
 2335SOL    HW2 8447   4.632   7.539   4.769 -0.1641  0.4694  0.4184
 2336SOL     OW 8448   2.162   1.793   4.710  0.4386  0.0421 -0.0916
 2336SOL    HW1 8449   2.254   1.769   4.711  0.4568  0.1049  0.7842
 2336SOL    HW2 8450   2.115   1.710   4.709  0.5038  0.0046 -0.0363
 2337SOL     OW 8451   2.694   3.277   4.916  0.2588  0.3298 -0.2031
 2337SOL    HW1 8452   2.752   3.269   4.992  0.4063  0.1119 -0.3366
 2337SOL    HW2 8453   2.753   3.291   4.843  0.0609  1.9378 -0.0987
 2338SOL     OW 8454   3.728   3.037   0.199 -0.1043 -0.0947  0.0112
 2338SOL    HW1 8455   3.663   2.983   0.154  1.9777 -2.7728  0.0200
 2338SOL    HW2 8456   3.773   2.977   0.258  0.3607  2.3405  2.3453
 2339SOL     OW 8457   4.877   2.286   3.447  0.1736 -0.5300 -0.4061
 2339SOL    HW1 8458   4.805   2.329   3.494 -0.2645 -0.4452 -1.1527
 2339SOL    HW2 8459   4.886   2.201   3.491 -0.4872 -0.6050 -0.4020
 2340SOL     OW 8460   1.471   2.300   2.893 -0.2929 -0.2085 -0.9437
 2340SOL    HW1 8461   1.400   2.329   2.951  0.5022  0.5742 -0.3435
 2340SOL    HW2 8462   1.466   2.205   2.895  2.1809 -0.5307  3.6724
 2341SOL     OW 8463   4.844   5.168   6.540 -0.1690 -0.0907 -0.3929
 2341SOL    HW1 8464   4.915   5.118   6.500  0.0982  1.1381 -1.5387
 2341SOL    HW2 8465   4.887   5.242   6.583 -0.7014  0.5906 -0.9795
 2342SOL     OW 8466   6.513   5.111   3.236 -0.1482 -0.1957 -0.5223
 2342SOL    HW1 8467   6.450   5.094   3.307 -0.8330 -1.0790 -1.3100
 2342SOL    HW2 8468   6.563   5.186   3.266 -0.6609 -0.3349  0.7467
 2343SOL     OW 8469   2.665   0.944   0.582 -0.1615  0.3854  0.1191
 2343SOL    HW1 8470   2.656   1.013   0.647 -0.8662  0.8030 -0.4095
 2343SOL    HW2 8471   2.741   0.893   0.611  0.6200  1.6157  0.2995
 2344SOL     OW 8472   0.036   2.701   2.385  0.3291 -0.0785 -0.0397
 2344SOL    HW1 8473   0.063   2.762   2.454  0.1472 -0.7100  0.5887
 2344SOL    HW2 8474   0.107   2.705   2.321  0.0971  1.1680 -0.2577
 2345SOL     OW 8475   6.071   2.881  12.286 -0.1258 -0.1901 -0.1103
 2345SOL    HW1 8476   6.079   2.967  12.327 -1.5190 -1.6469  3.7828
 2345SOL    HW2 8477   6.158   2.842  12.295  0.7717  1.0308 -2.7578
 2346SOL     OW 8478   2.039   1.165   8.498  0.3978  0.3050 -0.4097
 2346SOL    HW1 8479   2.015   1.115   8.420  0.1927  1.9991 -1.4884
 2346SOL    HW2 8480   2.130   1.141   8.515  0.2669 -0.5307 -0.8059
 2347SOL     OW 8481   1.158   1.566   7.865  0.4034  0.1845 -0.3185
 2347SOL    HW1 8482   1.228   1.569   7.931  0.2793 -1.0594 -0.1061
 2347SOL    HW2 8483   1.191   1.508   7.797 -0.1465  0.1308 -0.5459
 2348SOL     OW 8484   3.507   2.604   6.804 -0.2944 -0.5447  0.4868
 2348SOL    HW1 8485   3.454   2.675   6.841  0.7401 -0.9929  3.0827
 2348SOL    HW2 8486   3.443   2.547   6.761 -1.3971  0.8693  0.1519
 2349SOL     OW 8487   5.547   5.572   1.613  0.6984 -0.4036 -0.6944
 2349SOL    HW1 8488   5.613   5.635   1.642  0.8686 -0.2411 -1.4255
 2349SOL    HW2 8489   5.590   5.487   1.620  0.1755 -0.5661  1.1769
 2350SOL     OW 8490   3.996   4.083   1.021 -0.0625 -0.3316 -0.3286
 2350SOL    HW1 8491   3.967   4.001   1.061 -1.1221  0.1413 -0.0777
 2350SOL    HW2 8492   3.919   4.141   1.027  0.9308  0.9718  0.3251
 2351SOL     OW 8493   7.225   3.570  11.195 -0.1584 -0.2430 -0.0755
 2351SOL    HW1 8494   7.192   3.658  11.213  0.1700 -0.0020 -0.6164
 2351SOL    HW2 8495   7.312   3.568  11.234 -0.5600 -0.6703  0.8127
 2352SOL     OW 8496   5.683   2.997  10.388  0.1958  0.1663  0.5016
 2352SOL    HW1 8497   5.603   3.030  10.429  0.4839  0.5293  0.7843
 2352SOL    HW2 8498   5.740   2.974  10.462  0.7714  0.9478  0.3156
 2353SOL     OW 8499   2.105   7.228  11.236  0.0874  0.6697  0.8689
 2353SOL    HW1 8500   2.175   7.292  11.225  0.2540  0.4115  0.4320
 2353SOL    HW2 8501   2.058   7.229  11.153 -0.2081  0.5780  1.0334
 2354SOL     OW 8502   2.295   0.847   7.293  0.4968 -0.2512  0.3632
 2354SOL    HW1 8503   2.241   0.778   7.254  1.2973 -1.5466  1.4296
 2354SOL    HW2 8504   2.301   0.822   7.386  1.2306  0.9884  0.6686
 2355SOL     OW 8505   3.745   2.854   8.744 -0.3576  0.8507 -0.5107
 2355SOL    HW1 8506   3.757   2.939   8.786 -0.9640  0.4667  0.4867
 2355SOL    HW2 8507   3.831   2.833   8.707 -0.4378  2.3288 -1.6595
 2356SOL     OW 8508   7.711   2.783   3.912 -0.1468  0.2842  0.1732
 2356SOL    HW1 8509   7.744   2.829   3.989 -0.8237  0.9726  0.0727
 2356SOL    HW2 8510   7.770   2.709   3.900 -0.0857  0.1280  1.4011
 2357SOL     OW 8511   7.692   2.074   5.160 -0.0735 -0.4955  0.2027
 2357SOL    HW1 8512   7.618   2.131   5.140 -0.7275 -1.2930  0.3167
 2357SOL    HW2 8513   7.720   2.042   5.074  1.3423  1.2209 -0.0514
 2358SOL     OW 8514   1.147   5.802   3.218  0.0398  0.0197 -0.2830
 2358SOL    HW1 8515   1.113   5.868   3.158  1.7330  0.2520 -1.0574
 2358SOL    HW2 8516   1.142   5.720   3.168 -0.4640 -0.1385  0.0293
 2359SOL     OW 8517   6.100   6.955   8.680 -0.0290 -0.1118  0.5797
 2359SOL    HW1 8518   6.161   6.915   8.618  0.3205  1.5104 -0.1596
 2359SOL    HW2 8519   6.141   7.038   8.704 -1.2321  0.3040  1.2495
 2360SOL     OW 8520   5.995   1.167  12.389  0.1293  0.0945  0.2886
 2360SOL    HW1 8521   5.964   1.120  12.466 -1.1529 -1.2616 -1.0032
 2360SOL    HW2 8522   5.934   1.240  12.379  0.4825  0.4558  0.7106
 2361SOL     OW 8523   0.312   3.038   0.662  0.4438 -0.5128 -0.7429
 2361SOL    HW1 8524   0.231   3.044   0.711  1.7987 -1.3238  1.7707
 2361SOL    HW2 8525   0.340   3.129   0.649 -0.4633 -0.2596 -0.9510
 2362SOL     OW 8526   1.994   2.203  12.023 -0.4733  0.1979  0.5121
 2362SOL    HW1 8527   1.992   2.282  11.969  0.9805  0.5780  0.9602
 2362SOL    HW2 8528   1.941   2.139  11.976  0.0716  0.7913 -0.9452
 2363SOL     OW 8529   2.815   1.543   9.802  0.0906  0.2622 -0.0885
 2363SOL    HW1 8530   2.754   1.519   9.732 -0.4754  0.7395  0.2369
 2363SOL    HW2 8531   2.800   1.637   9.816 -0.8423 -0.1040  1.6668
 2364SOL     OW 8532   1.041   2.701   5.306  0.6455  0.0633 -0.2285
 2364SOL    HW1 8533   1.022   2.790   5.276 -1.3655 -0.4309 -0.5179
 2364SOL    HW2 8534   1.032   2.706   5.401 -1.3591 -0.1853 -0.3544
 2365SOL     OW 8535   1.160   5.141   5.327 -0.6370  0.3010 -0.0872
 2365SOL    HW1 8536   1.176   5.056   5.368 -0.1925 -0.2807 -1.4069
 2365SOL    HW2 8537   1.185   5.205   5.395 -0.2880 -0.6119  0.6752
 2366SOL     OW 8538   6.821   3.121  10.357  0.8757 -0.2643 -0.2554
 2366SOL    HW1 8539   6.831   3.054  10.289  1.6489 -1.2150  0.7575
 2366SOL    HW2 8540   6.789   3.074  10.433 -0.7895  0.9277 -0.1693
 2367SOL     OW 8541   7.049   2.769   0.448 -0.2160  0.5406  0.0039
 2367SOL    HW1 8542   7.086   2.718   0.520  0.1031  1.3492  0.4244
 2367SOL    HW2 8543   6.991   2.832   0.491  0.4364  1.4240 -0.3853
 2368SOL     OW 8544   5.048   5.030   6.991  0.3927  0.0444  1.0470
 2368SOL    HW1 8545   5.104   4.960   6.959 -0.4789  0.2539 -1.0821
 2368SOL    HW2 8546   4.969   4.985   7.022  0.9326 -0.0966  2.2747
 2369SOL     OW 8547   2.213   0.330   3.257  0.0004  0.3290 -0.1987
 2369SOL    HW1 8548   2.173   0.283   3.183  1.5912 -2.8662  0.7532
 2369SOL    HW2 8549   2.167   0.297   3.334  1.4395 -0.0620  0.5446
 2370SOL     OW 8550   2.422   5.458  11.017 -0.6053  0.0869  0.1899
 2370SOL    HW1 8551   2.512   5.434  10.997 -0.2420  1.5739 -0.0894
 2370SOL    HW2 8552   2.425   5.489  11.108 -1.0487 -0.7949  0.5216
 2371SOL     OW 8553   6.587   7.652   8.530  0.1530 -0.3502 -0.3690
 2371SOL    HW1 8554   6.656   7.605   8.483 -0.0635  0.8024 -1.9144
 2371SOL    HW2 8555   6.539   7.700   8.462 -1.8378 -0.6620  0.7143
 2372SOL     OW 8556   7.245   7.967   6.900 -0.3935 -0.5624  0.5738
 2372SOL    HW1 8557   7.256   7.953   6.806 -5.4750  0.6904 -0.4701
 2372SOL    HW2 8558   7.247   8.062   6.911  1.2197 -0.7075  2.0426
 2373SOL     OW 8559   7.393   0.209   7.243  0.0018  0.0774 -0.4393
 2373SOL    HW1 8560   7.373   0.115   7.252  0.5087 -0.0832 -0.9905
 2373SOL    HW2 8561   7.474   0.212   7.193 -0.3507  0.8359 -0.9770
 2374SOL     OW 8562   5.013   4.232   6.887  0.1178 -0.1761  0.1191
 2374SOL    HW1 8563   5.097   4.244   6.843  0.2391  0.5494  0.5328
 2374SOL    HW2 8564   4.954   4.293   6.843 -0.3773 -1.1407 -0.6051
 2375SOL     OW 8565   4.371   5.225  12.190  0.2363 -0.3451 -0.2135
 2375SOL    HW1 8566   4.302   5.284  12.160  2.0196  0.9771 -1.9565
 2375SOL    HW2 8567   4.440   5.283  12.223  0.9664 -1.5611  0.4760
 2376SOL     OW 8568   1.189   4.558   5.919 -0.1267  0.2924  0.3058
 2376SOL    HW1 8569   1.148   4.477   5.887  1.4397 -0.6759  0.6340
 2376SOL    HW2 8570   1.247   4.585   5.847  0.5697  0.2131  0.8289
 2377SOL     OW 8571   0.051   4.495  10.562 -0.8097 -0.0701  0.3792
 2377SOL    HW1 8572  -0.009   4.421  10.572  0.2249 -0.7873  1.4984
 2377SOL    HW2 8573   0.138   4.457  10.574 -0.1748  1.1232 -0.2896
 2378SOL     OW 8574   5.564   5.587   0.560 -0.1582  0.2211  0.4323
 2378SOL    HW1 8575   5.514   5.517   0.600  1.0983 -0.6129  0.6164
 2378SOL    HW2 8576   5.632   5.608   0.625  0.0771  0.9213 -0.0267
 2379SOL     OW 8577   6.954   1.047   1.977 -0.7488  0.4087  0.4077
 2379SOL    HW1 8578   7.002   1.129   1.976 -1.0637  0.6068 -0.6649
 2379SOL    HW2 8579   6.951   1.021   2.069  0.6509  0.8240  0.5874
 2380SOL     OW 8580   1.836   3.127   3.274  0.2173  0.6209  0.5291
 2380SOL    HW1 8581   1.858   3.105   3.364 -0.1179  1.0880  0.7326
 2380SOL    HW2 8582   1.909   3.094   3.222  0.4452  0.4112  0.9781
 2381SOL     OW 8583   1.691   1.388   2.569 -0.1423  0.2951 -0.4268
 2381SOL    HW1 8584   1.673   1.315   2.509  2.1583 -0.6568 -0.0650
 2381SOL    HW2 8585   1.785   1.406   2.558 -0.3602  2.2798  0.5320
 2382SOL     OW 8586   2.421   5.179  11.639 -0.0348 -0.6613  0.1239
 2382SOL    HW1 8587   2.423   5.141  11.727 -0.7168 -0.4540  0.2356
 2382SOL    HW2 8588   2.380   5.112  11.585  0.0948 -0.6624  0.0263
 2383SOL     OW 8589   7.646   4.026   1.467  0.2305 -0.3883  0.5241
 2383SOL    HW1 8590   7.587   4.001   1.396  0.7792  0.9531 -0.4387
 2383SOL    HW2 8591   7.673   3.943   1.507 -2.1525 -1.0417  0.9012
 2384SOL     OW 8592   6.427   7.076   7.563  0.3876  0.4856  0.1064
 2384SOL    HW1 8593   6.416   7.171   7.574  0.2259  0.5072 -0.2088
 2384SOL    HW2 8594   6.404   7.061   7.471 -0.3153  0.0371  0.3470
 2385SOL     OW 8595   3.649   1.844   5.178 -0.3664  0.2761 -0.0348
 2385SOL    HW1 8596   3.571   1.895   5.200 -0.4256 -0.0511  0.5331
 2385SOL    HW2 8597   3.690   1.825   5.263 -0.9685 -1.6084 -0.1262
 2386SOL     OW 8598   5.709   3.465   6.103 -0.2001 -0.1410 -0.1738
 2386SOL    HW1 8599   5.718   3.449   6.197  0.7771  1.6536  0.0735
 2386SOL    HW2 8600   5.709   3.377   6.064  0.7563 -0.8786  1.3911
 2387SOL     OW 8601   3.249   5.749   1.269 -0.0514 -0.1021 -0.1765
 2387SOL    HW1 8602   3.229   5.700   1.349 -1.4499  0.0025 -0.4233
 2387SOL    HW2 8603   3.174   5.731   1.211  0.8926 -0.1191 -1.4387
 2388SOL     OW 8604   6.391   4.120   1.756 -0.5455  0.3278 -0.3583
 2388SOL    HW1 8605   6.427   4.101   1.843  0.7698  2.5813 -0.3398
 2388SOL    HW2 8606   6.445   4.191   1.723 -3.5470  2.3311 -1.3588
 2389SOL     OW 8607   0.395   1.074   0.345 -0.0319  0.1739 -0.0582
 2389SOL    HW1 8608   0.429   0.986   0.363 -0.0431 -0.0263 -0.9220
 2389SOL    HW2 8609   0.467   1.118   0.298 -0.9170 -0.2687 -1.9501
 2390SOL     OW 8610   6.722   0.945  10.375 -0.4459  0.5106  0.4086
 2390SOL    HW1 8611   6.692   1.036  10.368  2.5458  1.4940 -2.0075
 2390SOL    HW2 8612   6.723   0.913  10.284  2.2092 -0.5493  0.7104
 2391SOL     OW 8613   2.717   2.039   1.614  0.3895 -0.7192 -0.0291
 2391SOL    HW1 8614   2.714   1.975   1.543  2.1848 -3.2178  1.9217
 2391SOL    HW2 8615   2.805   2.030   1.651 -0.7930 -0.4904  3.2154
 2392SOL     OW 8616   5.169   7.506   1.415 -0.5367 -0.2790 -0.1704
 2392SOL    HW1 8617   5.084   7.545   1.437 -0.4948 -0.6917  0.7760
 2392SOL    HW2 8618   5.148   7.437   1.352 -1.0907 -1.2681  1.0533
 2393SOL     OW 8619   3.829   5.334  12.429  0.0540  0.2214  0.1417
 2393SOL    HW1 8620   3.825   5.426  12.457 -0.9492 -0.2415  1.6288
 2393SOL    HW2 8621   3.895   5.295  12.486 -1.7695 -0.6561  1.7611
 2394SOL     OW 8622   6.187   6.166   7.050  1.0100 -0.2157  0.3217
 2394SOL    HW1 8623   6.212   6.170   6.957 -1.2755  0.3192 -0.3226
 2394SOL    HW2 8624   6.147   6.080   7.060  0.8735 -0.1037  0.7118
 2395SOL     OW 8625   4.533   3.042   0.951  0.0115 -0.3398 -0.6627
 2395SOL    HW1 8626   4.508   3.085   1.032  1.9454 -1.6729  0.7177
 2395SOL    HW2 8627   4.450   3.016   0.911 -1.0040  0.9745  0.5078
 2396SOL     OW 8628   1.469   0.935   6.775  0.3466 -0.6391  0.2346
 2396SOL    HW1 8629   1.522   0.911   6.698  2.0580 -0.0298  1.1679
 2396SOL    HW2 8630   1.390   0.974   6.738  1.3229  0.0409 -1.2427
 2397SOL     OW 8631   6.873   4.963   2.635  0.2220 -0.0197 -0.1650
 2397SOL    HW1 8632   6.890   4.869   2.634 -1.0865 -0.2847  0.1934
 2397SOL    HW2 8633   6.824   4.977   2.716  1.6886  1.2389  0.5641
 2398SOL     OW 8634   0.339   3.523  10.797 -0.2085  0.6365  0.0468
 2398SOL    HW1 8635   0.290   3.605  10.793 -0.5211  0.4697  0.4379
 2398SOL    HW2 8636   0.380   3.523  10.884 -2.0351 -0.6484  0.9698
 2399SOL     OW 8637   2.615   0.788   1.085 -0.0714 -0.7634 -0.1479
 2399SOL    HW1 8638   2.607   0.880   1.058 -2.0880 -0.6727  0.5926
 2399SOL    HW2 8639   2.608   0.739   1.003  2.1434 -0.2709 -0.6891
 2400SOL     OW 8640   0.313   5.627   3.830 -0.2280  0.1044 -0.3783
 2400SOL    HW1 8641   0.349   5.624   3.918 -0.3963  0.0744 -0.3103
 2400SOL    HW2 8642   0.335   5.542   3.792  0.9459  0.5811 -0.8048
 2401SOL     OW 8643   0.058   3.070   0.852 -0.7916 -0.4004 -1.1151
 2401SOL    HW1 8644   0.116   3.002   0.888 -0.1161 -0.2814 -1.9399
 2401SOL    HW2 8645  -0.001   3.092   0.924 -3.1943 -4.1305 -1.6551
 2402SOL     OW 8646   5.350   3.322   5.991 -0.2156  0.1004 -0.0574
 2402SOL    HW1 8647   5.388   3.241   5.957  0.9921  0.9732 -0.8910
 2402SOL    HW2 8648   5.404   3.391   5.953 -1.5410  1.3305  0.2118
 2403SOL     OW 8649   5.276   7.122   7.659  0.0016 -0.1178 -0.3077
 2403SOL    HW1 8650   5.234   7.114   7.745  1.1677  0.9063  0.3926
 2403SOL    HW2 8651   5.364   7.155   7.678  0.0033  0.9375 -1.9446
 2404SOL     OW 8652   0.339   2.838   6.725  0.1050  0.6948 -0.2411
 2404SOL    HW1 8653   0.275   2.901   6.692 -0.6944  0.2989  0.5087
 2404SOL    HW2 8654   0.393   2.888   6.787 -1.1242  0.4662  1.0707
 2405SOL     OW 8655   6.577   3.763   8.035  0.5378  0.9947 -0.5840
 2405SOL    HW1 8656   6.574   3.677   8.078  0.0481  2.4488  2.5625
 2405SOL    HW2 8657   6.486   3.782   8.014  0.5853  0.9787 -0.8079
 2406SOL     OW 8658   2.731   5.118   5.088 -0.1902 -0.9049 -0.1669
 2406SOL    HW1 8659   2.794   5.110   5.016 -1.1162  0.6601 -1.2200
 2406SOL    HW2 8660   2.645   5.120   5.045 -0.8051 -0.5928  1.0348
 2407SOL     OW 8661   1.591   3.057   7.846 -0.1667 -0.0724 -0.6835
 2407SOL    HW1 8662   1.608   3.106   7.765 -0.3370  1.2920  0.0691
 2407SOL    HW2 8663   1.626   3.114   7.915 -1.3724 -0.5263  0.3204
 2408SOL     OW 8664   4.205   3.512  10.740 -0.8400 -0.7367 -0.0548
 2408SOL    HW1 8665   4.161   3.434  10.773 -1.7298 -0.9480 -1.6374
 2408SOL    HW2 8666   4.168   3.526  10.653 -1.8097  2.3211  0.7131
 2409SOL     OW 8667   7.209   3.293  10.512 -0.0799  0.3447 -0.3914
 2409SOL    HW1 8668   7.129   3.314  10.465 -0.7866 -1.4390 -0.0776
 2409SOL    HW2 8669   7.195   3.325  10.601 -1.3395 -1.7207  0.2166
 2410SOL     OW 8670   1.453   5.316   9.621  0.4394  0.2299  0.1190
 2410SOL    HW1 8671   1.487   5.374   9.553  1.2571  0.8866  1.0699
 2410SOL    HW2 8672   1.472   5.361   9.703  3.3456 -2.3860  1.1028
 2411SOL     OW 8673   3.726   2.536   4.985 -0.3132 -0.4838  0.4554
 2411SOL    HW1 8674   3.817   2.508   4.997 -0.1995 -0.0689  0.5703
 2411SOL    HW2 8675   3.724   2.626   5.018 -0.5139 -0.1128 -0.5383
 2412SOL     OW 8676   6.396   1.160   1.852 -0.2494  0.3066 -0.1702
 2412SOL    HW1 8677   6.351   1.090   1.805 -0.5920  0.3088  0.1488
 2412SOL    HW2 8678   6.476   1.119   1.885  0.5123  0.5690 -1.6192
 2413SOL     OW 8679   1.899   1.798   6.598  0.3538 -0.6648  0.0519
 2413SOL    HW1 8680   1.925   1.706   6.586 -1.2721 -1.5008  2.1480
 2413SOL    HW2 8681   1.946   1.826   6.677 -0.9896 -0.5310  0.8439
 2414SOL     OW 8682   6.545   5.568   4.772  0.4325 -0.2721  0.0965
 2414SOL    HW1 8683   6.457   5.597   4.750  0.4978  0.9229  1.2258
 2414SOL    HW2 8684   6.581   5.533   4.691 -1.3959 -1.6618 -0.1518
 2415SOL     OW 8685   6.302   2.716  10.258 -0.2863  0.6153 -0.4416
 2415SOL    HW1 8686   6.274   2.806  10.240  0.3687  1.1316  0.9232
 2415SOL    HW2 8687   6.392   2.725  10.289 -0.2570 -0.5001 -0.1619
 2416SOL     OW 8688   5.141   4.225   3.274 -0.3180  0.0483  0.9509
 2416SOL    HW1 8689   5.165   4.156   3.213  1.5974  0.2557  1.4003
 2416SOL    HW2 8690   5.046   4.221   3.279 -0.2527 -2.7117  1.1716
 2417SOL     OW 8691   0.370   5.004  10.537  0.4913  0.2126  0.6842
 2417SOL    HW1 8692   0.326   5.042  10.613  2.3308  1.4032  1.2243
 2417SOL    HW2 8693   0.444   4.955  10.573 -0.3370 -1.7603 -0.1889
 2418SOL     OW 8694   2.383   1.963   8.402  0.3978 -0.5345 -0.0261
 2418SOL    HW1 8695   2.448   2.031   8.386  0.4628 -0.5736  0.0679
 2418SOL    HW2 8696   2.305   1.992   8.354  0.7556 -0.9228 -0.8597
 2419SOL     OW 8697   7.720   2.554   5.100  0.2026 -0.4619 -0.4966
 2419SOL    HW1 8698   7.709   2.480   5.040 -1.6685 -0.3539 -0.3618
 2419SOL    HW2 8699   7.804   2.593   5.075  1.1257 -2.4594 -0.7321
 2420SOL     OW 8700   2.970   5.819   7.601  0.3940 -0.1030  0.8555
 2420SOL    HW1 8701   3.018   5.762   7.661  1.1535 -0.7537 -0.3261
 2420SOL    HW2 8702   2.909   5.761   7.556  0.5856  0.1702  0.2328
 2421SOL     OW 8703   2.414   6.318   4.303 -0.3793  0.0226  0.1454
 2421SOL    HW1 8704   2.493   6.354   4.264  0.8834 -0.8142  1.8286
 2421SOL    HW2 8705   2.370   6.394   4.341 -1.0759  0.6782 -1.8363
 2422SOL     OW 8706   5.549   5.012  12.319 -0.0924  0.4540 -0.2997
 2422SOL    HW1 8707   5.549   5.104  12.294  1.2144  0.8355  0.9260
 2422SOL    HW2 8708   5.623   5.004  12.380  1.6285 -1.9926 -2.4913
 2423SOL     OW 8709   7.066   5.304   9.868  0.0081  0.4039 -0.0493
 2423SOL    HW1 8710   7.040   5.251   9.793 -0.1236  0.6535 -0.1833
 2423SOL    HW2 8711   7.074   5.393   9.833  0.8407  0.3708  0.0373
 2424SOL     OW 8712   5.143   4.741   5.006 -0.2198 -0.4725 -0.3304
 2424SOL    HW1 8713   5.084   4.712   5.075 -0.9302 -0.4589 -0.9241
 2424SOL    HW2 8714   5.210   4.792   5.052 -1.6375  1.0325  0.1762
 2425SOL     OW 8715   7.286   0.735   9.149  0.7371 -0.6229  0.1687
 2425SOL    HW1 8716   7.214   0.691   9.104 -0.0018  0.6610  0.0404
 2425SOL    HW2 8717   7.357   0.670   9.151 -0.3613 -1.8668  0.1704
 2426SOL     OW 8718   2.567   3.671   5.411  0.1594 -0.6180  0.0704
 2426SOL    HW1 8719   2.563   3.717   5.495 -1.6350 -1.3165  0.4131
 2426SOL    HW2 8720   2.552   3.579   5.433  1.9677 -1.1493 -0.7951
 2427SOL     OW 8721   5.200   1.605   0.977  0.3004  1.0114  0.7406
 2427SOL    HW1 8722   5.195   1.665   0.902  2.2085  1.1606  0.6914
 2427SOL    HW2 8723   5.199   1.662   1.053 -2.3203  0.8329  0.9531
 2428SOL     OW 8724   2.618   6.224   0.536  0.1355 -0.3992 -0.3769
 2428SOL    HW1 8725   2.631   6.317   0.551 -1.0563 -0.6281  2.7552
 2428SOL    HW2 8726   2.542   6.201   0.589 -0.0033 -3.0530 -1.5476
 2429SOL     OW 8727   3.024   2.096   4.854  0.2144  0.0370 -0.6786
 2429SOL    HW1 8728   2.936   2.096   4.815  0.6277  2.7441 -1.8785
 2429SOL    HW2 8729   3.082   2.078   4.780  0.7579 -0.2714 -0.1837
 2430SOL     OW 8730   4.700   2.969   6.812  0.2032 -0.6781  0.2705
 2430SOL    HW1 8731   4.776   2.925   6.775  1.0458  0.8110  0.1265
 2430SOL    HW2 8732   4.680   3.039   6.749 -0.7255 -0.4840  0.7606
 2431SOL     OW 8733   2.537   2.911   4.164  0.4871 -0.1874  0.7611
 2431SOL    HW1 8734   2.572   2.825   4.139 -1.4323 -0.7778 -0.0289
 2431SOL    HW2 8735   2.609   2.952   4.213  1.5674 -2.0882  0.8787
 2432SOL     OW 8736   4.796   4.056   9.636  0.1415 -0.5342 -0.0669
 2432SOL    HW1 8737   4.804   4.145   9.671  1.4674 -0.4507 -0.5472
 2432SOL    HW2 8738   4.886   4.026   9.625 -0.2685 -1.3945 -1.2927
 2433SOL     OW 8739   4.301   2.072   6.032  0.0309  0.1688  0.0321
 2433SOL    HW1 8740   4.284   2.157   6.074  1.7387  1.1685 -1.1202
 2433SOL    HW2 8741   4.215   2.031   6.024 -0.6090  0.8733  2.4623
 2434SOL     OW 8742   2.234   7.936  12.428  0.5313  0.2511  0.4708
 2434SOL    HW1 8743   2.246   8.022  12.468  0.1022  0.5503 -0.0257
 2434SOL    HW2 8744   2.140   7.921  12.431  0.3574  0.7751 -1.4095
 2435SOL     OW 8745   6.095   7.975  12.125 -0.5553  0.1156 -0.2524
 2435SOL    HW1 8746   6.140   8.026  12.058  0.8242  0.3940  0.8591
 2435SOL    HW2 8747   6.140   7.890  12.125  0.3139  0.5403  1.1570
 2436SOL     OW 8748   2.431   2.412   9.412 -0.3236 -0.3726  0.3044
 2436SOL    HW1 8749   2.508   2.469   9.410 -1.0613  0.7484  1.6534
 2436SOL    HW2 8750   2.459   2.336   9.463  0.2774 -0.5859 -0.3383
 2437SOL     OW 8751   5.931   4.983   9.788  0.9404 -0.5258 -0.2646
 2437SOL    HW1 8752   5.874   4.916   9.827  0.2116  0.9668  1.3996
 2437SOL    HW2 8753   6.002   4.933   9.748  0.0848 -2.3260  0.3211
 2438SOL     OW 8754   4.114   7.285   1.571  0.0638 -0.0632 -0.3406
 2438SOL    HW1 8755   4.080   7.311   1.485 -1.3464  0.0513  0.2142
 2438SOL    HW2 8756   4.046   7.312   1.632 -0.1101 -2.3696  0.5850
 2439SOL     OW 8757   0.731   6.438   0.247 -0.1167 -0.3420  0.3219
 2439SOL    HW1 8758   0.758   6.499   0.315  0.7623  0.5240 -0.7686
 2439SOL    HW2 8759   0.707   6.494   0.173  1.8761 -1.3077 -1.1419
 2440SOL     OW 8760   0.887   3.734   2.663 -0.1348  0.1648 -0.2838
 2440SOL    HW1 8761   0.945   3.659   2.660 -0.8972 -0.4671  0.3019
 2440SOL    HW2 8762   0.854   3.742   2.573  0.8509  0.5436 -0.6225
 2441SOL     OW 8763   0.775   4.801   3.136 -0.3042 -0.5032 -0.0620
 2441SOL    HW1 8764   0.854   4.800   3.191 -0.7327 -0.7399  0.5672
 2441SOL    HW2 8765   0.705   4.826   3.197 -0.6924 -0.1637 -0.6440
 2442SOL     OW 8766   1.823   7.520  11.869  1.0436  0.0818 -0.2682
 2442SOL    HW1 8767   1.852   7.564  11.789 -0.7009 -0.2905 -1.1524
 2442SOL    HW2 8768   1.734   7.490  11.850  0.8717 -0.7358  1.5394
 2443SOL     OW 8769   5.560   4.676  11.373 -0.2208  0.1959 -0.4328
 2443SOL    HW1 8770   5.482   4.653  11.422 -0.9794  1.6429 -0.9065
 2443SOL    HW2 8771   5.621   4.708  11.440 -0.6859  0.7282 -0.2580
 2444SOL     OW 8772   5.741   6.964   3.772  0.2751  0.2274  0.0783
 2444SOL    HW1 8773   5.830   6.990   3.750  0.3889 -0.4994 -0.3261
 2444SOL    HW2 8774   5.743   6.869   3.775 -0.7723  0.1473 -1.1384
 2445SOL     OW 8775   5.304   4.619   7.371  0.7014  0.0281 -0.2036
 2445SOL    HW1 8776   5.388   4.642   7.330  0.5929  4.4250  1.4271
 2445SOL    HW2 8777   5.243   4.610   7.299  1.7381  1.3997 -1.3203
 2446SOL     OW 8778   1.593   4.125   1.814 -0.0587  0.4835  0.1342
 2446SOL    HW1 8779   1.582   4.087   1.901 -0.3434  0.6624  0.1790
 2446SOL    HW2 8780   1.513   4.102   1.767  0.5237 -0.4645 -0.4087
 2447SOL     OW 8781   5.855   2.895   6.619  0.0975  0.3207 -0.4463
 2447SOL    HW1 8782   5.760   2.899   6.610  0.0716 -1.0733 -0.8965
 2447SOL    HW2 8783   5.880   2.986   6.640 -1.6676  0.1693  3.2600
 2448SOL     OW 8784   4.936   3.348   4.293 -0.0464 -0.1566 -0.4172
 2448SOL    HW1 8785   4.929   3.253   4.294 -1.2788 -0.0961 -1.4951
 2448SOL    HW2 8786   4.874   3.377   4.361  0.9975 -0.1326  0.5539
 2449SOL     OW 8787   2.705   6.170   2.307 -0.3625 -0.6549  0.4571
 2449SOL    HW1 8788   2.761   6.102   2.270  0.2676 -0.0798  0.3305
 2449SOL    HW2 8789   2.725   6.169   2.401  0.4784  0.0982  0.2973
 2450SOL     OW 8790   7.446   0.929   5.336  0.4231  0.3350 -0.6610
 2450SOL    HW1 8791   7.514   0.944   5.270  0.0215  0.4220 -1.0651
 2450SOL    HW2 8792   7.463   0.841   5.369 -0.0202 -0.1459 -1.6754
 2451SOL     OW 8793   7.081   5.564   9.741 -0.5871  0.2919  0.2056
 2451SOL    HW1 8794   7.174   5.573   9.721 -0.2585  0.1257  1.5491
 2451SOL    HW2 8795   7.037   5.582   9.658  0.6152  0.8975 -0.3353
 2452SOL     OW 8796   0.249   1.301   2.324 -0.1106  0.6552  0.0688
 2452SOL    HW1 8797   0.234   1.387   2.284 -1.1370  0.3463 -0.2509
 2452SOL    HW2 8798   0.181   1.245   2.286  0.3665 -0.2301  0.4886
 2453SOL     OW 8799   5.658   2.954   1.769 -0.0591 -0.3000  0.5293
 2453SOL    HW1 8800   5.697   2.876   1.730  0.7326 -0.1444  0.9912
 2453SOL    HW2 8801   5.728   3.019   1.770 -0.3294  0.0000  1.3401
 2454SOL     OW 8802   5.544   0.636   6.529  0.0646 -0.2855 -0.3693
 2454SOL    HW1 8803   5.522   0.726   6.505 -1.1585 -0.3426  0.4311
 2454SOL    HW2 8804   5.612   0.645   6.595  0.2854  0.0334 -0.6358
 2455SOL     OW 8805   5.688   5.353   0.728  0.0533  0.4943 -0.1031
 2455SOL    HW1 8806   5.682   5.377   0.821  1.7178 -3.5515  1.2713
 2455SOL    HW2 8807   5.780   5.329   0.716 -0.9769 -3.5800 -1.3721
 2456SOL     OW 8808   4.057   4.971  12.065 -0.6925  0.0810  0.1742
 2456SOL    HW1 8809   4.116   4.980  12.140 -1.7430 -0.3218  1.0721
 2456SOL    HW2 8810   4.104   5.013  11.993  0.0485  1.1072  1.2140
 2457SOL     OW 8811   0.750   4.076  10.529 -0.1089 -0.1939 -0.1088
 2457SOL    HW1 8812   0.757   4.051  10.621  0.5489 -3.0493 -0.8446
 2457SOL    HW2 8813   0.823   4.032  10.486  0.6992  2.5241 -1.7972
 2458SOL     OW 8814   7.593   3.463   5.326 -0.2721 -0.5716  0.3971
 2458SOL    HW1 8815   7.552   3.464   5.240  1.6689  0.4078 -0.5549
 2458SOL    HW2 8816   7.641   3.381   5.329 -0.5177 -0.7107  0.6619
 2459SOL     OW 8817   4.931   0.396   1.580  0.3280 -0.7481  0.0054
 2459SOL    HW1 8818   5.020   0.429   1.589  0.7475 -1.3216 -1.5789
 2459SOL    HW2 8819   4.928   0.361   1.490 -1.6825 -0.1416 -0.2060
 2460SOL     OW 8820   2.447   3.256  11.924 -0.6366 -0.0643  0.4330
 2460SOL    HW1 8821   2.363   3.225  11.889 -0.1977  0.8198 -1.5275
 2460SOL    HW2 8822   2.447   3.227  12.016 -3.1392  0.0554  0.5300
 2461SOL     OW 8823   6.895   0.093   8.836  0.1893  0.1315  0.0536
 2461SOL    HW1 8824   6.929   0.149   8.766  0.3451  0.5002  0.4195
 2461SOL    HW2 8825   6.857   0.018   8.790 -1.4888  1.2914 -0.5756
 2462SOL     OW 8826   3.134   6.872   0.554  0.7171 -0.1279  0.2844
 2462SOL    HW1 8827   3.229   6.868   0.542  0.7122 -0.3146  0.3071
 2462SOL    HW2 8828   3.111   6.962   0.533  1.1703  0.4935  2.2922
 2463SOL     OW 8829   7.144   7.271   3.881  0.4938  0.3285  0.1685
 2463SOL    HW1 8830   7.076   7.207   3.862 -0.7502  1.1587  1.6301
 2463SOL    HW2 8831   7.198   7.230   3.948 -0.3818  0.8423  1.2003
 2464SOL     OW 8832   5.702   3.340   5.265  0.3406  0.0760 -0.1276
 2464SOL    HW1 8833   5.743   3.361   5.348  0.2299 -0.0877 -0.0306
 2464SOL    HW2 8834   5.659   3.421   5.238 -0.9552 -0.2873  0.7447
 2465SOL     OW 8835   4.472   2.278   3.174  0.4475 -0.0808  0.4752
 2465SOL    HW1 8836   4.386   2.313   3.151  0.3052 -0.8548 -0.2528
 2465SOL    HW2 8837   4.534   2.331   3.124  0.2228 -0.9050 -0.7475
 2466SOL     OW 8838   6.167   4.461   1.452 -0.2843  0.2120 -0.7384
 2466SOL    HW1 8839   6.152   4.378   1.406 -2.6147  0.0547  0.1563
 2466SOL    HW2 8840   6.146   4.441   1.544  1.1062  1.3093 -0.1625
 2467SOL     OW 8841   1.074   6.972   7.753 -0.6486 -0.2413  0.6346
 2467SOL    HW1 8842   1.078   6.947   7.661  0.5551 -0.9899  0.8680
 2467SOL    HW2 8843   0.988   6.943   7.783  0.1100 -2.8232  0.5059
 2468SOL     OW 8844   6.596   5.886  11.152 -0.4622 -0.2449  0.3864
 2468SOL    HW1 8845   6.568   5.953  11.090  0.4465 -1.8994 -1.9761
 2468SOL    HW2 8846   6.683   5.916  11.181 -0.3362 -0.0594 -0.1572
 2469SOL     OW 8847   6.168   1.611   7.323 -0.0495 -0.0838 -0.0426
 2469SOL    HW1 8848   6.188   1.526   7.283  2.0586  0.4250 -0.2186
 2469SOL    HW2 8849   6.235   1.670   7.288 -1.0871  1.5244  0.5490
 2470SOL     OW 8850   0.195   1.169   7.251  0.5933  0.7203 -0.0950
 2470SOL    HW1 8851   0.122   1.149   7.193  1.4801  2.2326 -1.8692
 2470SOL    HW2 8852   0.167   1.248   7.298  0.6032  0.5989  0.1122
 2471SOL     OW 8853   2.154   4.128   6.926 -0.5348  0.4103 -0.0299
 2471SOL    HW1 8854   2.190   4.146   6.839  0.0786 -1.0504 -0.1172
 2471SOL    HW2 8855   2.066   4.166   6.925 -0.6591  0.1190 -1.4011
 2472SOL     OW 8856   0.630   2.162   3.667 -0.3337  0.6042  0.0077
 2472SOL    HW1 8857   0.632   2.081   3.615 -1.0224  0.2413  0.5216
 2472SOL    HW2 8858   0.609   2.231   3.604  1.9224  0.6689 -0.7519
 2473SOL     OW 8859   4.372   0.170   0.655  0.4397  0.0074 -0.5555
 2473SOL    HW1 8860   4.314   0.173   0.731 -1.5067 -0.2495 -1.9389
 2473SOL    HW2 8861   4.389   0.076   0.642  2.0227  0.1266  0.4052
 2474SOL     OW 8862   1.990   5.037   6.400  0.1370  0.1242  0.5663
 2474SOL    HW1 8863   1.950   5.121   6.377 -1.6183 -0.5019  1.1960
 2474SOL    HW2 8864   2.084   5.050   6.383 -0.4363  1.2124 -2.1897
 2475SOL     OW 8865   1.846   0.021   7.033  0.2649  0.6368 -0.3984
 2475SOL    HW1 8866   1.887  -0.065   7.044  0.1782  0.7637  1.2089
 2475SOL    HW2 8867   1.767   0.004   6.981 -0.2140 -0.4283  0.6304
 2476SOL     OW 8868   3.987   4.888   1.595 -0.1792  0.0826 -0.0499
 2476SOL    HW1 8869   3.971   4.836   1.674  0.9615  0.8795  0.7379
 2476SOL    HW2 8870   3.906   4.936   1.580 -0.2600  0.2516  0.8974
 2477SOL     OW 8871   1.763   7.860   5.632  0.3083  0.7083 -0.0648
 2477SOL    HW1 8872   1.776   7.917   5.556  0.2556  2.0198  0.8730
 2477SOL    HW2 8873   1.669   7.844   5.634  0.3694  0.2392 -0.5549
 2478SOL     OW 8874   7.920   4.906   7.165  0.3265 -0.0225 -0.1450
 2478SOL    HW1 8875   7.863   4.957   7.222  0.9086  0.6797 -0.1833
 2478SOL    HW2 8876   8.008   4.929   7.191  0.6175 -1.2379  0.0358
 2479SOL     OW 8877   3.510   1.817  11.866 -0.1334 -0.1121 -0.0058
 2479SOL    HW1 8878   3.544   1.736  11.826  0.7677 -0.2538  1.0078
 2479SOL    HW2 8879   3.523   1.883  11.798  0.1846 -0.5893 -0.4240
 2480SOL     OW 8880   5.950   3.291   5.109  0.0748 -0.5551 -0.0395
 2480SOL    HW1 8881   5.859   3.269   5.130  0.2157 -1.7961 -0.6619
 2480SOL    HW2 8882   5.942   3.351   5.034 -0.2720  0.8741  1.0866
 2481SOL     OW 8883   4.350   1.715  11.636 -0.1099  0.4115  0.3533
 2481SOL    HW1 8884   4.373   1.751  11.722  3.5456  0.1619 -0.3523
 2481SOL    HW2 8885   4.333   1.792  11.582  1.3091  0.8178  0.4392
 2482SOL     OW 8886   4.787   7.665  11.970 -0.1057  0.0609  0.1843
 2482SOL    HW1 8887   4.808   7.574  11.990  1.8995  0.5279  0.3302
 2482SOL    HW2 8888   4.861   7.697  11.919 -0.6379  1.6939  0.3691
 2483SOL     OW 8889   4.451   6.689   9.008  0.3034 -0.4416  0.2873
 2483SOL    HW1 8890   4.459   6.624   8.939  2.1705  0.5034 -0.4606
 2483SOL    HW2 8891   4.541   6.705   9.037  0.0395  2.3312 -0.1181
 2484SOL     OW 8892   3.914   6.974   0.650 -0.4177  0.0117  0.2043
 2484SOL    HW1 8893   3.923   6.879   0.648 -1.1916 -0.0854  1.0575
 2484SOL    HW2 8894   3.860   6.995   0.573  0.6812 -0.1121 -0.6303
 2485SOL     OW 8895   2.895   7.459   4.335  0.2323  0.0624 -0.1855
 2485SOL    HW1 8896   2.846   7.533   4.299  1.4995  0.9119 -0.2297
 2485SOL    HW2 8897   2.943   7.495   4.410  0.8063 -0.7224 -0.1539
 2486SOL     OW 8898   1.757   0.572   2.887 -0.1401  0.1509  0.4856
 2486SOL    HW1 8899   1.783   0.545   2.975  0.4860 -0.1000  0.2268
 2486SOL    HW2 8900   1.748   0.490   2.838 -2.1666  0.1531  0.7490
 2487SOL     OW 8901   2.612   0.151   8.667 -0.0074 -0.3169 -0.1119
 2487SOL    HW1 8902   2.530   0.167   8.712 -0.1034 -1.2201  0.0647
 2487SOL    HW2 8903   2.627   0.057   8.677  0.9925 -0.1861 -0.2275
 2488SOL     OW 8904   5.445   6.993  10.664 -0.1926 -0.3287  0.0716
 2488SOL    HW1 8905   5.370   6.938  10.684 -0.0447 -0.4551  0.2763
 2488SOL    HW2 8906   5.463   6.976  10.571 -0.4110 -0.3022  0.0242
 2489SOL     OW 8907   7.959   1.602   9.386  0.0599 -0.0506  0.2703
 2489SOL    HW1 8908   8.013   1.618   9.308 -1.5254 -1.3117 -1.1644
 2489SOL    HW2 8909   7.990   1.517   9.420  0.4393  0.2787  0.7648
 2490SOL     OW 8910   5.706   3.160   3.966  0.4825  0.0176 -0.3205
 2490SOL    HW1 8911   5.737   3.149   3.876  1.1906 -0.8768  0.0180
 2490SOL    HW2 8912   5.616   3.193   3.956  1.3204  2.1572 -1.3185
 2491SOL     OW 8913   6.261   6.965  10.490 -0.0437 -0.1427 -0.0921
 2491SOL    HW1 8914   6.280   6.876  10.521 -0.6051  0.2722  1.5552
 2491SOL    HW2 8915   6.238   6.954  10.398 -1.1881 -1.8786  0.3422
 2492SOL     OW 8916   6.213   2.130   6.322 -0.2420  0.1609  0.0192
 2492SOL    HW1 8917   6.202   2.157   6.231 -1.4481  1.4283  0.4951
 2492SOL    HW2 8918   6.243   2.209   6.367  0.7203 -0.5544  0.6576
 2493SOL     OW 8919   4.400   2.040  10.377 -0.3340 -0.4526  0.0747
 2493SOL    HW1 8920   4.336   1.991  10.427 -0.7495 -0.9840 -0.9593
 2493SOL    HW2 8921   4.369   2.131  10.380 -1.7899 -0.8671 -1.3716
 2494SOL     OW 8922   6.935   3.863   9.448  0.4179  0.0357  0.5131
 2494SOL    HW1 8923   6.954   3.787   9.501 -0.5170 -0.8300 -0.3311
 2494SOL    HW2 8924   6.858   3.903   9.489  0.3903  0.0255  0.4721
 2495SOL     OW 8925   2.655   6.566   6.245 -0.1328 -0.5239  0.4251
 2495SOL    HW1 8926   2.602   6.610   6.311 -1.1469 -1.6348  0.3834
 2495SOL    HW2 8927   2.621   6.598   6.162  1.7850  1.6319  0.3554
 2496SOL     OW 8928   5.178   5.356   4.648  0.2885 -0.0485  0.0315
 2496SOL    HW1 8929   5.148   5.438   4.687 -0.1174 -0.3233  0.3010
 2496SOL    HW2 8930   5.190   5.376   4.556 -0.2408  0.1989  0.0147
 2497SOL     OW 8931   2.492   2.954  11.103  0.1271 -0.0220  0.3290
 2497SOL    HW1 8932   2.440   3.025  11.140 -1.9421 -1.5672  0.6003
 2497SOL    HW2 8933   2.430   2.904  11.049  1.4296 -1.7381  0.3260
 2498SOL     OW 8934   0.905   6.832   6.021  0.1817  0.1409 -0.3182
 2498SOL    HW1 8935   0.905   6.742   5.987  1.6058  0.1268 -0.3291
 2498SOL    HW2 8936   0.824   6.870   5.986 -0.3551 -1.0749 -0.4619
 2499SOL     OW 8937   2.263   2.300   2.903 -0.2881 -0.0490 -0.3730
 2499SOL    HW1 8938   2.201   2.230   2.883 -1.6102  1.5394 -2.3205
 2499SOL    HW2 8939   2.281   2.341   2.819  1.8384  0.8682  0.4547
 2500SOL     OW 8940   5.345   7.881   6.487 -0.0057 -0.0167  0.3372
 2500SOL    HW1 8941   5.303   7.953   6.441 -1.1677  0.2540  1.7395
 2500SOL    HW2 8942   5.362   7.815   6.420 -0.0998  1.0371 -0.7368
 2501SOL     OW 8943   3.631   1.525   9.651  0.5165 -0.2655 -0.2402
 2501SOL    HW1 8944   3.725   1.526   9.629  0.4350  0.5572 -0.5726
 2501SOL    HW2 8945   3.591   1.476   9.579  0.8076 -1.5073  0.4219
 2502SOL     OW 8946   3.870   1.944   3.887 -0.0984 -0.0372  0.3160
 2502SOL    HW1 8947   3.939   1.878   3.893  1.4104  1.3946 -0.4733
 2502SOL    HW2 8948   3.876   1.994   3.968  1.2111  1.3787 -0.6140
 2503SOL     OW 8949   1.174   5.853  10.123 -0.4441 -0.8021  0.7376
 2503SOL    HW1 8950   1.094   5.823  10.079 -0.0480 -1.3164  0.3450
 2503SOL    HW2 8951   1.162   5.830  10.215 -1.7403  1.2393  1.1333
 2504SOL     OW 8952   2.965   3.439   0.643 -0.0578  0.7922  0.1028
 2504SOL    HW1 8953   3.022   3.499   0.595  0.7374 -0.9924 -1.3060
 2504SOL    HW2 8954   3.019   3.408   0.716 -0.5780  1.9624  1.0239
 2505SOL     OW 8955   0.517   0.539   6.363 -0.1192 -0.6132  0.5829
 2505SOL    HW1 8956   0.433   0.581   6.345  0.2828  0.4612  1.0918
 2505SOL    HW2 8957   0.575   0.571   6.293  0.3454  0.1786  1.3134
 2506SOL     OW 8958   0.026   6.720   7.568 -0.7144  0.4667 -0.2721
 2506SOL    HW1 8959   0.073   6.658   7.624 -1.1943 -0.6724 -1.0749
 2506SOL    HW2 8960   0.073   6.802   7.578 -0.3501  0.1140  1.2138
 2507SOL     OW 8961   6.106   7.024   6.587  0.3587 -0.1321 -0.1767
 2507SOL    HW1 8962   6.128   6.957   6.651  1.1663 -0.6847 -0.9965
 2507SOL    HW2 8963   6.143   6.991   6.505 -0.2992  0.7393 -0.8452
 2508SOL     OW 8964   5.304   7.589   8.090 -0.3261  0.2713 -0.2753
 2508SOL    HW1 8965   5.342   7.668   8.128  0.1662  0.4618 -1.1237
 2508SOL    HW2 8966   5.308   7.605   7.995  0.2181 -0.9692 -0.4706
 2509SOL     OW 8967   2.410   4.919   4.122 -0.3993  0.5017  0.6414
 2509SOL    HW1 8968   2.474   4.988   4.135 -0.7899  0.6966  1.6373
 2509SOL    HW2 8969   2.456   4.838   4.146  0.1739  0.3396 -0.8838
 2510SOL     OW 8970   2.937   3.935  11.074  0.3537 -0.2080 -0.0349
 2510SOL    HW1 8971   2.931   4.013  11.021 -0.0249 -0.9409 -1.0988
 2510SOL    HW2 8972   2.846   3.912  11.094  0.4628 -0.3705  0.2843
 2511SOL     OW 8973   7.765   1.643   6.968  0.0541  0.3717  0.1890
 2511SOL    HW1 8974   7.850   1.685   6.951 -0.3479  1.4333  0.7169
 2511SOL    HW2 8975   7.701   1.711   6.947 -0.7418 -0.8291 -1.4474
 2512SOL     OW 8976   3.366   0.610  11.340  0.0708  0.1622 -0.1683
 2512SOL    HW1 8977   3.354   0.687  11.283  1.5334 -1.5783 -3.0816
 2512SOL    HW2 8978   3.343   0.536  11.284 -1.7724 -1.6106  2.6778
 2513SOL     OW 8979   0.912   4.718  11.051  0.5786 -0.0626  0.1961
 2513SOL    HW1 8980   0.877   4.669  11.126 -1.3462 -1.1915 -1.3375
 2513SOL    HW2 8981   0.999   4.746  11.079 -0.4033  0.3531  3.1639
 2514SOL     OW 8982   5.868   1.245  11.388 -0.4864  0.3505 -0.3738
 2514SOL    HW1 8983   5.898   1.324  11.343 -1.7797  1.8862  1.3113
 2514SOL    HW2 8984   5.787   1.222  11.343 -1.1998  1.2332  0.4319
 2515SOL     OW 8985   1.229   1.426   9.602  0.5325  0.0005 -0.0450
 2515SOL    HW1 8986   1.241   1.331   9.594  0.6787  0.0578 -0.5989
 2515SOL    HW2 8987   1.220   1.456   9.511 -2.2590  0.1767  0.2105
 2516SOL     OW 8988   4.227   1.486   2.332 -0.0865  0.3957  0.6905
 2516SOL    HW1 8989   4.311   1.463   2.371  0.7607  1.0423 -0.6524
 2516SOL    HW2 8990   4.233   1.455   2.242 -0.4975  2.1568  0.0120
 2517SOL     OW 8991   2.071   0.194   2.147  0.2398 -0.3169  0.0346
 2517SOL    HW1 8992   2.075   0.247   2.067 -0.2462 -2.8270 -1.7692
 2517SOL    HW2 8993   2.160   0.162   2.160  0.6919  1.3724  1.5272
 2518SOL     OW 8994   2.009   2.347   3.887 -0.2707  0.0287 -0.0861
 2518SOL    HW1 8995   1.988   2.256   3.912 -2.4547  0.6954  0.7485
 2518SOL    HW2 8996   1.943   2.400   3.932 -0.5532  1.8511 -2.4328
 2519SOL     OW 8997   7.046   1.865  10.026  0.3802 -0.0595 -0.3385
 2519SOL    HW1 8998   7.092   1.831  10.103  0.1405 -1.7023 -0.8742
 2519SOL    HW2 8999   7.059   1.798   9.959 -1.1061  0.3825 -1.1113
 2520SOL     OW 9000   4.000   4.750  11.205 -0.5646  0.2088 -0.3139
 2520SOL    HW1 9001   3.953   4.782  11.128 -0.4116  0.2849 -0.3773
 2520SOL    HW2 9002   3.968   4.660  11.217 -0.0629 -0.0544 -0.8944
 2521SOL     OW 9003   6.933   1.691   0.103  0.6221  0.0403  0.5484
 2521SOL    HW1 9004   6.879   1.770   0.106  0.5153 -0.0382  0.7167
 2521SOL    HW2 9005   6.870   1.620   0.089  0.7825  0.0558 -0.3013
 2522SOL     OW 9006   2.149   2.383   4.816  0.2476  0.7924  0.2699
 2522SOL    HW1 9007   2.054   2.390   4.815  0.0810 -0.8859 -0.9832
 2522SOL    HW2 9008   2.170   2.327   4.741  2.2555  1.4225  0.2965
 2523SOL     OW 9009   6.778   5.627   7.036  0.5835 -0.1329 -0.4006
 2523SOL    HW1 9010   6.752   5.578   7.114  0.5118 -0.2798 -0.5166
 2523SOL    HW2 9011   6.697   5.668   7.005  0.6353  0.0254 -0.3287
 2524SOL     OW 9012   2.457   2.254   1.717 -0.0007  0.4111  0.6813
 2524SOL    HW1 9013   2.522   2.311   1.757  2.2714 -1.4352 -0.1132
 2524SOL    HW2 9014   2.485   2.165   1.740 -2.7907 -0.4986  1.0405
 2525SOL     OW 9015   0.580   6.444   9.944 -0.2602  0.7042 -0.3500
 2525SOL    HW1 9016   0.540   6.510   9.887 -0.1364  0.5061 -0.6699
 2525SOL    HW2 9017   0.545   6.463  10.031 -0.4369  1.0223 -0.4870
 2526SOL     OW 9018   1.302   1.339   2.283 -0.4244  0.7487  0.2883
 2526SOL    HW1 9019   1.394   1.330   2.261 -0.6257  1.4632 -0.8963
 2526SOL    HW2 9020   1.257   1.274   2.229 -0.6677  0.7074  0.5329
 2527SOL     OW 9021   5.105   2.991   3.609  0.2074  0.7278  0.2303
 2527SOL    HW1 9022   5.052   3.059   3.567  0.6674  1.2766  0.5176
 2527SOL    HW2 9023   5.192   3.002   3.570 -0.3156 -1.4829 -1.7556
 2528SOL     OW 9024   2.689   2.897   5.506 -0.0994 -0.3967  0.0199
 2528SOL    HW1 9025   2.780   2.866   5.505 -0.3920 -1.3028  0.1314
 2528SOL    HW2 9026   2.675   2.935   5.420 -0.1990 -2.0631 -0.7396
 2529SOL     OW 9027   2.902   1.596   6.295 -0.1028 -0.0735  0.0301
 2529SOL    HW1 9028   2.972   1.658   6.273 -0.4496  0.2417 -0.2264
 2529SOL    HW2 9029   2.824   1.634   6.253 -0.2418 -0.9002 -0.4806
 2530SOL     OW 9030   5.882   4.141  11.876  0.4712  0.2408  0.2095
 2530SOL    HW1 9031   5.958   4.161  11.821  0.5289 -1.8774 -0.5746
 2530SOL    HW2 9032   5.900   4.053  11.909 -0.2841  0.8453  2.4465
 2531SOL     OW 9033   5.084   3.501   3.448  0.1232 -0.2262 -0.2192
 2531SOL    HW1 9034   5.124   3.562   3.385 -0.5514  0.0305 -0.4074
 2531SOL    HW2 9035   5.031   3.557   3.505 -1.2469 -0.7192 -0.9665
 2532SOL     OW 9036   4.675   0.185   0.050  0.4443 -0.2985  0.1485
 2532SOL    HW1 9037   4.745   0.161  -0.011  0.2980  0.3619 -0.2835
 2532SOL    HW2 9038   4.721   0.225   0.124  0.6916 -1.8236  0.8690
 2533SOL     OW 9039   0.435   0.033  10.648  0.4807  0.0880  0.2297
 2533SOL    HW1 9040   0.485  -0.014  10.715 -0.9247 -0.2292  1.1013
 2533SOL    HW2 9041   0.348   0.045  10.687 -0.1777  0.4765 -1.2868
 2534SOL     OW 9042   5.425   7.719   7.235 -0.3641 -0.2404  0.0474
 2534SOL    HW1 9043   5.480   7.641   7.235  2.2216  1.4239  2.1092
 2534SOL    HW2 9044   5.466   7.777   7.171 -2.2399 -0.4218 -1.4374
 2535SOL     OW 9045   6.432   0.027   6.723  0.0004  0.1642 -0.7045
 2535SOL    HW1 9046   6.371   0.086   6.767 -0.2046 -0.6110  0.0625
 2535SOL    HW2 9047   6.385  -0.002   6.645 -0.6932 -0.5528 -0.0353
 2536SOL     OW 9048   6.552   0.104   1.443  0.6100 -0.3528  0.1985
 2536SOL    HW1 9049   6.594   0.029   1.400 -2.0154 -1.2966 -0.8905
 2536SOL    HW2 9050   6.516   0.068   1.524  0.3674  0.0131  0.2568
 2537SOL     OW 9051   7.959   7.834   2.193 -0.0705  0.0320  0.5466
 2537SOL    HW1 9052   7.902   7.911   2.199  0.7652  0.9686 -2.1965
 2537SOL    HW2 9053   7.903   7.761   2.220 -2.5131  0.9706 -1.5260
 2538SOL     OW 9054   0.545   4.628   9.658 -0.1308  0.5149  0.8678
 2538SOL    HW1 9055   0.495   4.617   9.739 -1.0519  2.4155  0.6087
 2538SOL    HW2 9056   0.623   4.574   9.671 -0.3091  0.6663  2.9860
 2539SOL     OW 9057   3.291   2.529   8.492 -0.1241 -0.2389 -0.1516
 2539SOL    HW1 9058   3.245   2.612   8.480  2.0576  1.1898  0.7115
 2539SOL    HW2 9059   3.323   2.532   8.583 -0.2699 -2.1860  0.0056
 2540SOL     OW 9060   0.769   2.240   9.706  0.2164 -0.3267  0.0129
 2540SOL    HW1 9061   0.829   2.260   9.778 -2.4075 -0.2281  2.3422
 2540SOL    HW2 9062   0.788   2.150   9.683  1.2374 -0.3052  0.7045
 2541SOL     OW 9063   3.818   6.294  10.474  0.0499 -0.5946 -0.0929
 2541SOL    HW1 9064   3.846   6.382  10.499 -0.2183 -0.8050  0.9731
 2541SOL    HW2 9065   3.891   6.261  10.421  0.3306  0.1104 -0.1662
 2542SOL     OW 9066   1.192   0.768   1.067 -0.2631  0.2424  0.4209
 2542SOL    HW1 9067   1.196   0.794   1.159 -0.1998  0.8619  0.2468
 2542SOL    HW2 9068   1.269   0.808   1.027  0.0626 -0.5538  0.2229
 2543SOL     OW 9069   6.253   7.847   4.038 -0.3450 -0.3421 -0.8602
 2543SOL    HW1 9070   6.295   7.766   4.067 -1.3321 -0.9567 -1.0691
 2543SOL    HW2 9071   6.231   7.893   4.119  0.5736 -0.0901 -0.7499
 2544SOL     OW 9072   5.815   0.360   3.891 -0.2144  0.2161 -0.2488
 2544SOL    HW1 9073   5.889   0.371   3.831  1.3064 -0.0694  1.4589
 2544SOL    HW2 9074   5.825   0.272   3.925 -1.3820  0.1671  0.0057
 2545SOL     OW 9075   7.227   0.596   6.916 -0.2750 -0.0878 -0.4259
 2545SOL    HW1 9076   7.274   0.642   6.986  0.3423  2.4140 -2.3529
 2545SOL    HW2 9077   7.282   0.521   6.895  0.4030  0.1076  0.5885
 2546SOL     OW 9078   5.327   4.537   9.245 -0.7980 -0.1736  0.1084
 2546SOL    HW1 9079   5.352   4.490   9.165  0.3208  0.2080  0.2178
 2546SOL    HW2 9080   5.311   4.627   9.216 -0.2087  0.0085  0.3396
 2547SOL     OW 9081   6.544   1.046   6.540  0.1309  0.1691 -0.1713
 2547SOL    HW1 9082   6.627   1.019   6.579 -0.1883 -1.0501 -0.3202
 2547SOL    HW2 9083   6.552   1.142   6.532 -0.0027  0.5964  3.3657
 2548SOL     OW 9084   7.673   7.459   4.275  0.3226  0.5547  0.6219
 2548SOL    HW1 9085   7.660   7.416   4.360  1.2044 -0.0233  0.4847
 2548SOL    HW2 9086   7.754   7.508   4.286  1.9489 -1.6337 -0.6480
 2549SOL     OW 9087   4.911   1.433   3.710 -0.2830  0.4013  0.3117
 2549SOL    HW1 9088   4.899   1.449   3.617 -1.1251 -1.0148  0.1369
 2549SOL    HW2 9089   4.839   1.480   3.752 -0.2923  0.4997  0.1864
 2550SOL     OW 9090   4.997   5.706   2.888  0.2799 -0.3937 -0.6153
 2550SOL    HW1 9091   5.040   5.621   2.886  0.9849 -0.1006  0.6452
 2550SOL    HW2 9092   4.960   5.712   2.976  0.1478  0.5516 -0.7269
 2551SOL     OW 9093   6.807   1.900   3.121  0.5147 -0.0969  0.7393
 2551SOL    HW1 9094   6.805   1.974   3.182  1.4243  0.1491  0.4923
 2551SOL    HW2 9095   6.740   1.920   3.056  1.7761  1.2864 -0.1876
 2552SOL     OW 9096   4.091   6.130  11.932 -0.0603  0.2244 -0.1503
 2552SOL    HW1 9097   4.003   6.165  11.950 -0.0177  0.1482  0.2129
 2552SOL    HW2 9098   4.130   6.117  12.019 -0.1492 -0.9265 -0.2653
 2553SOL     OW 9099   5.539   4.263  10.001  0.0889 -0.4315  0.0596
 2553SOL    HW1 9100   5.524   4.250  10.094 -1.7662  0.5227 -0.0563
 2553SOL    HW2 9101   5.633   4.283   9.994  0.1844 -0.1827  1.7430
 2554SOL     OW 9102   0.689   6.441  11.280 -0.0904 -0.1057  0.1805
 2554SOL    HW1 9103   0.611   6.496  11.273 -0.4587 -0.4681  1.2066
 2554SOL    HW2 9104   0.668   6.379  11.350  0.9965 -0.4217  0.2432
 2555SOL     OW 9105   1.623   2.996  12.377  0.0362  0.3180 -0.3393
 2555SOL    HW1 9106   1.611   3.070  12.436  0.2165  0.3570 -0.3528
 2555SOL    HW2 9107   1.535   2.978  12.344 -0.1612 -0.0874  0.3996
 2556SOL     OW 9108   3.318   6.019   3.119 -0.0568 -0.2419  0.4694
 2556SOL    HW1 9109   3.400   6.023   3.070  1.8348 -0.6737  3.3284
 2556SOL    HW2 9110   3.333   5.952   3.185 -3.2961 -1.3253  0.2736
 2557SOL     OW 9111   6.933   3.996  11.775  0.0802 -0.3354  0.6000
 2557SOL    HW1 9112   6.960   4.041  11.855 -1.5415  0.7472  0.5878
 2557SOL    HW2 9113   7.014   3.985  11.725  1.0178 -0.4427  2.0819
 2558SOL     OW 9114   7.727   4.316  11.978 -0.2693 -0.1898 -0.2259
 2558SOL    HW1 9115   7.745   4.228  12.011  0.7228 -0.0402 -0.3331
 2558SOL    HW2 9116   7.704   4.302  11.886 -1.6007 -0.4707  0.1391
 2559SOL     OW 9117   7.764   0.832   5.775 -0.0595  0.5236 -0.1078
 2559SOL    HW1 9118   7.753   0.747   5.818  0.4102 -0.3045 -1.5553
 2559SOL    HW2 9119   7.858   0.844   5.769 -0.1155  1.6786  1.0407
 2560SOL     OW 9120   5.976   6.081   2.479  0.2593  0.1246 -0.1835
 2560SOL    HW1 9121   6.059   6.128   2.486  1.0734 -1.2197 -0.5110
 2560SOL    HW2 9122   5.913   6.139   2.522  1.2131  1.4885 -0.5170
 2561SOL     OW 9123   4.534   5.628   5.293  0.3554 -0.3011 -0.5651
 2561SOL    HW1 9124   4.560   5.627   5.385 -0.0762  0.9048 -0.4032
 2561SOL    HW2 9125   4.440   5.650   5.295  0.6654  1.2657 -1.3182
 2562SOL     OW 9126   7.679   6.946   4.043  0.0898 -0.3457  0.0762
 2562SOL    HW1 9127   7.705   6.923   3.954  1.4661  1.3805 -0.0283
 2562SOL    HW2 9128   7.721   7.031   4.059 -0.4548 -0.4261  2.2310
 2563SOL     OW 9129   4.570   0.537   1.774 -0.2928  0.1854  0.5205
 2563SOL    HW1 9130   4.542   0.454   1.812 -0.5909 -0.6493 -1.4024
 2563SOL    HW2 9131   4.504   0.556   1.707  1.9059 -0.1327 -1.8807
 2564SOL     OW 9132   1.992   4.446   8.773  0.0203 -0.0487  0.2005
 2564SOL    HW1 9133   2.015   4.493   8.693  0.7657  0.5582  0.7629
 2564SOL    HW2 9134   2.075   4.436   8.820 -0.4388 -0.2217  0.9916
 2565SOL     OW 9135   6.831   7.128   6.951 -0.5087 -0.1718  0.9245
 2565SOL    HW1 9136   6.780   7.048   6.965 -0.9574  0.2654  1.8686
 2565SOL    HW2 9137   6.767   7.190   6.915 -0.4527  0.1280  1.3396
 2566SOL     OW 9138   1.266   0.432   3.691 -0.0244  0.0595  0.2474
 2566SOL    HW1 9139   1.356   0.435   3.660 -0.4955 -2.6776 -1.7068
 2566SOL    HW2 9140   1.220   0.500   3.641  0.9098  1.7024  1.4966
 2567SOL     OW 9141   4.561   7.716  11.839 -0.0115 -0.1431  0.3275
 2567SOL    HW1 9142   4.579   7.688  11.749 -0.5964 -2.3890  0.8415
 2567SOL    HW2 9143   4.647   7.720  11.880  0.4260  2.3787 -0.6491
 2568SOL     OW 9144   6.092   6.673   1.362  0.1575 -0.2533  0.2942
 2568SOL    HW1 9145   6.070   6.622   1.284 -0.4877  0.6013 -0.0997
 2568SOL    HW2 9146   6.154   6.619   1.409 -1.4175 -1.9718  0.5122
 2569SOL     OW 9147   3.628   6.921   6.582 -0.1580 -0.4749 -0.1450
 2569SOL    HW1 9148   3.615   6.827   6.592 -0.4379 -0.6335 -1.8405
 2569SOL    HW2 9149   3.598   6.958   6.665  1.0994 -1.9531  1.0489
 2570SOL     OW 9150   2.779   4.229   2.069 -0.0330  0.5903 -0.0347
 2570SOL    HW1 9151   2.734   4.145   2.072  0.6973  0.1602 -0.7119
 2570SOL    HW2 9152   2.799   4.249   2.160 -1.6843  0.8617  0.3065
 2571SOL     OW 9153   7.717   3.425   8.395 -0.3027  0.2004  0.2432
 2571SOL    HW1 9154   7.639   3.477   8.375  0.9619  1.7585 -0.9971
 2571SOL    HW2 9155   7.726   3.366   8.320 -1.1586 -1.1132  1.1555
 2572SOL     OW 9156   7.601   2.032   8.700  0.7334 -0.3272  0.1259
 2572SOL    HW1 9157   7.607   1.952   8.752  1.0275 -0.3913 -0.0025
 2572SOL    HW2 9158   7.551   2.008   8.623  1.0833 -0.4673 -0.0599
 2573SOL     OW 9159   3.893   6.584   9.066 -0.3076  0.6118 -0.1905
 2573SOL    HW1 9160   3.802   6.577   9.037 -1.0523  0.9207  1.9147
 2573SOL    HW2 9161   3.912   6.498   9.105  0.4747  0.3964 -1.0113
 2574SOL     OW 9162   7.011   4.940   5.072  0.1696  0.2839  0.4246
 2574SOL    HW1 9163   6.993   4.907   5.160 -0.5210  2.6385  1.2567
 2574SOL    HW2 9164   7.077   5.009   5.085 -0.8707  1.5597 -0.6862
 2575SOL     OW 9165   5.146   5.183   1.371  0.4556  0.5951 -0.3700
 2575SOL    HW1 9166   5.152   5.275   1.344  1.5030  0.3939 -0.8939
 2575SOL    HW2 9167   5.157   5.185   1.466  0.0411  1.0446 -0.3279
 2576SOL     OW 9168   4.921   0.848  10.568 -0.0962 -0.0251 -0.2331
 2576SOL    HW1 9169   4.833   0.868  10.599 -0.5607 -2.2751  0.0528
 2576SOL    HW2 9170   4.965   0.809  10.643  0.9224  0.3664 -0.5974
 2577SOL     OW 9171   5.649   4.140   2.078  0.4414 -0.0303 -0.2427
 2577SOL    HW1 9172   5.667   4.196   2.153  0.6287 -0.5513  0.1066
 2577SOL    HW2 9173   5.559   4.111   2.091  0.4749 -0.1233 -0.2224
 2578SOL     OW 9174   5.779   4.295   8.055 -0.1306 -0.1010 -0.2707
 2578SOL    HW1 9175   5.775   4.384   8.019 -0.3621 -0.0744 -0.1808
 2578SOL    HW2 9176   5.688   4.274   8.078  0.1556  0.3583  1.4503
 2579SOL     OW 9177   1.867   6.635  10.554  0.3497  0.5735  0.6530
 2579SOL    HW1 9178   1.810   6.559  10.553  0.0159  0.8280  0.0929
 2579SOL    HW2 9179   1.926   6.622  10.480  0.8851  0.4155  1.1013
 2580SOL     OW 9180   1.904   6.355   1.693 -0.0776 -0.5494  0.1101
 2580SOL    HW1 9181   1.913   6.383   1.602  2.1655 -0.5802  0.2689
 2580SOL    HW2 9182   1.857   6.426   1.736 -0.0835  0.0202 -0.8175
 2581SOL     OW 9183   2.099   4.664   3.956 -0.0609 -0.4263  0.2151
 2581SOL    HW1 9184   2.070   4.723   3.887  2.1721  0.7842  0.2047
 2581SOL    HW2 9185   2.183   4.630   3.925 -0.2536 -1.8952  1.2098
 2582SOL     OW 9186   4.295   7.471   2.974  0.1206  0.1872 -0.2494
 2582SOL    HW1 9187   4.273   7.549   2.924  1.4594  0.8694  0.1839
 2582SOL    HW2 9188   4.378   7.492   3.016  0.9614 -1.7715 -0.8037
 2583SOL     OW 9189   1.945   5.004  12.390 -0.2317 -0.0710  0.3000
 2583SOL    HW1 9190   1.850   4.999  12.378 -0.2105 -0.3220  0.2367
 2583SOL    HW2 9191   1.981   4.969  12.309 -0.0835  0.3978  0.1590
 2584SOL     OW 9192   0.894   7.476   6.752 -0.2352  0.1422 -0.7882
 2584SOL    HW1 9193   0.873   7.418   6.825  1.0359 -0.3505 -0.8027
 2584SOL    HW2 9194   0.822   7.462   6.689 -0.9475  0.0372  0.0297
 2585SOL     OW 9195   0.359   4.832   8.050 -0.3906  0.0726 -0.0152
 2585SOL    HW1 9196   0.393   4.815   8.137 -1.6238 -1.0002  0.2860
 2585SOL    HW2 9197   0.281   4.886   8.064 -1.3443 -1.1609 -0.3054
 2586SOL     OW 9198   0.001   0.435   7.280 -0.2722  0.4659 -0.1674
 2586SOL    HW1 9199  -0.058   0.494   7.326  1.7371  1.9323  0.6312
 2586SOL    HW2 9200   0.079   0.431   7.334  0.2298 -1.8146 -0.9424
 2587SOL     OW 9201   0.432   2.675   5.399  0.0123 -0.1264  0.3626
 2587SOL    HW1 9202   0.516   2.636   5.376  1.0015  1.7092  0.6420
 2587SOL    HW2 9203   0.412   2.734   5.326 -0.0379  0.9191  1.1925
 2588SOL     OW 9204   3.505   5.643   1.740 -0.0436 -0.0085 -0.4363
 2588SOL    HW1 9205   3.449   5.586   1.793  0.8037  0.2804  0.8323
 2588SOL    HW2 9206   3.572   5.584   1.705  0.1922  0.0116 -0.0317
 2589SOL     OW 9207   1.485   4.711   2.406  0.2339 -0.3727  0.0701
 2589SOL    HW1 9208   1.527   4.711   2.320  0.8525  0.4292  0.3642
 2589SOL    HW2 9209   1.476   4.803   2.428  1.3603 -0.5759  1.4859
 2590SOL     OW 9210   5.250   7.451   9.345 -0.0686 -1.0032 -0.3878
 2590SOL    HW1 9211   5.170   7.503   9.353  0.4080 -0.0643 -1.5430
 2590SOL    HW2 9212   5.312   7.493   9.406  0.3643 -0.0746 -1.4291
 2591SOL     OW 9213   6.673   1.823   8.366  0.4384  0.0047 -0.0480
 2591SOL    HW1 9214   6.759   1.799   8.400  0.9022  0.5954 -0.7572
 2591SOL    HW2 9215   6.616   1.823   8.442  1.3306  0.8184  0.6397
 2592SOL     OW 9216   3.036   2.383   2.240 -0.3843 -0.4065 -0.2398
 2592SOL    HW1 9217   2.999   2.435   2.169 -0.0961  0.9272  0.5473
 2592SOL    HW2 9218   3.034   2.441   2.316  2.3068 -0.6380  0.0947
 2593SOL     OW 9219   4.442   1.811   8.604  0.0992  0.2669 -0.5547
 2593SOL    HW1 9220   4.518   1.860   8.572 -0.1875  1.6332  0.7188
 2593SOL    HW2 9221   4.454   1.723   8.571  2.4705  0.3289 -0.0373
 2594SOL     OW 9222   0.651   2.487   6.680  1.0875 -0.4827  0.2697
 2594SOL    HW1 9223   0.638   2.405   6.633  0.6572  0.2636 -0.9797
 2594SOL    HW2 9224   0.739   2.480   6.717  1.8240 -0.7771 -1.4276
 2595SOL     OW 9225   7.875   6.835   6.363 -0.5331 -0.1890 -0.0067
 2595SOL    HW1 9226   7.801   6.805   6.416 -0.3173  0.8621  0.9074
 2595SOL    HW2 9227   7.949   6.837   6.424  0.2497 -1.1218 -0.8854
 2596SOL     OW 9228   4.622   4.824   4.273  0.4864 -0.4498 -0.5970
 2596SOL    HW1 9229   4.665   4.903   4.238 -0.5514  0.2452 -0.3557
 2596SOL    HW2 9230   4.541   4.817   4.222 -0.9040  0.3898  1.3531
 2597SOL     OW 9231   2.911   4.880  10.377 -0.5312 -0.3635 -0.2023
 2597SOL    HW1 9232   2.833   4.826  10.365  1.4330 -4.5746  3.0039
 2597SOL    HW2 9233   2.980   4.834  10.329  0.6252  1.3526 -0.2724
 2598SOL     OW 9234   2.447   5.676   5.440  0.3961 -0.0724  0.1097
 2598SOL    HW1 9235   2.477   5.747   5.497 -2.0098  0.2436  1.0911
 2598SOL    HW2 9236   2.515   5.670   5.372  0.5237  3.5043 -0.3032
 2599SOL     OW 9237   5.052   3.690   1.359  0.5587  0.1746  0.2391
 2599SOL    HW1 9238   5.117   3.725   1.299 -1.6301 -0.2878 -2.6016
 2599SOL    HW2 9239   5.097   3.620   1.406  2.0903 -0.2341 -1.7197
 2600SOL     OW 9240   4.902   0.380   7.959  0.4535  0.3863  0.6724
 2600SOL    HW1 9241   4.915   0.368   7.865 -0.9798 -1.1678  0.6419
 2600SOL    HW2 9242   4.991   0.385   7.995  1.0486 -0.6849 -0.5753
 2601SOL     OW 9243   1.276   2.930   2.553  0.0204 -0.5592 -0.1911
 2601SOL    HW1 9244   1.201   2.966   2.601  1.6175  1.3439  1.0441
 2601SOL    HW2 9245   1.285   2.841   2.586 -1.7419 -0.8830 -0.4701
 2602SOL     OW 9246   5.275   0.236   5.470  0.2018  0.2929  0.1030
 2602SOL    HW1 9247   5.243   0.154   5.506 -0.5473  0.4112 -0.2732
 2602SOL    HW2 9248   5.287   0.219   5.376  0.3875  0.5086  0.0849
 2603SOL     OW 9249   7.639   5.862   4.506  0.0768 -0.2742  0.1557
 2603SOL    HW1 9250   7.616   5.863   4.599 -0.1929 -0.8639  0.1040
 2603SOL    HW2 9251   7.595   5.784   4.472  0.1496 -0.0454 -0.4738
 2604SOL     OW 9252   3.793   3.891   9.604 -0.5098 -0.0448  0.0181
 2604SOL    HW1 9253   3.698   3.888   9.613 -0.7168  2.4333 -0.7573
 2604SOL    HW2 9254   3.811   3.843   9.523 -0.9915 -1.1881  0.5693
 2605SOL     OW 9255   3.174   7.383   3.326  0.0693  0.1540  0.4725
 2605SOL    HW1 9256   3.102   7.332   3.364  1.4526 -1.3138  1.2678
 2605SOL    HW2 9257   3.253   7.336   3.354  1.3101  1.3080 -0.9605
 2606SOL     OW 9258   5.323   0.775   1.716  0.0490 -0.2557 -0.1497
 2606SOL    HW1 9259   5.364   0.711   1.658  2.2529  1.3408 -0.4783
 2606SOL    HW2 9260   5.280   0.837   1.657  0.6590  0.3154 -0.0050
 2607SOL     OW 9261   5.513   5.337   6.589  0.0979  0.6200  0.0629
 2607SOL    HW1 9262   5.571   5.260   6.589  1.5333  1.5469 -2.9325
 2607SOL    HW2 9263   5.478   5.340   6.501 -2.4111  1.7279  1.0096
 2608SOL     OW 9264   4.537   7.059   5.727 -0.1392  0.4694  0.5813
 2608SOL    HW1 9265   4.591   6.998   5.778 -0.4309  0.5013  0.9279
 2608SOL    HW2 9266   4.447   7.029   5.742 -0.2246  0.4304  0.0249
 2609SOL     OW 9267   4.876   4.327  11.243 -0.1293  0.1708  0.1689
 2609SOL    HW1 9268   4.926   4.247  11.260 -0.3337 -0.2021 -0.8615
 2609SOL    HW2 9269   4.785   4.302  11.260 -0.5754 -0.7644 -2.9734
 2610SOL     OW 9270   7.002   1.387   4.294  0.2638 -0.1766  0.3051
 2610SOL    HW1 9271   7.040   1.353   4.213  0.7944 -1.0189  0.8918
 2610SOL    HW2 9272   7.077   1.406   4.349 -0.0872 -2.6777  1.8186
 2611SOL     OW 9273   7.179   1.428  11.854  0.1361 -0.2049 -0.2578
 2611SOL    HW1 9274   7.202   1.335  11.866  1.2169 -0.2003 -1.9438
 2611SOL    HW2 9275   7.261   1.475  11.870  0.2424  0.2218 -1.8725
 2612SOL     OW 9276   0.752   7.954   0.902 -0.3268  0.0332  0.4359
 2612SOL    HW1 9277   0.841   7.969   0.870 -0.6767  0.3661 -0.4186
 2612SOL    HW2 9278   0.757   7.872   0.951  0.4741  0.1098  0.4958
 2613SOL     OW 9279   1.067   4.412  10.408  0.0897  0.4900 -0.0133
 2613SOL    HW1 9280   0.980   4.453  10.414  1.0253  2.5041  0.6032
 2613SOL    HW2 9281   1.109   4.434  10.491  1.3967  0.0469 -0.5411
 2614SOL     OW 9282   1.659   3.725   9.736  0.3523 -1.1690  0.4044
 2614SOL    HW1 9283   1.576   3.750   9.695 -0.5460 -1.6927  1.8358
 2614SOL    HW2 9284   1.714   3.804   9.729 -0.2738 -0.8002 -0.5067
 2615SOL     OW 9285   4.896   3.143   3.524 -0.2407 -0.3485 -0.4260
 2615SOL    HW1 9286   4.829   3.207   3.502 -0.5493 -1.1376 -1.8567
 2615SOL    HW2 9287   4.860   3.059   3.496  1.3284 -0.7973 -1.2306
 2616SOL     OW 9288   0.859   1.871   6.104  0.0561  0.0762  0.0346
 2616SOL    HW1 9289   0.880   1.778   6.109 -0.1035 -0.0231 -0.9288
 2616SOL    HW2 9290   0.908   1.911   6.176  1.1657 -0.5629 -0.3507
 2617SOL     OW 9291   4.348   1.874   7.371  0.1627 -0.3510 -0.0191
 2617SOL    HW1 9292   4.443   1.874   7.383  0.2008  0.6786 -0.2494
 2617SOL    HW2 9293   4.331   1.800   7.312  0.8646 -0.3190 -0.2674
 2618SOL     OW 9294   7.936   1.775   8.770  0.2659 -0.8161 -0.2504
 2618SOL    HW1 9295   7.990   1.696   8.771  2.7359  0.7140 -1.9048
 2618SOL    HW2 9296   7.943   1.809   8.860  1.0557 -1.3119 -0.1106
 2619SOL     OW 9297   3.990   2.318   9.983 -0.1003 -0.6218 -0.5163
 2619SOL    HW1 9298   3.909   2.357   9.950  0.5078 -0.0099 -1.3229
 2619SOL    HW2 9299   4.034   2.285   9.905  0.1819 -1.4240 -0.0222
 2620SOL     OW 9300   1.931   1.138   5.924 -0.3685 -0.1181 -0.3947
 2620SOL    HW1 9301   1.949   1.195   5.849  0.4628  1.2927  0.8173
 2620SOL    HW2 9302   1.908   1.198   5.994 -0.2798 -1.3427  0.7097
 2621SOL     OW 9303   4.703   0.303   8.542 -0.1718  0.0773  0.1681
 2621SOL    HW1 9304   4.760   0.240   8.498  0.9826  0.7106  0.6994
 2621SOL    HW2 9305   4.695   0.376   8.481 -0.8597 -0.2364 -0.1231
 2622SOL     OW 9306   4.358   1.101  12.455 -0.5698  0.2024  0.2155
 2622SOL    HW1 9307   4.371   1.190  12.424 -1.9777  0.5676  0.6397
 2622SOL    HW2 9308   4.321   1.055  12.379  0.9909 -0.2871 -0.2968
 2623SOL     OW 9309   6.181   3.964   9.035  0.2619 -0.3180 -0.1064
 2623SOL    HW1 9310   6.102   4.009   9.003 -0.6125 -2.7165 -1.6048
 2623SOL    HW2 9311   6.152   3.919   9.114  1.2222  1.8909  1.5881
 2624SOL     OW 9312   0.617   1.248   0.940  0.1761 -0.2308  0.5244
 2624SOL    HW1 9313   0.562   1.317   0.902 -0.0869 -0.6435  0.1376
 2624SOL    HW2 9314   0.587   1.168   0.897  0.7104 -0.5387  0.7182
 2625SOL     OW 9315   0.215   3.930   8.433 -0.6870  0.2991 -0.1239
 2625SOL    HW1 9316   0.283   3.978   8.385 -1.7139  0.9163 -1.0134
 2625SOL    HW2 9317   0.143   3.922   8.370 -1.0129 -1.3459  0.4173
 2626SOL     OW 9318   4.618   7.832   1.226  0.5909  0.9129  0.3104
 2626SOL    HW1 9319   4.622   7.792   1.139 -1.1507  0.2528  0.4920
 2626SOL    HW2 9320   4.707   7.824   1.260  0.3581 -3.2898  0.4907
 2627SOL     OW 9321   4.935   6.839   4.697  0.5850  0.0684  0.0166
 2627SOL    HW1 9322   4.897   6.869   4.615  1.4742 -0.6929 -0.6873
 2627SOL    HW2 9323   4.899   6.752   4.711 -0.3608  0.5871  0.9840
 2628SOL     OW 9324   5.303   1.627   6.804  0.3443  0.5122  0.0859
 2628SOL    HW1 9325   5.361   1.672   6.864  0.3003 -0.2356  0.7093
 2628SOL    HW2 9326   5.279   1.546   6.850 -1.8248  1.1609  0.1994
 2629SOL     OW 9327   7.234   1.946   1.650  0.5875 -0.3369  0.3448
 2629SOL    HW1 9328   7.262   1.992   1.729  1.6773 -0.8863  0.2987
 2629SOL    HW2 9329   7.209   2.015   1.589 -0.8711  0.0794  1.3617
 2630SOL     OW 9330   4.249   5.433  10.470 -0.2715  0.5795  0.5652
 2630SOL    HW1 9331   4.194   5.392  10.537 -0.5789  1.7183  1.0221
 2630SOL    HW2 9332   4.207   5.516  10.451 -2.0438 -0.9627 -3.3971
 2631SOL     OW 9333   6.208   3.557   8.148  0.0346  0.0460 -0.1368
 2631SOL    HW1 9334   6.115   3.552   8.123  0.0838 -3.2579  0.0006
 2631SOL    HW2 9335   6.256   3.547   8.066  0.2732  0.4331 -0.0466
 2632SOL     OW 9336   7.313   6.425   0.126 -0.0760  0.4014  0.2369
 2632SOL    HW1 9337   7.232   6.390   0.165  0.4696 -0.6144  0.4876
 2632SOL    HW2 9338   7.352   6.350   0.081  2.8079 -0.3142  3.4764
 2633SOL     OW 9339   0.126   3.533  12.229  0.0401 -0.1498 -0.2777
 2633SOL    HW1 9340   0.075   3.483  12.293  0.8733  0.0874  0.6000
 2633SOL    HW2 9341   0.122   3.481  12.149 -0.1729 -0.9808  0.2581
 2634SOL     OW 9342   3.580   4.930   1.052 -0.2630 -0.5297  0.1705
 2634SOL    HW1 9343   3.641   4.914   0.979  0.2924  1.8399  0.0330
 2634SOL    HW2 9344   3.495   4.943   1.010 -0.2732 -0.8335  0.0960
 2635SOL     OW 9345   0.424   4.773   2.313  0.6551 -0.0334  0.1443
 2635SOL    HW1 9346   0.376   4.690   2.315 -3.8556  2.2209 -1.2223
 2635SOL    HW2 9347   0.478   4.767   2.234 -3.3306 -0.0907 -2.8777
 2636SOL     OW 9348   1.949   4.820   2.955 -0.7801 -0.1565 -0.1907
 2636SOL    HW1 9349   1.938   4.823   3.050 -0.6927  0.2428 -0.1907
 2636SOL    HW2 9350   1.874   4.870   2.921  0.4374  1.7409 -0.2323
 2637SOL     OW 9351   4.607   2.513   9.071 -0.5950 -0.1020  0.5750
 2637SOL    HW1 9352   4.542   2.444   9.058  1.4665 -2.0478  0.0087
 2637SOL    HW2 9353   4.646   2.526   8.985  0.4181  0.3328  1.0830
 2638SOL     OW 9354   7.161   3.318   4.845 -0.0853 -0.4322  0.2847
 2638SOL    HW1 9355   7.094   3.272   4.896 -0.4971 -1.2927 -1.0004
 2638SOL    HW2 9356   7.113   3.365   4.777  0.2639  2.3963  1.7968
 2639SOL     OW 9357   2.896   2.246   9.763  0.0360  0.2951  0.4366
 2639SOL    HW1 9358   2.867   2.253   9.672 -0.3490 -1.1755  0.4142
 2639SOL    HW2 9359   2.951   2.168   9.765  1.1813  1.0777  1.2068
 2640SOL     OW 9360   0.597   4.848   4.637 -0.3031  0.0317 -0.0379
 2640SOL    HW1 9361   0.524   4.837   4.575 -1.1894  0.4797  0.8860
 2640SOL    HW2 9362   0.581   4.780   4.703 -1.8101  2.1447  1.9327
 2641SOL     OW 9363   4.608   4.005   1.308 -0.4379  0.4569  0.4143
 2641SOL    HW1 9364   4.647   3.987   1.222 -0.7975  0.8403  0.1680
 2641SOL    HW2 9365   4.560   4.087   1.296 -1.3707 -0.0340  0.6955
 2642SOL     OW 9366   3.741   5.539   7.297 -0.0082  0.1880  0.4006
 2642SOL    HW1 9367   3.652   5.541   7.261 -0.5961  0.2980  1.7970
 2642SOL    HW2 9368   3.787   5.473   7.245 -1.1888 -0.5538  0.2585
 2643SOL     OW 9369   3.668   4.675   1.482 -0.9344 -0.3755  0.4905
 2643SOL    HW1 9370   3.600   4.664   1.548 -1.4522 -1.6230 -0.2177
 2643SOL    HW2 9371   3.641   4.752   1.432 -1.3149 -0.2974  0.8164
 2644SOL     OW 9372   0.618   2.382   8.487 -0.3200  0.0901  0.0673
 2644SOL    HW1 9373   0.570   2.318   8.434 -1.5114 -0.3837  1.6543
 2644SOL    HW2 9374   0.551   2.442   8.518  0.7115  1.8355 -0.9471
 2645SOL     OW 9375   2.161   1.855   9.960  0.2222  0.5513  0.0537
 2645SOL    HW1 9376   2.186   1.925  10.020 -0.8744  0.0148  1.1912
 2645SOL    HW2 9377   2.077   1.884   9.923 -0.7136 -0.5417  1.2425
 2646SOL     OW 9378   2.246   0.832   3.069  0.5591  0.1274 -0.5163
 2646SOL    HW1 9379   2.335   0.867   3.074  0.1785  1.0396  0.2350
 2646SOL    HW2 9380   2.219   0.847   2.978  1.6255 -1.3642 -1.1193
 2647SOL     OW 9381   1.096   7.744  11.100  0.0765 -0.0480  1.3417
 2647SOL    HW1 9382   1.003   7.760  11.116  0.3205  0.6652  2.1247
 2647SOL    HW2 9383   1.099   7.703  11.013 -0.6936  3.5231 -0.5584
 2648SOL     OW 9384   3.742   0.281  11.771 -0.0929  0.2939 -0.0855
 2648SOL    HW1 9385   3.729   0.253  11.861  0.0794 -0.3413 -0.2564
 2648SOL    HW2 9386   3.729   0.202  11.719  2.8627 -0.0833 -0.4186
 2649SOL     OW 9387   2.546   4.931   6.679  0.3356  0.4806  0.1365
 2649SOL    HW1 9388   2.589   4.865   6.733 -0.9093  0.2539  0.8909
 2649SOL    HW2 9389   2.618   4.984   6.644  1.4502 -1.8186 -1.2898
 2650SOL     OW 9390   6.112   0.031   1.453  0.2125 -0.0435  0.1658
 2650SOL    HW1 9391   6.048   0.093   1.417 -1.4020 -1.4031  0.6072
 2650SOL    HW2 9392   6.193   0.082   1.459  0.4723  0.5601 -4.6330
 2651SOL     OW 9393   7.194   1.931   2.400  0.0544 -0.1745  0.0371
 2651SOL    HW1 9394   7.140   2.008   2.416 -0.4180 -0.4272 -0.3251
 2651SOL    HW2 9395   7.155   1.889   2.323  1.1408 -0.0140 -0.6348
 2652SOL     OW 9396   0.355   5.011   8.293  0.7496  0.5733 -0.1399
 2652SOL    HW1 9397   0.422   4.960   8.338  1.6802  0.9995 -0.9894
 2652SOL    HW2 9398   0.355   5.095   8.339  2.1515  1.2385 -1.2540
 2653SOL     OW 9399   4.401   1.738   5.987 -0.0550  0.2603  0.0927
 2653SOL    HW1 9400   4.368   1.787   6.062  0.0579  0.3224  0.1032
 2653SOL    HW2 9401   4.368   1.649   6.000 -0.1252  0.2959  0.1600
 2654SOL     OW 9402   0.770   0.824   6.751 -0.4457  0.6447 -0.6326
 2654SOL    HW1 9403   0.675   0.832   6.738 -0.8844 -0.1265  1.6668
 2654SOL    HW2 9404   0.787   0.869   6.833  0.4841 -2.4931  1.0450
 2655SOL     OW 9405   6.357   0.040   8.479  0.0183 -0.3992 -0.1432
 2655SOL    HW1 9406   6.336  -0.049   8.452  1.3507 -0.6326 -0.4634
 2655SOL    HW2 9407   6.373   0.033   8.574 -1.8219 -0.1072  0.2286
 2656SOL     OW 9408   1.634   3.360   4.615  0.6512 -0.2604  0.5121
 2656SOL    HW1 9409   1.658   3.453   4.619 -1.0898  0.2053  0.8207
 2656SOL    HW2 9410   1.568   3.349   4.683  1.6396 -2.0130  1.2582
 2657SOL     OW 9411   6.729   6.726   2.934 -0.1158  0.1070  0.8798
 2657SOL    HW1 9412   6.793   6.784   2.892 -0.0344 -0.6106 -0.0120
 2657SOL    HW2 9413   6.652   6.781   2.948 -0.1489  0.3643 -0.2375
 2658SOL     OW 9414   5.545   0.009   9.858 -0.1411 -0.4799 -0.1101
 2658SOL    HW1 9415   5.450   0.006   9.845 -0.3153 -0.0018  0.9456
 2658SOL    HW2 9416   5.556   0.009   9.953  0.9796 -1.9855 -0.2077
 2659SOL     OW 9417   3.180   2.779   6.557 -0.3755 -0.2789 -0.1804
 2659SOL    HW1 9418   3.266   2.782   6.516 -0.6986 -1.0696 -0.9366
 2659SOL    HW2 9419   3.198   2.787   6.651  0.6327 -1.7625 -0.2161
 2660SOL     OW 9420   6.674   4.385   6.190  0.1695  0.3108 -0.0052
 2660SOL    HW1 9421   6.758   4.430   6.196  0.6456 -0.0578 -2.6046
 2660SOL    HW2 9422   6.620   4.443   6.137  0.7156 -1.8738 -3.2271
 2661SOL     OW 9423   2.933   2.658   3.985  0.7369  0.0537 -0.4122
 2661SOL    HW1 9424   2.976   2.742   3.970 -0.0192  0.3844 -0.7634
 2661SOL    HW2 9425   3.004   2.594   3.981  1.4475  0.7419  0.6726
 2662SOL     OW 9426   7.314   7.414  11.577  0.6245  0.2787 -0.1389
 2662SOL    HW1 9427   7.404   7.395  11.549  1.4795 -0.7365  2.9565
 2662SOL    HW2 9428   7.297   7.352  11.648 -2.5120  0.5498 -0.5198
 2663SOL     OW 9429   2.094   6.176   6.789 -0.1741  0.0584 -0.1521
 2663SOL    HW1 9430   2.003   6.192   6.816 -0.4569 -1.4184 -0.1192
 2663SOL    HW2 9431   2.113   6.088   6.822  1.4081  0.4942  0.1687
 2664SOL     OW 9432   3.356   3.570   0.365 -0.3132  0.2561  0.3973
 2664SOL    HW1 9433   3.421   3.581   0.435  0.6168 -0.3964 -0.3499
 2664SOL    HW2 9434   3.334   3.477   0.368 -0.4905  0.2869  0.0000
 2665SOL     OW 9435   0.980   7.662   2.718  0.1948  0.0688  0.3639
 2665SOL    HW1 9436   1.020   7.745   2.743 -0.3537  0.3442  0.3631
 2665SOL    HW2 9437   0.886   7.683   2.710 -0.1495 -0.8435  1.6588
 2666SOL     OW 9438   1.763   4.735   4.083  0.0441  0.7194  0.2198
 2666SOL    HW1 9439   1.669   4.720   4.071  0.1067 -0.6408  1.2245
 2666SOL    HW2 9440   1.772   4.830   4.085 -1.0448  0.9156 -1.7248
 2667SOL     OW 9441   2.127   7.378   3.551  0.5788 -0.0017  0.3365
 2667SOL    HW1 9442   2.041   7.354   3.515  1.3124 -0.3800 -1.2558
 2667SOL    HW2 9443   2.168   7.294   3.572  0.9270  0.1350  0.2024
 2668SOL     OW 9444   0.017   3.308   5.146 -0.1406 -0.4711  0.2340
 2668SOL    HW1 9445   0.088   3.275   5.202  0.0796 -1.0545 -0.3758
 2668SOL    HW2 9446  -0.061   3.303   5.201  0.7360  3.4394  2.1650
 2669SOL     OW 9447   7.723   2.282   7.580 -0.3519  0.0557  0.0990
 2669SOL    HW1 9448   7.756   2.305   7.493 -1.7286 -1.2399 -0.8401
 2669SOL    HW2 9449   7.779   2.330   7.641  0.8048  0.8301 -1.4868
 2670SOL     OW 9450   6.671   6.471  12.352 -0.2249  0.2997  0.1064
 2670SOL    HW1 9451   6.602   6.537  12.351 -1.0656 -0.5703 -0.4877
 2670SOL    HW2 9452   6.664   6.430  12.438  0.8586  1.5267  0.8183
 2671SOL     OW 9453   6.232   7.690  10.353  0.2182  0.0989 -0.5802
 2671SOL    HW1 9454   6.326   7.708  10.359  0.7052 -2.4613  0.6776
 2671SOL    HW2 9455   6.219   7.661  10.263  0.8086 -0.2671 -0.5536
 2672SOL     OW 9456   5.493   2.529   8.264  0.0939 -0.4210  0.8013
 2672SOL    HW1 9457   5.426   2.566   8.321 -1.9632 -0.2393 -1.5758
 2672SOL    HW2 9458   5.468   2.437   8.254  0.6228 -0.5336  0.4701
 2673SOL     OW 9459   2.455   7.523   0.735  0.0021 -0.1098 -0.2706
 2673SOL    HW1 9460   2.373   7.570   0.722 -0.0616 -0.4504 -1.1568
 2673SOL    HW2 9461   2.431   7.447   0.788 -0.3454 -0.4722 -0.9445
 2674SOL     OW 9462   1.783   5.832   1.616 -0.6517 -0.3184  0.6266
 2674SOL    HW1 9463   1.860   5.787   1.651  1.2015  2.3366  0.2390
 2674SOL    HW2 9464   1.757   5.893   1.685  0.1420  1.6508 -0.7533
 2675SOL     OW 9465   1.015   7.187  12.233  0.5366 -0.1167 -0.6567
 2675SOL    HW1 9466   1.018   7.118  12.299  1.5252  0.3189 -0.2335
 2675SOL    HW2 9467   0.932   7.232  12.250  1.3871  0.8697  1.2212
 2676SOL     OW 9468   1.292   3.741   6.050 -0.3950 -0.2720 -0.0229
 2676SOL    HW1 9469   1.237   3.682   6.101  0.7827 -0.2110  1.3783
 2676SOL    HW2 9470   1.288   3.706   5.961 -2.9008 -0.0829 -0.0399
 2677SOL     OW 9471   5.765   2.876  10.138 -0.0991  0.2843  0.4676
 2677SOL    HW1 9472   5.716   2.885  10.220 -1.4262  0.8196 -0.3555
 2677SOL    HW2 9473   5.778   2.782  10.128 -0.1039  0.2022  1.1872
 2678SOL     OW 9474   5.755   2.080   8.041 -0.3588  0.2773 -0.5444
 2678SOL    HW1 9475   5.722   2.100   8.129  0.8838 -2.6246  0.7056
 2678SOL    HW2 9476   5.691   2.017   8.006  0.0637  0.1051 -1.0023
 2679SOL     OW 9477   2.071   1.797  11.066 -1.6618 -0.6564  0.2004
 2679SOL    HW1 9478   2.141   1.861  11.056 -0.9168 -1.2262  1.5463
 2679SOL    HW2 9479   2.019   1.805  10.985  1.0072 -1.5450 -1.7274
 2680SOL     OW 9480   5.635   1.981   7.345  0.3925 -0.7282 -0.1578
 2680SOL    HW1 9481   5.543   1.985   7.317  0.6262 -1.0562 -1.0226
 2680SOL    HW2 9482   5.681   2.038   7.284  1.0156 -1.9759 -0.8827
 2681SOL     OW 9483   1.936   4.108  12.251 -0.1046  0.4430  0.0056
 2681SOL    HW1 9484   1.858   4.152  12.216 -0.8476 -1.7184 -1.2384
 2681SOL    HW2 9485   2.005   4.174  12.246 -1.8011  2.4345  1.1607
 2682SOL     OW 9486   1.962   4.879   8.757  0.4192 -0.0496  0.1093
 2682SOL    HW1 9487   2.047   4.844   8.783  1.0864 -0.6283 -2.4791
 2682SOL    HW2 9488   1.919   4.806   8.712  0.1825  1.2243 -1.9036
 2683SOL     OW 9489   2.452   5.364  12.156  0.2166  0.7021 -1.1604
 2683SOL    HW1 9490   2.385   5.432  12.147  1.3228  1.8436 -1.1120
 2683SOL    HW2 9491   2.440   5.330  12.244 -0.8711  0.2324 -1.4653
 2684SOL     OW 9492   7.409   0.689   8.856 -0.4987 -0.2657 -0.0372
 2684SOL    HW1 9493   7.345   0.744   8.900  0.8444  0.5923  0.9190
 2684SOL    HW2 9494   7.423   0.731   8.771  0.3352  0.7640  0.5875
 2685SOL     OW 9495   6.764   3.858   5.111  0.2041 -0.1001 -0.1244
 2685SOL    HW1 9496   6.670   3.849   5.128  0.4798 -0.6870  1.1607
 2685SOL    HW2 9497   6.783   3.950   5.127  0.0092 -0.1633  0.4719
 2686SOL     OW 9498   7.710   7.964   2.842  0.7709  0.2036  0.6069
 2686SOL    HW1 9499   7.771   7.947   2.914  0.0374  0.7535  1.3870
 2686SOL    HW2 9500   7.654   8.035   2.874  1.3597  1.4978 -1.0974
 2687SOL     OW 9501   6.724   6.874   6.208 -0.1352 -0.3027  0.1541
 2687SOL    HW1 9502   6.672   6.795   6.222 -0.8772  0.5069  2.3323
 2687SOL    HW2 9503   6.719   6.921   6.291  0.3020  2.0307 -1.0574
 2688SOL     OW 9504   7.512   0.824   8.622  0.3618  0.5570  0.1458
 2688SOL    HW1 9505   7.434   0.879   8.607 -0.1788  0.1782  1.4146
 2688SOL    HW2 9506   7.541   0.800   8.535 -0.7693  0.9664 -0.3663
 2689SOL     OW 9507   5.727   3.183   6.081  0.4984 -0.6378 -0.1872
 2689SOL    HW1 9508   5.643   3.171   6.037  0.6567 -1.4458 -0.2828
 2689SOL    HW2 9509   5.787   3.125   6.035  1.3148  0.5073 -0.6322
 2690SOL     OW 9510   1.356   7.217  10.012  0.3259 -0.1222  0.0074
 2690SOL    HW1 9511   1.293   7.154  10.047  1.6882 -1.4679  0.1008
 2690SOL    HW2 9512   1.441   7.187  10.044  1.8284 -1.8572 -4.8530
 2691SOL     OW 9513   1.647   5.739   3.698  0.2141  0.4845  0.2174
 2691SOL    HW1 9514   1.588   5.805   3.735  1.5211  1.4535  0.6106
 2691SOL    HW2 9515   1.606   5.715   3.615 -0.1490  2.0127 -0.0821
 2692SOL     OW 9516   6.735   1.354  10.571 -0.3539  0.4347  0.1477
 2692SOL    HW1 9517   6.714   1.311  10.488  0.0810  2.1025 -0.8928
 2692SOL    HW2 9518   6.697   1.441  10.563  0.6567  1.0101  1.2288
 2693SOL     OW 9519   6.822   6.865   9.402  0.0690  0.4614  0.1759
 2693SOL    HW1 9520   6.900   6.822   9.367 -0.1360  1.4175 -1.5673
 2693SOL    HW2 9521   6.758   6.795   9.413  0.8814 -0.2047  0.8459
 2694SOL     OW 9522   0.515   6.687   8.700 -0.2500 -0.4869 -0.6062
 2694SOL    HW1 9523   0.521   6.760   8.638  0.7576  0.2442  0.3127
 2694SOL    HW2 9524   0.593   6.635   8.683  2.1659  1.7622  2.4549
 2695SOL     OW 9525   5.927   5.064   9.414  0.3529 -0.0624 -0.0914
 2695SOL    HW1 9526   5.943   5.108   9.331  0.9069 -0.1544 -0.0368
 2695SOL    HW2 9527   5.994   5.097   9.473  0.0485 -0.1004  0.2840
 2696SOL     OW 9528   0.399   1.040   1.671 -0.0690  0.0173 -0.1958
 2696SOL    HW1 9529   0.400   0.948   1.697  1.7311 -0.3857 -1.4877
 2696SOL    HW2 9530   0.382   1.038   1.576 -2.6350  1.2102  0.1548
 2697SOL     OW 9531   2.894   7.650   1.422  0.7587 -0.7371 -0.5880
 2697SOL    HW1 9532   2.934   7.667   1.507  0.2767 -2.3275  0.0052
 2697SOL    HW2 9533   2.803   7.679   1.433  1.0880  0.5765 -1.1263
 2698SOL     OW 9534   5.804   6.101   4.607  0.0996  0.1293  0.7190
 2698SOL    HW1 9535   5.792   6.104   4.512  0.5350  0.5424  0.6699
 2698SOL    HW2 9536   5.722   6.065   4.641  0.9040 -2.5846  0.0085
 2699SOL     OW 9537   7.022   2.386   7.298  0.2466 -0.0390  0.3552
 2699SOL    HW1 9538   7.061   2.390   7.211 -0.9501  0.4180 -0.1721
 2699SOL    HW2 9539   7.025   2.293   7.321 -1.8562 -0.6017 -1.3372
 2700SOL     OW 9540   4.978   6.774   5.942  0.0493  0.2950  0.6950
 2700SOL    HW1 9541   4.983   6.712   6.015 -0.7022 -1.0185 -0.3358
 2700SOL    HW2 9542   5.068   6.806   5.933  0.7837 -1.6801  0.4063
 2701SOL     OW 9543   3.743   2.444  11.510 -0.3438  0.1472  0.2724
 2701SOL    HW1 9544   3.829   2.449  11.468  0.0536 -0.0792  1.0340
 2701SOL    HW2 9545   3.705   2.532  11.498  0.1056  0.3303  0.1767
 2702SOL     OW 9546   4.443   1.912   4.516  0.1941 -0.3420 -0.1138
 2702SOL    HW1 9547   4.489   1.993   4.537  0.5229 -0.0168 -1.9101
 2702SOL    HW2 9548   4.359   1.941   4.482 -0.2200 -0.8262  0.4790
 2703SOL     OW 9549   0.448   3.988   1.208 -0.2225  0.0239  0.0473
 2703SOL    HW1 9550   0.376   3.998   1.271 -0.6860  3.6072 -0.8302
 2703SOL    HW2 9551   0.514   4.051   1.237  0.8434 -0.3818 -1.3916
 2704SOL     OW 9552   5.070   4.591   4.489  0.2181  0.3993  0.0121
 2704SOL    HW1 9553   4.999   4.655   4.484 -0.2833 -0.1883 -0.4862
 2704SOL    HW2 9554   5.105   4.601   4.577  0.5374  1.7736 -0.2537
 2705SOL     OW 9555   0.509   0.223   8.107  0.1752 -0.7954 -0.2232
 2705SOL    HW1 9556   0.539   0.303   8.150  0.5658 -0.9488 -0.2061
 2705SOL    HW2 9557   0.417   0.239   8.088 -0.9115 -1.7977  3.3453
 2706SOL     OW 9558   1.882   2.338   7.678 -0.1419 -0.3296 -0.4078
 2706SOL    HW1 9559   1.797   2.382   7.682  0.0289  0.0307 -0.6702
 2706SOL    HW2 9560   1.862   2.252   7.640 -0.3497 -0.1270 -0.7691
 2707SOL     OW 9561   5.201   6.376   5.079 -1.0003  0.1113 -0.1299
 2707SOL    HW1 9562   5.276   6.354   5.135 -0.6976  1.0844 -0.1198
 2707SOL    HW2 9563   5.184   6.296   5.029  1.4134  0.4393 -1.6740
 2708SOL     OW 9564   4.526   3.197  11.515  0.3931 -0.7820  0.9918
 2708SOL    HW1 9565   4.518   3.269  11.452 -0.4833 -0.6277  1.2646
 2708SOL    HW2 9566   4.577   3.233  11.587  0.8988 -0.7767  0.6341
 2709SOL     OW 9567   6.871   7.490  12.134  0.4952  0.2370  0.5660
 2709SOL    HW1 9568   6.841   7.427  12.068 -0.3348  1.5355 -0.3472
 2709SOL    HW2 9569   6.966   7.479  12.136  0.3789 -0.9529  0.3511
 2710SOL     OW 9570   6.458   4.169   8.239 -0.4342  0.3230 -0.1463
 2710SOL    HW1 9571   6.475   4.231   8.311 -0.5627  1.0197 -0.7054
 2710SOL    HW2 9572   6.427   4.090   8.283 -1.1689  0.9661  0.5441
 2711SOL     OW 9573   2.536   6.761   0.206  0.0542  0.2016  0.4107
 2711SOL    HW1 9574   2.608   6.699   0.207 -0.4335 -0.5186 -2.0632
 2711SOL    HW2 9575   2.463   6.715   0.247 -0.8551 -1.7600 -3.0334
 2712SOL     OW 9576   3.926   0.606   9.925 -0.8688  0.6274 -0.0558
 2712SOL    HW1 9577   3.833   0.622   9.943 -1.1365 -0.4861 -0.3721
 2712SOL    HW2 9578   3.972   0.672   9.978 -1.8560  1.9007 -0.7281
 2713SOL     OW 9579   2.403   4.136   4.089 -0.4800  0.0760 -0.2857
 2713SOL    HW1 9580   2.455   4.083   4.029  2.2957  2.1537  0.0527
 2713SOL    HW2 9581   2.368   4.074   4.152  1.2155 -1.5463 -0.8476
 2714SOL     OW 9582   7.367   1.016   5.909  0.3771 -0.0551 -0.5965
 2714SOL    HW1 9583   7.421   1.001   5.831  2.0411 -1.1300  0.6810
 2714SOL    HW2 9584   7.340   0.929   5.937 -1.3419  0.4144 -0.6966
 2715SOL     OW 9585   7.468   6.443   7.564  0.8921 -0.4138 -0.7102
 2715SOL    HW1 9586   7.433   6.531   7.580  0.5272 -0.7869  0.7230
 2715SOL    HW2 9587   7.447   6.425   7.473 -0.7794  0.2211 -0.4827
 2716SOL     OW 9588   6.155   2.009   4.192 -0.1625 -0.7001  0.5869
 2716SOL    HW1 9589   6.066   1.978   4.171  0.4359 -2.0657 -0.0840
 2716SOL    HW2 9590   6.199   1.931   4.225  1.1659 -0.3612 -0.3153
 2717SOL     OW 9591   7.131   4.336   3.600  0.4517  0.4230 -0.0691
 2717SOL    HW1 9592   7.178   4.253   3.595  0.8084  0.5242  1.2257
 2717SOL    HW2 9593   7.039   4.312   3.606  0.6271  0.0446  1.5095
 2718SOL     OW 9594   4.665   3.947   0.852  0.3252 -0.4793  0.5160
 2718SOL    HW1 9595   4.571   3.951   0.838  0.4790  0.3751 -0.3999
 2718SOL    HW2 9596   4.678   3.978   0.941 -0.1799  0.5386  0.2483
 2719SOL     OW 9597   7.755   3.385   6.668  0.0499 -0.0945 -0.8453
 2719SOL    HW1 9598   7.757   3.473   6.631 -0.0987 -0.7271 -2.4185
 2719SOL    HW2 9599   7.818   3.388   6.740  0.1572  1.2544 -0.9733
 2720SOL     OW 9600   0.175   0.695   9.157  0.1329  0.3879  0.0691
 2720SOL    HW1 9601   0.113   0.635   9.116  0.7717 -0.8174  0.7990
 2720SOL    HW2 9602   0.129   0.729   9.234  0.6368 -1.2522  1.1697
 2721SOL     OW 9603   0.373   5.197   7.379  0.4041 -0.0204  0.6969
 2721SOL    HW1 9604   0.391   5.193   7.285  1.6402 -0.6873  0.9409
 2721SOL    HW2 9605   0.372   5.106   7.408 -0.8764  0.1240  1.1944
 2722SOL     OW 9606   5.592   3.952   5.096 -0.3763 -0.4645  0.0369
 2722SOL    HW1 9607   5.532   3.979   5.026 -1.3793  1.0852  1.4232
 2722SOL    HW2 9608   5.542   3.892   5.150 -0.0849 -0.5383  0.2297
 2723SOL     OW 9609   2.896   3.792   7.569 -0.2865 -0.0436  0.7416
 2723SOL    HW1 9610   2.963   3.760   7.629  1.4905 -0.1083 -1.1552
 2723SOL    HW2 9611   2.928   3.878   7.542 -2.1574  0.9512  1.4887
 2724SOL     OW 9612   5.231   5.844   6.997 -0.6389 -0.4370  0.1615
 2724SOL    HW1 9613   5.142   5.818   7.021 -0.8773 -0.6994 -0.9337
 2724SOL    HW2 9614   5.229   5.939   6.999 -1.0452 -0.4324 -0.1427
 2725SOL     OW 9615   7.419   1.648   2.775 -0.0709 -0.0707  0.0947
 2725SOL    HW1 9616   7.502   1.672   2.816 -0.4118  1.9292 -0.2782
 2725SOL    HW2 9617   7.431   1.669   2.683 -0.5971 -0.9660 -0.1958
 2726SOL     OW 9618   6.480   7.628   4.396  0.2373  0.2066  0.0930
 2726SOL    HW1 9619   6.480   7.623   4.492  0.0932  1.5466  0.1823
 2726SOL    HW2 9620   6.561   7.675   4.375  0.2417 -0.0389 -0.4440
 2727SOL     OW 9621   1.327   6.848   3.572  0.5361  0.1772  0.1297
 2727SOL    HW1 9622   1.361   6.842   3.483 -0.3474 -0.8484 -0.1571
 2727SOL    HW2 9623   1.330   6.942   3.593 -0.8907  0.6562 -1.6251
 2728SOL     OW 9624   6.803   3.837   3.540 -0.4439 -0.3360  0.3721
 2728SOL    HW1 9625   6.754   3.774   3.592 -0.5248 -0.4029  0.2136
 2728SOL    HW2 9626   6.895   3.822   3.564 -0.4194 -0.8337 -0.0132
 2729SOL     OW 9627   3.234   6.697  12.144  0.0589  0.5345  0.2988
 2729SOL    HW1 9628   3.246   6.678  12.237 -1.6126  1.5665  0.7461
 2729SOL    HW2 9629   3.244   6.792  12.137 -0.9470  0.5965 -0.3880
 2730SOL     OW 9630   6.785   3.823   3.057  0.0866  0.2228 -0.0153
 2730SOL    HW1 9631   6.831   3.745   3.025  0.7175  1.2030 -1.5897
 2730SOL    HW2 9632   6.736   3.792   3.133  0.8298 -1.5654 -0.2177
 2731SOL     OW 9633   0.454   2.907   7.780  0.1698  0.4539  0.1994
 2731SOL    HW1 9634   0.359   2.908   7.795  0.3481  0.1175  1.4530
 2731SOL    HW2 9635   0.465   2.950   7.695 -1.0154  1.4489  0.5225
 2732SOL     OW 9636   0.344   6.413   2.312 -0.2920 -0.5949 -0.3183
 2732SOL    HW1 9637   0.262   6.454   2.341 -0.3731 -0.4809 -0.7127
 2732SOL    HW2 9638   0.323   6.376   2.226 -0.2893 -1.6618  0.1259
 2733SOL     OW 9639   0.833   5.007   9.264 -0.0087 -0.1070 -0.1162
 2733SOL    HW1 9640   0.782   4.951   9.205 -0.6094  1.5281 -1.2292
 2733SOL    HW2 9641   0.912   5.028   9.215  0.8018 -0.9319  0.7862
 2734SOL     OW 9642   7.564   0.292   2.329  0.1045 -0.3925 -0.4108
 2734SOL    HW1 9643   7.650   0.254   2.311  0.8817  1.2877 -0.3580
 2734SOL    HW2 9644   7.563   0.307   2.423 -0.0892 -0.0426 -0.4659
 2735SOL     OW 9645   0.621   5.858   9.492  0.1232  0.0285 -0.7529
 2735SOL    HW1 9646   0.557   5.875   9.424  0.6789  0.0916 -1.2679
 2735SOL    HW2 9647   0.602   5.769   9.523  0.0575 -0.1114 -1.1998
 2736SOL     OW 9648   3.321   0.736   1.727  0.4987  0.1087  0.3292
 2736SOL    HW1 9649   3.331   0.677   1.652  1.5537  1.7118 -0.8544
 2736SOL    HW2 9650   3.243   0.788   1.706  1.0818  0.8984  0.0915
 2737SOL     OW 9651   1.250   0.368   7.931  0.2404 -0.2744  0.7644
 2737SOL    HW1 9652   1.160   0.353   7.958 -0.3049  0.3130 -0.6030
 2737SOL    HW2 9653   1.279   0.283   7.897  0.2386 -0.4840  1.2757
 2738SOL     OW 9654   2.972   0.404   9.291 -0.3164  0.1401  0.8699
 2738SOL    HW1 9655   3.055   0.432   9.251 -1.5276  1.0706 -1.1676
 2738SOL    HW2 9656   2.914   0.480   9.280 -1.2971 -0.2876  2.7572
 2739SOL     OW 9657   1.282   1.352  11.828 -0.3938  0.0477  0.3923
 2739SOL    HW1 9658   1.217   1.404  11.781 -1.0335 -2.2385 -1.4423
 2739SOL    HW2 9659   1.355   1.412  11.842 -1.4490  1.6864 -0.7772
 2740SOL     OW 9660   6.194   2.821   6.796 -0.0231  0.3353  0.5985
 2740SOL    HW1 9661   6.229   2.813   6.885  1.2287 -1.5982 -0.0095
 2740SOL    HW2 9662   6.268   2.853   6.744 -0.7260  1.3834  0.2058
 2741SOL     OW 9663   0.493   2.566   8.649  0.3469  0.3185 -0.3196
 2741SOL    HW1 9664   0.576   2.608   8.627 -0.1162  0.9712 -0.8634
 2741SOL    HW2 9665   0.504   2.537   8.740  1.0393  0.7167 -0.2697
 2742SOL     OW 9666   2.829   3.367   2.074 -0.2717 -0.2096 -0.3015
 2742SOL    HW1 9667   2.824   3.275   2.048 -0.0585 -0.1730 -0.4728
 2742SOL    HW2 9668   2.763   3.411   2.020  0.2534 -0.1132 -0.8870
 2743SOL     OW 9669   1.270   2.989   2.980  0.0977 -0.0627 -0.0285
 2743SOL    HW1 9670   1.210   2.965   3.050 -0.3675 -0.7240 -0.6481
 2743SOL    HW2 9671   1.301   3.077   3.004 -0.3183 -0.1390  0.8195
 2744SOL     OW 9672   7.826   2.837   5.978 -0.0487 -0.5452 -0.3525
 2744SOL    HW1 9673   7.877   2.793   5.910  1.8518  0.6767  0.2133
 2744SOL    HW2 9674   7.878   2.828   6.058 -1.0356  0.1851  0.4013
 2745SOL     OW 9675   4.454   6.148   4.361 -0.2931 -0.2578  0.2488
 2745SOL    HW1 9676   4.510   6.075   4.331 -1.4711 -0.5550 -1.3761
 2745SOL    HW2 9677   4.413   6.180   4.281 -0.9612  1.2273  1.1593
 2746SOL     OW 9678   6.729   0.155   9.667 -0.3640  0.4698 -0.2687
 2746SOL    HW1 9679   6.644   0.188   9.695 -0.5747  0.5888 -1.0169
 2746SOL    HW2 9680   6.775   0.232   9.634 -1.0131 -0.0074 -2.4134
 2747SOL     OW 9681   1.541   2.663   2.562  0.8114 -0.1289 -0.2068
 2747SOL    HW1 9682   1.465   2.656   2.505  0.4702 -0.4716  0.2788
 2747SOL    HW2 9683   1.512   2.624   2.645  1.4844 -0.1833  0.0076
 2748SOL     OW 9684   1.158   7.035   0.587 -0.1489  0.6697 -0.3638
 2748SOL    HW1 9685   1.154   7.094   0.662 -4.9725 -1.3706  1.4544
 2748SOL    HW2 9686   1.228   6.974   0.608  2.1225  3.1189 -0.2858
 2749SOL     OW 9687   7.621   5.278   2.281 -0.2336 -0.1465 -0.3471
 2749SOL    HW1 9688   7.658   5.236   2.358 -1.9834  0.0170  0.6249
 2749SOL    HW2 9689   7.531   5.246   2.276 -0.6701  1.1168 -1.3410
 2750SOL     OW 9690   5.362   6.738   6.055 -0.2393  0.4980 -0.1521
 2750SOL    HW1 9691   5.411   6.657   6.070  1.0626  1.4451  0.9728
 2750SOL    HW2 9692   5.366   6.749   5.960  1.4931  0.3446 -0.1456
 2751SOL     OW 9693   7.364   4.625   7.431 -0.3022  0.4588  0.0503
 2751SOL    HW1 9694   7.299   4.603   7.364  1.0993 -1.4808 -0.7679
 2751SOL    HW2 9695   7.448   4.611   7.388  0.6760  2.1565  1.3196
 2752SOL     OW 9696   7.501   1.417  10.683 -0.7214  0.1303 -0.0288
 2752SOL    HW1 9697   7.530   1.396  10.772  0.2896  2.3871  0.2560
 2752SOL    HW2 9698   7.557   1.490  10.657 -2.0200  0.5001 -1.9551
 2753SOL     OW 9699   0.928   0.923   6.577  0.0830  0.2660  0.4526
 2753SOL    HW1 9700   0.856   0.885   6.628 -0.3164  1.0002  0.4565
 2753SOL    HW2 9701   0.999   0.860   6.584 -1.3685 -1.7715 -1.6733
 2754SOL     OW 9702   1.102   7.385   2.124  0.0508  0.2378 -0.1723
 2754SOL    HW1 9703   1.081   7.366   2.216  0.8386 -1.1483 -0.2457
 2754SOL    HW2 9704   1.145   7.470   2.126 -3.3627  2.0986  0.2450
 2755SOL     OW 9705   7.704   5.014  11.105 -0.5043  0.2616  0.3238
 2755SOL    HW1 9706   7.630   5.043  11.159 -1.1312  0.2745 -0.5183
 2755SOL    HW2 9707   7.664   4.986  11.023  0.4956  0.8594 -0.3864
 2756SOL     OW 9708   7.663   6.114   7.001 -0.3956 -0.1061  0.5531
 2756SOL    HW1 9709   7.742   6.062   7.018  1.4246  2.7268  1.4540
 2756SOL    HW2 9710   7.626   6.131   7.088 -0.2280  1.1185  0.3992
 2757SOL     OW 9711   0.905   0.715   3.359 -0.0357 -0.3028 -0.0957
 2757SOL    HW1 9712   0.850   0.753   3.428 -1.6998  0.9819 -2.0249
 2757SOL    HW2 9713   0.986   0.766   3.363 -0.8481  1.0798 -0.2701
 2758SOL     OW 9714   0.330   1.439   4.168  0.3173 -0.2026 -0.2523
 2758SOL    HW1 9715   0.334   1.352   4.209 -1.8734 -0.4158 -0.3712
 2758SOL    HW2 9716   0.308   1.422   4.077 -1.0807  0.4755 -0.0700
 2759SOL     OW 9717   0.728   6.180  11.843 -0.8602 -0.1418 -0.0258
 2759SOL    HW1 9718   0.773   6.183  11.758  1.4739 -0.1244  1.1330
 2759SOL    HW2 9719   0.713   6.271  11.866 -1.9889 -0.1554 -0.6143
 2760SOL     OW 9720   2.121   6.705   4.510 -0.7348  0.1204 -0.1231
 2760SOL    HW1 9721   2.041   6.752   4.488 -0.4043  1.2918  1.0352
 2760SOL    HW2 9722   2.130   6.715   4.605  0.1857 -0.9569 -0.0747
 2761SOL     OW 9723   0.048   7.545   4.615  0.7593 -0.1240 -0.1139
 2761SOL    HW1 9724   0.013   7.464   4.651 -0.7016  0.8504  0.7364
 2761SOL    HW2 9725   0.104   7.517   4.543  0.5781 -1.8994  0.3989
 2762SOL     OW 9726   4.846   0.116   7.603  0.2613 -0.0903  0.6064
 2762SOL    HW1 9727   4.860   0.021   7.595  1.4032 -0.0006  1.3493
 2762SOL    HW2 9728   4.764   0.124   7.651  0.3987 -0.7090  0.9575
 2763SOL     OW 9729   7.439   2.525   2.680 -0.3728 -0.0226 -0.0703
 2763SOL    HW1 9730   7.500   2.466   2.723 -0.7874 -0.2011  0.2791
 2763SOL    HW2 9731   7.366   2.534   2.742 -0.1141  1.2104  0.0761
 2764SOL     OW 9732   4.960   3.003   7.884  0.3421  0.2840  0.2045
 2764SOL    HW1 9733   4.989   2.936   7.946  0.9079  1.3858  1.1714
 2764SOL    HW2 9734   4.883   3.042   7.924  0.2547  0.4957 -0.1618
 2765SOL     OW 9735   3.071   7.235   4.258 -0.3127  0.4187  0.1509
 2765SOL    HW1 9736   3.052   7.156   4.309 -0.3374 -0.7903 -1.6543
 2765SOL    HW2 9737   2.992   7.289   4.269 -0.3546  0.1578  1.2863
 2766SOL     OW 9738   4.671   7.728  11.307 -0.0091 -0.4231  0.1038
 2766SOL    HW1 9739   4.697   7.680  11.228 -0.1369  0.2064 -0.3286
 2766SOL    HW2 9740   4.706   7.816  11.294 -0.3151 -0.2229  0.6054
 2767SOL     OW 9741   2.517   4.442   1.198 -0.6604  0.1939  0.1302
 2767SOL    HW1 9742   2.468   4.477   1.272  1.3016  0.7706  1.2246
 2767SOL    HW2 9743   2.469   4.474   1.121 -2.6786 -0.3388  1.1095
 2768SOL     OW 9744   0.742   5.272   1.866  0.4540  0.1100  0.3147
 2768SOL    HW1 9745   0.702   5.271   1.953 -1.2621  0.9998 -0.4178
 2768SOL    HW2 9746   0.756   5.365   1.847 -0.5282  0.0205 -0.9309
 2769SOL     OW 9747   5.529   4.999   6.979 -0.2244 -0.1797 -0.0078
 2769SOL    HW1 9748   5.509   4.959   7.064 -0.4326 -0.3531 -0.1357
 2769SOL    HW2 9749   5.445   4.998   6.932  0.0660 -0.8538 -0.5312
 2770SOL     OW 9750   6.877   6.122   5.349  1.1739 -0.0692 -0.2402
 2770SOL    HW1 9751   6.941   6.070   5.398  0.6448  1.2754  2.0496
 2770SOL    HW2 9752   6.810   6.145   5.414 -0.8600 -0.1449 -2.1864
 2771SOL     OW 9753   6.655   6.227   5.513 -0.2887  0.5583 -0.2718
 2771SOL    HW1 9754   6.568   6.209   5.549 -0.3690  1.1799 -0.1461
 2771SOL    HW2 9755   6.639   6.258   5.424 -0.1835  0.4468 -0.3294
 2772SOL     OW 9756   3.180   3.052  10.808 -0.0666  0.4267  0.5154
 2772SOL    HW1 9757   3.251   3.020  10.753 -0.6303 -0.7862  0.4560
 2772SOL    HW2 9758   3.223   3.107  10.874  0.6532  1.6516 -0.9165
 2773SOL     OW 9759   4.888   0.900   2.658  0.4178  0.1515  0.0262
 2773SOL    HW1 9760   4.798   0.867   2.658  0.7805 -0.9017 -1.0713
 2773SOL    HW2 9761   4.937   0.835   2.708  0.8139 -0.0263 -0.5902
 2774SOL     OW 9762   4.802   6.261   8.566  0.0019 -0.4630  0.6896
 2774SOL    HW1 9763   4.810   6.318   8.490  1.0977 -0.1400  1.0197
 2774SOL    HW2 9764   4.791   6.320   8.640 -0.5272 -0.7547  0.8472
 2775SOL     OW 9765   0.212   5.007   2.026 -0.8307  0.4002  0.6408
 2775SOL    HW1 9766   0.297   5.043   2.001 -0.4187 -0.8605  0.1755
 2775SOL    HW2 9767   0.193   4.940   1.961 -1.9637  0.3220  1.0155
 2776SOL     OW 9768   6.383   2.103   2.294 -0.0248 -0.4271  0.5429
 2776SOL    HW1 9769   6.297   2.128   2.328  0.4565 -0.0274  1.5100
 2776SOL    HW2 9770   6.364   2.036   2.229 -1.1072  0.0555  0.3345
 2777SOL     OW 9771   6.419   2.208   5.578 -0.3367  0.3116  0.6139
 2777SOL    HW1 9772   6.378   2.162   5.506  1.2959 -0.3791  0.0826
 2777SOL    HW2 9773   6.466   2.281   5.537  0.3551  0.0907  0.9930
 2778SOL     OW 9774   7.813   4.303  10.571  0.0689 -0.5658  0.0592
 2778SOL    HW1 9775   7.723   4.297  10.540 -0.0642  0.9485  0.0585
 2778SOL    HW2 9776   7.833   4.216  10.606 -0.3320 -1.8762 -2.6915
 2779SOL     OW 9777   5.124   6.210   1.747 -0.1886 -0.1631 -0.5737
 2779SOL    HW1 9778   5.175   6.290   1.756 -0.7092  0.1205 -0.0578
 2779SOL    HW2 9779   5.183   6.140   1.778 -0.3201  0.2373  0.6506
 2780SOL     OW 9780   7.050   2.280   4.553  0.1153 -0.5391 -0.6754
 2780SOL    HW1 9781   7.036   2.370   4.580  2.6488 -0.7542  1.7470
 2780SOL    HW2 9782   7.055   2.284   4.457 -2.2790  1.4130 -0.8062
 2781SOL     OW 9783   1.139   4.787  10.332 -0.4647  0.5085 -0.0788
 2781SOL    HW1 9784   1.092   4.830  10.261  0.0430  1.0264 -0.1030
 2781SOL    HW2 9785   1.230   4.783  10.303 -0.6459 -1.5385 -0.5344
 2782SOL     OW 9786   0.267   2.654   2.833  0.3122  0.2516 -0.2025
 2782SOL    HW1 9787   0.262   2.616   2.920  1.4158  0.2791 -0.1226
 2782SOL    HW2 9788   0.347   2.707   2.833  0.1962  0.4616 -1.1450
 2783SOL     OW 9789   5.762   7.773   0.588 -0.3420  0.0433  0.3002
 2783SOL    HW1 9790   5.855   7.789   0.577 -0.0799 -1.1459  0.6094
 2783SOL    HW2 9791   5.720   7.826   0.520  0.5432  0.6147  0.1816
 2784SOL     OW 9792   4.552   7.361   8.869 -0.1140 -0.1793 -0.3395
 2784SOL    HW1 9793   4.613   7.288   8.858  1.2137  0.9517 -0.8498
 2784SOL    HW2 9794   4.607   7.433   8.901 -1.4069  0.5687  0.2671
 2785SOL     OW 9795   1.079   1.033  10.391 -0.4353 -0.5610  0.1568
 2785SOL    HW1 9796   1.173   1.053  10.396 -0.2078 -1.6494  0.5992
 2785SOL    HW2 9797   1.052   1.023  10.482 -0.8619 -0.7737  0.0116
 2786SOL     OW 9798   6.267   5.721   4.700 -0.0178 -0.1371 -0.7501
 2786SOL    HW1 9799   6.272   5.793   4.764 -1.3040 -1.4819  0.9656
 2786SOL    HW2 9800   6.174   5.711   4.682  0.0709 -1.8238 -0.4020
 2787SOL     OW 9801   5.001   5.175   1.830  0.0566  0.3831 -0.0197
 2787SOL    HW1 9802   4.968   5.230   1.902  0.5572  1.2823 -0.4564
 2787SOL    HW2 9803   5.031   5.238   1.765 -0.8258 -0.4184 -1.2288
 2788SOL     OW 9804   1.375   6.447   7.262 -0.2272 -0.0695  0.3820
 2788SOL    HW1 9805   1.326   6.527   7.279 -1.2456 -0.6374  0.1819
 2788SOL    HW2 9806   1.412   6.460   7.175 -1.1972 -0.1989 -0.0624
 2789SOL     OW 9807   1.677   5.745  12.006  0.0317  0.0868 -0.1918
 2789SOL    HW1 9808   1.603   5.805  11.999  0.7939  0.9453 -1.2405
 2789SOL    HW2 9809   1.645   5.662  11.971  0.0451  0.9291 -2.3297
 2790SOL     OW 9810   3.046   3.475   4.209 -0.6977  0.4048 -0.3232
 2790SOL    HW1 9811   2.950   3.473   4.202 -0.6326  0.4230 -1.4570
 2790SOL    HW2 9812   3.077   3.453   4.121  0.3226  2.3448 -0.5143
 2791SOL     OW 9813   7.729   1.370   1.563 -0.2617  0.0720  0.6405
 2791SOL    HW1 9814   7.674   1.353   1.640  1.4684 -0.4466  1.8164
 2791SOL    HW2 9815   7.706   1.459   1.537 -0.7307  0.3515  1.9089
 2792SOL     OW 9816   3.363   4.874   1.404  0.6832  0.4472 -0.0612
 2792SOL    HW1 9817   3.306   4.834   1.469  0.1788  1.1200 -0.0843
 2792SOL    HW2 9818   3.305   4.898   1.332  0.9610  1.2815 -0.0168
 2793SOL     OW 9819   1.200   5.128   1.365  0.5383 -0.1185  0.5134
 2793SOL    HW1 9820   1.233   5.102   1.451  0.8596  0.3401  0.5306
 2793SOL    HW2 9821   1.170   5.218   1.376  0.8557  0.0478  0.0743
 2794SOL     OW 9822   6.308   0.530   5.204  0.0438 -0.1916 -0.2106
 2794SOL    HW1 9823   6.310   0.452   5.148 -0.6633 -0.0076 -0.4922
 2794SOL    HW2 9824   6.353   0.502   5.284  0.1106 -0.7779 -0.4456
 2795SOL     OW 9825   4.147   1.561   7.634 -0.0473 -0.1805  0.2929
 2795SOL    HW1 9826   4.142   1.541   7.728 -1.0478 -1.6073 -0.0226
 2795SOL    HW2 9827   4.056   1.571   7.607  0.2900  1.6800 -0.2724
 2796SOL     OW 9828   6.195   7.437   4.499  0.1820 -0.6972 -0.0278
 2796SOL    HW1 9829   6.195   7.502   4.428  0.9149 -1.9129 -1.1883
 2796SOL    HW2 9830   6.120   7.381   4.479  0.8291 -1.4885 -0.2958
 2797SOL     OW 9831   1.201   0.395   9.696  0.1841  0.2166  0.4785
 2797SOL    HW1 9832   1.286   0.428   9.725  1.0084  0.2950 -1.8029
 2797SOL    HW2 9833   1.222   0.321   9.639 -1.4283 -1.3824  1.8364
 2798SOL     OW 9834   7.885   1.334   9.916 -0.3804  0.0557  0.2105
 2798SOL    HW1 9835   7.947   1.307   9.983 -0.3310  2.6729  1.3681
 2798SOL    HW2 9836   7.925   1.412   9.876 -1.5886  0.0647 -1.0712
 2799SOL     OW 9837   0.125   7.660   2.455 -0.3047 -0.2659 -0.0970
 2799SOL    HW1 9838   0.062   7.635   2.387 -0.3212 -0.0347 -0.1656
 2799SOL    HW2 9839   0.147   7.751   2.435  0.6965 -0.5994 -0.5876
 2800SOL     OW 9840   6.708   1.645  10.615 -0.0765  0.4890 -0.0018
 2800SOL    HW1 9841   6.613   1.659  10.620  0.0436  1.3386 -0.0229
 2800SOL    HW2 9842   6.729   1.656  10.522 -0.3455 -2.3934 -0.4951
 2801SOL     OW 9843   7.645   0.029   9.462  0.5067  0.6199 -0.5400
 2801SOL    HW1 9844   7.652  -0.062   9.431 -0.2189  0.5502 -0.5143
 2801SOL    HW2 9845   7.552   0.040   9.482  0.4753  1.5820 -1.1769
 2802SOL     OW 9846   6.106   4.827   4.728  0.3535 -0.3611  0.4439
 2802SOL    HW1 9847   6.078   4.875   4.649  1.3102 -0.6030 -0.0534
 2802SOL    HW2 9848   6.069   4.740   4.717  0.5206 -0.4075  0.2394
 2803SOL     OW 9849   3.877   5.446   5.631  0.4084  0.0573 -0.9746
 2803SOL    HW1 9850   3.900   5.383   5.700  0.4899  0.6759 -0.4281
 2803SOL    HW2 9851   3.782   5.457   5.640  0.5273  0.6895 -0.4852
 2804SOL     OW 9852   3.010   5.474   6.418  0.0134 -0.8555  0.3429
 2804SOL    HW1 9853   3.018   5.394   6.366  0.7699 -1.3759  1.2243
 2804SOL    HW2 9854   2.964   5.446   6.497 -2.8429  0.2953 -0.7682
 2805SOL     OW 9855   3.589   5.219   5.026 -0.1349  0.2314  0.5771
 2805SOL    HW1 9856   3.543   5.199   5.107  0.5214 -2.1467  0.4466
 2805SOL    HW2 9857   3.654   5.149   5.017 -0.1536  0.4407 -1.9639
 2806SOL     OW 9858   4.005   1.014   3.692 -0.3107  0.1367  0.0944
 2806SOL    HW1 9859   4.080   1.042   3.745  0.2892 -0.1148 -0.6047
 2806SOL    HW2 9860   4.044   0.970   3.617 -1.1850 -1.5966  0.5997
 2807SOL     OW 9861   4.739   2.437   4.443 -0.3906  0.1184 -0.0261
 2807SOL    HW1 9862   4.659   2.394   4.412 -0.1308  0.3321 -1.0217
 2807SOL    HW2 9863   4.762   2.499   4.374  0.7929 -0.1459  0.1074
 2808SOL     OW 9864   0.210   1.466   2.945 -0.6239 -0.1531 -0.0828
 2808SOL    HW1 9865   0.255   1.545   2.914 -1.7750 -0.3988 -2.6434
 2808SOL    HW2 9866   0.117   1.488   2.941 -0.9100 -1.1355  0.7208
 2809SOL     OW 9867   0.970   7.745  10.026 -0.0236  0.1638  0.1986
 2809SOL    HW1 9868   1.012   7.660  10.042 -1.9727 -1.3960 -2.1919
 2809SOL    HW2 9869   1.041   7.800   9.992  0.8488 -1.2737 -0.4292
 2810SOL     OW 9870   4.392   0.609   1.574 -0.4396 -0.4795 -0.0595
 2810SOL    HW1 9871   4.361   0.553   1.502  1.0031  0.1143 -1.2068
 2810SOL    HW2 9872   4.343   0.691   1.563  0.4617 -0.0475 -0.9871
 2811SOL     OW 9873   4.626   3.385  11.697  0.2660  0.0009  0.0055
 2811SOL    HW1 9874   4.572   3.426  11.765  1.7838  0.5177  0.9369
 2811SOL    HW2 9875   4.647   3.457  11.638  3.2792  0.8100  1.8642
 2812SOL     OW 9876   4.302   6.051   3.236 -0.2331 -0.1635  0.1291
 2812SOL    HW1 9877   4.290   6.065   3.142 -0.5808  2.1073  0.4486
 2812SOL    HW2 9878   4.215   6.028   3.268 -0.2895 -0.1120  0.0142
 2813SOL     OW 9879   4.012   4.287   0.204 -0.2008  0.3358  0.4980
 2813SOL    HW1 9880   4.042   4.264   0.292 -1.0711  0.9281  0.9641
 2813SOL    HW2 9881   3.920   4.310   0.215 -0.4243  0.0627 -0.6365
 2814SOL     OW 9882   5.505   1.869  11.856 -0.0036 -0.3488 -0.1133
 2814SOL    HW1 9883   5.528   1.785  11.817  0.7860 -0.3758  0.3879
 2814SOL    HW2 9884   5.417   1.856  11.893 -0.3570 -0.6026 -1.0287
 2815SOL     OW 9885   7.723   6.019   8.884  0.0379 -0.5533  0.3424
 2815SOL    HW1 9886   7.813   6.031   8.852  0.2439 -0.1810  1.0481
 2815SOL    HW2 9887   7.668   6.031   8.806  0.6000 -0.7752 -0.0919
 2816SOL     OW 9888   4.198   7.419  10.132  0.4954 -0.6850 -0.0742
 2816SOL    HW1 9889   4.133   7.404  10.064  1.0131  0.5331 -0.8775
 2816SOL    HW2 9890   4.251   7.491  10.099 -1.5591  2.7040  3.1781
 2817SOL     OW 9891   7.436   0.810  12.095  0.0359  0.0605  0.2434
 2817SOL    HW1 9892   7.461   0.902  12.107  1.9200 -0.5798  1.8900
 2817SOL    HW2 9893   7.432   0.775  12.184 -2.5734 -1.0430 -0.2333
 2818SOL     OW 9894   7.403   7.682   7.792  0.3677  0.7332 -0.6353
 2818SOL    HW1 9895   7.337   7.623   7.754  1.0142  0.1915 -0.9464
 2818SOL    HW2 9896   7.455   7.710   7.717  2.2443 -1.0781 -0.0954
 2819SOL     OW 9897   1.024   0.226  12.216 -0.2510  0.3488 -0.3102
 2819SOL    HW1 9898   1.036   0.320  12.208  2.5365  0.1018  0.0862
 2819SOL    HW2 9899   1.083   0.188  12.151 -2.5301 -1.1741 -1.6315
 2820SOL     OW 9900   1.310   5.871   6.134 -0.1745 -0.3996 -0.1618
 2820SOL    HW1 9901   1.348   5.862   6.046  0.8581  1.9791 -0.0188
 2820SOL    HW2 9902   1.248   5.942   6.126 -1.7159 -1.6067  0.5838
 2821SOL     OW 9903   4.332   0.723  12.163  0.3942  0.1402  0.0368
 2821SOL    HW1 9904   4.294   0.665  12.229  0.5147 -0.1495 -0.1508
 2821SOL    HW2 9905   4.423   0.694  12.154  0.4293  0.2980 -0.1238
 2822SOL     OW 9906   3.229   6.574   0.540  0.1639  0.1721  0.6044
 2822SOL    HW1 9907   3.292   6.506   0.561  0.6838  0.5356  0.2431
 2822SOL    HW2 9908   3.265   6.654   0.578  1.6833  1.0787 -2.3821
 2823SOL     OW 9909   3.320   3.233  11.462 -0.2480 -0.3646 -0.7654
 2823SOL    HW1 9910   3.244   3.266  11.510 -1.5688 -2.2191 -1.4667
 2823SOL    HW2 9911   3.365   3.312  11.433 -1.5727  0.8014  0.1697
 2824SOL     OW 9912   5.786   0.251   2.339  0.2266 -0.0658  0.0751
 2824SOL    HW1 9913   5.759   0.302   2.263 -0.5454  0.5066  0.7167
 2824SOL    HW2 9914   5.842   0.310   2.390  0.7593 -0.4540 -0.0489
 2825SOL     OW 9915   7.561   5.833   9.531  0.1095  0.0377  0.6462
 2825SOL    HW1 9916   7.583   5.840   9.624 -1.7693  2.7996  0.9913
 2825SOL    HW2 9917   7.602   5.909   9.491  0.5616 -0.9102 -0.7670
 2826SOL     OW 9918   4.387   6.307   0.512  0.2466 -0.8567  0.2224
 2826SOL    HW1 9919   4.342   6.341   0.434  0.1311 -1.6669 -0.0775
 2826SOL    HW2 9920   4.460   6.367   0.525 -1.3669  1.0051  1.2205
 2827SOL     OW 9921   5.558   1.652   3.357 -0.7673 -0.1535 -0.2763
 2827SOL    HW1 9922   5.638   1.607   3.331  0.6043  1.8253  0.2626
 2827SOL    HW2 9923   5.505   1.585   3.400  0.8058 -1.4147 -0.2399
 2828SOL     OW 9924   5.061   7.225   0.755  0.5421  0.1350 -0.5159
 2828SOL    HW1 9925   5.091   7.256   0.670  0.8429 -0.2524 -0.5560
 2828SOL    HW2 9926   5.040   7.132   0.740  3.0325 -0.6697  0.4038
 2829SOL     OW 9927   3.792   5.012   3.539  0.1779 -0.1573 -0.1795
 2829SOL    HW1 9928   3.884   4.989   3.525  0.4487  0.0170  1.1430
 2829SOL    HW2 9929   3.749   4.928   3.560  0.5265  0.0436  1.4900
 2830SOL     OW 9930   0.859   0.617   2.905  0.8683  0.2898 -0.2374
 2830SOL    HW1 9931   0.828   0.665   2.982 -1.2561 -0.0329 -0.8472
 2830SOL    HW2 9932   0.877   0.685   2.840 -0.3146  0.3993 -0.4673
 2831SOL     OW 9933   1.267   6.373   6.116  0.6406 -0.1197  0.0182
 2831SOL    HW1 9934   1.306   6.452   6.078 -0.9295  0.4577 -0.4674
 2831SOL    HW2 9935   1.182   6.402   6.150  0.1466 -1.5558  0.0724
 2832SOL     OW 9936   2.508   0.813  11.943  1.0191  0.0507  0.1348
 2832SOL    HW1 9937   2.452   0.818  12.020  1.9189  1.1867  0.7407
 2832SOL    HW2 9938   2.589   0.775  11.975  2.3861  2.9418  0.4090
 2833SOL     OW 9939   4.501   7.103   0.911 -0.4947  0.2723  0.0533
 2833SOL    HW1 9940   4.450   7.083   0.990  1.5477 -2.8348  0.7639
 2833SOL    HW2 9941   4.501   7.021   0.862  0.1896  1.4889 -2.0956
 2834SOL     OW 9942   5.955   5.795   3.820  0.1259  0.1704 -0.6243
 2834SOL    HW1 9943   6.037   5.822   3.778  0.8955 -0.2772  0.5514
 2834SOL    HW2 9944   5.971   5.804   3.914  0.0823 -3.2413 -0.1725
 2835SOL     OW 9945   7.205   2.028  11.960 -0.3442  0.1002  0.5780
 2835SOL    HW1 9946   7.199   2.043  11.866 -1.2232  0.9146  0.7399
 2835SOL    HW2 9947   7.216   1.934  11.969 -1.3553 -0.1296 -0.3216
 2836SOL     OW 9948   5.807   0.677   2.625 -0.1315 -0.1136 -0.1086
 2836SOL    HW1 9949   5.836   0.692   2.715  0.0296  0.3405 -0.2315
 2836SOL    HW2 9950   5.743   0.606   2.632 -0.6192  0.3588  0.4563
 2837SOL     OW 9951   0.079   4.140   3.193 -0.4304 -0.3185  0.7996
 2837SOL    HW1 9952   0.137   4.065   3.183 -0.8856 -0.6753  0.8493
 2837SOL    HW2 9953   0.078   4.182   3.107 -1.3162 -1.1953  0.3615
 2838SOL     OW 9954   1.132   4.020   0.082 -0.1933 -0.0786 -0.0404
 2838SOL    HW1 9955   1.135   4.015  -0.014 -0.9032 -1.9518 -0.0058
 2838SOL    HW2 9956   1.200   4.083   0.105 -0.5152  0.9719 -1.8079
 2839SOL     OW 9957   6.498   3.210   9.985 -0.4191 -0.3298 -0.3634
 2839SOL    HW1 9958   6.572   3.263   9.956  0.7727 -1.3835  0.6246
 2839SOL    HW2 9959   6.487   3.143   9.918 -2.1404  1.2689 -1.7846
 2840SOL     OW 9960   2.402   3.513   6.501 -0.0695  0.0485  0.3511
 2840SOL    HW1 9961   2.489   3.552   6.498  1.3271 -2.7162  1.0928
 2840SOL    HW2 9962   2.356   3.549   6.426  2.1531  0.6767 -0.7769
 2841SOL     OW 9963   2.000   2.718   4.969  0.3678 -0.2465 -0.0991
 2841SOL    HW1 9964   2.026   2.724   4.877  3.1287  2.6425  0.6885
 2841SOL    HW2 9965   1.912   2.757   4.971 -0.0865 -1.1162 -1.5623
 2842SOL     OW 9966   1.158   0.901   5.389  0.5438 -0.2845 -0.5232
 2842SOL    HW1 9967   1.089   0.840   5.366 -0.5296  0.2501  1.0803
 2842SOL    HW2 9968   1.112   0.981   5.415  1.6395 -0.3944  2.0537
 2843SOL     OW 9969   2.125   6.816   8.791  0.0361  0.2857  0.3244
 2843SOL    HW1 9970   2.097   6.736   8.746  1.1847 -0.1187  0.3166
 2843SOL    HW2 9971   2.220   6.817   8.781 -0.0611  2.4171 -0.9618
 2844SOL     OW 9972   1.179   5.563   9.999  0.4047 -0.4518  0.4445
 2844SOL    HW1 9973   1.130   5.531   9.923  0.4913  0.3106  0.0674
 2844SOL    HW2 9974   1.113   5.571  10.068 -0.1782  1.3269 -0.2822
 2845SOL     OW 9975   4.984   2.799   8.072  0.4500  0.0136  0.6878
 2845SOL    HW1 9976   5.026   2.808   8.158 -0.3219  1.0871  0.9757
 2845SOL    HW2 9977   4.901   2.755   8.091 -0.6237  1.9823  0.8183
 2846SOL     OW 9978   4.721   5.987   0.599 -0.5402 -0.0483  0.2700
 2846SOL    HW1 9979   4.696   5.903   0.560 -0.2938 -0.1566  0.3447
 2846SOL    HW2 9980   4.638   6.033   0.611 -0.7368 -0.5283  0.8045
 2847SOL     OW 9981   0.023   1.716  10.472  0.0194 -0.1815 -0.3052
 2847SOL    HW1 9982  -0.068   1.708  10.446  0.5816 -2.3838 -1.9085
 2847SOL    HW2 9983   0.024   1.695  10.565 -1.1984  0.8054 -0.0543
 2848SOL     OW 9984   4.900   3.021   9.441 -0.1226  0.2023 -0.2770
 2848SOL    HW1 9985   4.883   2.933   9.409 -0.5810  0.6269 -1.2366
 2848SOL    HW2 9986   4.863   3.022   9.529 -0.4156 -0.4533 -0.3888
 2849SOL     OW 9987   0.889   3.824   5.671 -0.2835  0.0937 -0.0548
 2849SOL    HW1 9988   0.934   3.788   5.748 -0.7432  1.7193  1.0128
 2849SOL    HW2 9989   0.960   3.849   5.612  0.1475  0.6900  0.7085
 2850SOL     OW 9990   3.244   2.267   7.078 -0.3060  0.4927  0.1789
 2850SOL    HW1 9991   3.165   2.321   7.081 -0.9875 -0.5259  1.0582
 2850SOL    HW2 9992   3.315   2.328   7.101 -1.2456  0.7156  2.8025
 2851SOL     OW 9993   5.612   4.349   7.191  0.1370 -0.1310  0.1473
 2851SOL    HW1 9994   5.533   4.299   7.172 -0.7567  1.3690 -0.1825
 2851SOL    HW2 9995   5.664   4.341   7.111  1.4688 -3.0595  1.1580
 2852SOL     OW 9996   0.341   3.282  12.454  0.6541  0.0932 -0.0190
 2852SOL    HW1 9997   0.410   3.284  12.388  1.4872 -1.5453  0.7339
 2852SOL    HW2 9998   0.347   3.366  12.498  3.5008 -0.6473  1.2665
 2853SOL     OW 9999   7.436   0.919   1.762 -0.2244 -0.3647  0.1824
 2853SOL    HW110000   7.488   0.964   1.829  0.6560 -0.4952 -0.4002
 2853SOL    HW210001   7.352   0.965   1.763 -0.3343 -0.5671  1.5875
 2854SOL     OW10002   0.008   2.821   7.667 -0.4466  0.0962 -0.1073
 2854SOL    HW110003  -0.069   2.870   7.640 -0.6018 -0.6204 -1.0080
 2854SOL    HW210004  -0.016   2.729   7.656  0.4341 -0.1426 -0.1324
 2855SOL     OW10005   0.967   7.871  11.537 -0.3355 -0.5113 -0.4049
 2855SOL    HW110006   0.925   7.887  11.621 -1.6232 -1.4499 -0.8314
 2855SOL    HW210007   0.898   7.888  11.472  0.2814 -0.9430 -1.1991
 2856SOL     OW10008   1.624   3.139   7.597  0.5443  0.8724 -0.0886
 2856SOL    HW110009   1.682   3.213   7.578 -1.4044  2.3156 -0.6759
 2856SOL    HW210010   1.638   3.079   7.523  1.5350  1.0063 -0.0300
 2857SOL     OW10011   3.702   1.852   0.982 -0.2479  0.1102  0.4811
 2857SOL    HW110012   3.700   1.932   0.931  0.4063  0.1322  0.4910
 2857SOL    HW210013   3.636   1.796   0.941 -0.8802  0.7307  0.6205
 2858SOL     OW10014   6.594   4.125  10.402 -0.0524 -0.1274 -0.5556
 2858SOL    HW110015   6.557   4.074  10.330  0.2853  1.2151 -1.7183
 2858SOL    HW210016   6.590   4.066  10.478 -0.6607 -1.4774 -1.6011
 2859SOL     OW10017   6.545   2.638  12.348 -0.1434 -0.5273 -0.6243
 2859SOL    HW110018   6.490   2.607  12.421 -0.5730  0.5697 -0.4712
 2859SOL    HW210019   6.624   2.671  12.390 -1.2773  2.1488 -0.3864
 2860SOL     OW10020   6.440   4.273  10.848 -0.2327 -0.1810  0.2496
 2860SOL    HW110021   6.470   4.278  10.757 -1.0524 -1.4207 -0.1099
 2860SOL    HW210022   6.504   4.325  10.897  0.4991  0.0972 -0.9624
 2861SOL     OW10023   5.233   0.486   1.516 -0.1202  0.3935  0.2300
 2861SOL    HW110024   5.205   0.466   1.605  0.4366  0.5996  0.4576
 2861SOL    HW210025   5.324   0.516   1.525  0.4068 -0.8668 -0.5454
 2862SOL     OW10026   5.047   3.463   0.486 -0.1879  0.0880 -0.0837
 2862SOL    HW110027   5.087   3.474   0.399  1.2818  1.0631  0.6693
 2862SOL    HW210028   4.958   3.495   0.475 -0.3376 -0.7192 -1.4624
 2863SOL     OW10029   6.841   4.769   4.962 -0.0046  0.2212  0.4771
 2863SOL    HW110030   6.788   4.823   4.904 -0.7452 -1.0568 -0.0615
 2863SOL    HW210031   6.899   4.831   5.006 -1.1953  1.5103  0.2800
 2864SOL     OW10032   6.498   7.982  12.426  0.5468  0.1991 -0.0676
 2864SOL    HW110033   6.529   7.902  12.469 -1.0078  0.2715  1.3107
 2864SOL    HW210034   6.530   8.053  12.483  0.0745  0.4223 -0.0774
 2865SOL     OW10035   6.823   4.496   2.776 -0.0593 -0.3413 -0.8097
 2865SOL    HW110036   6.841   4.451   2.859  0.0377  1.8942  0.4589
 2865SOL    HW210037   6.796   4.426   2.716 -1.2424 -1.9116  1.4123
 2866SOL     OW10038   3.218   6.199   0.553 -0.1776  0.0039 -0.7043
 2866SOL    HW110039   3.182   6.202   0.641 -0.7892 -0.8149 -0.9137
 2866SOL    HW210040   3.148   6.234   0.497 -0.0888 -0.1975 -0.9459
 2867SOL     OW10041   6.457   3.932   6.518 -0.1748  0.8555  0.2388
 2867SOL    HW110042   6.424   3.893   6.437  0.1225  0.4125  0.3311
 2867SOL    HW210043   6.541   3.888   6.534 -0.5524  0.4431  1.1605
 2868SOL     OW10044   1.721   6.035   3.665 -0.4913  0.2152  0.0961
 2868SOL    HW110045   1.743   5.951   3.626 -0.4188  0.3814 -0.2273
 2868SOL    HW210046   1.783   6.045   3.738  0.2699  0.5080 -0.5779
 2869SOL     OW10047   2.982   2.479   2.512 -0.2216  0.0924  0.1851
 2869SOL    HW110048   3.067   2.447   2.542 -0.2118 -0.5469 -0.4958
 2869SOL    HW210049   2.924   2.465   2.587  0.4417  1.3314  0.9625
 2870SOL     OW10050   7.327   1.055   6.481  0.9387  0.5789  0.1409
 2870SOL    HW110051   7.413   1.094   6.500  1.0293  0.7414 -0.5849
 2870SOL    HW210052   7.265   1.127   6.488  0.9868  0.6634 -0.2777
 2871SOL     OW10053   6.742   5.733   2.787  0.2733  0.3945 -0.5012
 2871SOL    HW110054   6.817   5.714   2.730 -0.4550  1.2603 -1.7957
 2871SOL    HW210055   6.669   5.689   2.745 -0.4486  1.7824 -0.7500
 2872SOL     OW10056   0.490   7.548  11.105 -0.4500 -0.1168 -0.3058
 2872SOL    HW110057   0.511   7.566  11.197  1.7575  1.4450 -1.0469
 2872SOL    HW210058   0.538   7.468  11.085  1.4302  1.0770 -0.8053
 2873SOL     OW10059   6.155   1.544   4.536 -0.5736  0.2219 -0.5374
 2873SOL    HW110060   6.111   1.520   4.454 -2.0616  2.5498 -0.5178
 2873SOL    HW210061   6.247   1.557   4.511 -0.6604 -0.7461 -1.4491
 2874SOL     OW10062   0.004   6.534  10.809 -0.0249 -0.3938  0.1306
 2874SOL    HW110063   0.087   6.521  10.854  0.6999 -0.6400 -1.2266
 2874SOL    HW210064  -0.048   6.457  10.833 -0.2150  0.1667  1.6560
 2875SOL     OW10065   7.564   6.613   1.777 -0.0857 -0.2964  0.1135
 2875SOL    HW110066   7.575   6.706   1.759  0.8532 -0.3166  0.4959
 2875SOL    HW210067   7.555   6.608   1.873 -0.4842 -0.5662  0.0645
 2876SOL     OW10068   3.595   4.428   4.308 -0.4334 -0.1585 -0.1732
 2876SOL    HW110069   3.620   4.488   4.237 -1.1515 -0.5937 -0.8063
 2876SOL    HW210070   3.677   4.413   4.356 -0.1012  0.7696 -0.4270
 2877SOL     OW10071   4.838   3.990   4.069 -0.1303  0.2361 -0.0616
 2877SOL    HW110072   4.863   4.016   3.981 -0.2526 -0.6955 -0.3795
 2877SOL    HW210073   4.875   4.058   4.126  1.8524 -0.2965 -0.6284
 2878SOL     OW10074   0.675   6.725   2.669  0.2840  0.2631  0.2440
 2878SOL    HW110075   0.699   6.741   2.761  2.0684 -0.8795  0.0076
 2878SOL    HW210076   0.673   6.630   2.661 -2.2795  0.2807 -0.3598
 2879SOL     OW10077   4.403   7.332  11.742  0.4292 -0.8111  0.2146
 2879SOL    HW110078   4.390   7.364  11.653  0.2665 -1.2831  0.0683
 2879SOL    HW210079   4.325   7.282  11.762  0.9887 -1.7221  0.1754
 2880SOL     OW10080   7.226   2.929   3.986 -0.8048  0.1615  1.0232
 2880SOL    HW110081   7.145   2.941   4.035 -0.4243 -1.4154  2.1175
 2880SOL    HW210082   7.271   2.857   4.031  0.6396  0.1944 -0.2799
 2881SOL     OW10083   0.931   7.844   8.738  0.1074 -0.2569  0.2447
 2881SOL    HW110084   0.911   7.773   8.677 -0.7481 -0.4439  0.7184
 2881SOL    HW210085   0.990   7.902   8.690 -0.2950 -0.5647 -0.6449
 2882SOL     OW10086   2.321   2.742   2.222 -0.4481 -0.1191 -0.1791
 2882SOL    HW110087   2.273   2.798   2.160 -0.5733 -0.0579 -0.0269
 2882SOL    HW210088   2.391   2.704   2.169 -0.3582  0.1843 -0.2836
 2883SOL     OW10089   6.056   7.579  10.859 -0.4575 -0.3274 -0.6280
 2883SOL    HW110090   6.081   7.564  10.768 -0.8023  1.0638 -0.9751
 2883SOL    HW210091   5.975   7.630  10.853 -1.1794 -1.2768  0.4746
 2884SOL     OW10092   5.714   6.705  10.345  0.1489  0.2748 -0.1226
 2884SOL    HW110093   5.725   6.787  10.393 -0.2014 -0.3496  1.0448
 2884SOL    HW210094   5.765   6.641  10.394  0.9213 -0.1020 -1.3634
 2885SOL     OW10095   6.862   1.140   4.358 -0.2347  0.1299 -0.0801
 2885SOL    HW110096   6.811   1.109   4.283 -0.4971  0.4756 -0.0480
 2885SOL    HW210097   6.908   1.216   4.325  0.3472 -0.2427 -0.1371
 2886SOL     OW10098   2.285   7.746   9.407  0.1548  0.3495  0.0578
 2886SOL    HW110099   2.211   7.799   9.380 -0.5659 -0.3073  0.7124
 2886SOL    HW210100   2.248   7.680   9.465  1.3358  0.4077  0.9277
 2887SOL     OW10101   3.681   7.698   9.240  0.0080 -0.3612  0.1750
 2887SOL    HW110102   3.728   7.638   9.297  1.7494  1.9715  1.3667
 2887SOL    HW210103   3.605   7.726   9.291  1.2515  1.2763  1.2211
 2888SOL     OW10104   4.155   3.980   0.830 -0.2706  0.4339 -0.0648
 2888SOL    HW110105   4.107   4.028   0.897 -0.1700 -0.3450  0.5722
 2888SOL    HW210106   4.125   3.890   0.838  0.4982  0.1421 -0.3777
 2889SOL     OW10107   2.649   7.075   2.819 -0.3361 -0.1917 -0.0642
 2889SOL    HW110108   2.651   7.035   2.906  1.1720  0.8406  0.4086
 2889SOL    HW210109   2.599   7.155   2.831 -0.3985 -0.2053 -0.2337
 2890SOL     OW10110   7.825   6.939   3.702 -0.2713 -0.2057  0.4417
 2890SOL    HW110111   7.902   6.994   3.690  0.2274 -1.3069 -2.1164
 2890SOL    HW210112   7.860   6.850   3.708 -1.2954 -0.6528  0.0135
 2891SOL     OW10113   7.506   5.988   2.861  0.4692 -0.2906 -0.0110
 2891SOL    HW110114   7.440   5.997   2.930  0.6503  1.0322  0.0172
 2891SOL    HW210115   7.484   5.905   2.818 -0.7062 -0.2843  0.5251
 2892SOL     OW10116   6.132   4.447  10.333  0.3422 -0.0501  0.8923
 2892SOL    HW110117   6.159   4.471  10.422  0.3198 -1.3882  1.2779
 2892SOL    HW210118   6.162   4.357  10.323 -0.7588 -0.3237 -0.0103
 2893SOL     OW10119   4.341   4.906  10.461  0.4260  0.3863 -0.2917
 2893SOL    HW110120   4.340   4.892  10.366  2.1497  1.3431 -0.4688
 2893SOL    HW210121   4.278   4.977  10.475  1.6248  1.6075 -0.9677
 2894SOL     OW10122   3.919   0.912   1.635  0.0416  0.2617 -0.4769
 2894SOL    HW110123   3.836   0.905   1.588 -0.1474  0.5441 -0.1945
 2894SOL    HW210124   3.928   1.006   1.653 -0.6062  0.0214  1.2912
 2895SOL     OW10125   6.250   3.137   5.446 -0.5622  0.1988 -0.3310
 2895SOL    HW110126   6.329   3.175   5.484 -1.0111 -0.3324  1.2018
 2895SOL    HW210127   6.282   3.063   5.394  0.0303  0.6703 -0.6481
 2896SOL     OW10128   0.330   7.699   0.276  0.3420  0.3064 -0.1283
 2896SOL    HW110129   0.389   7.624   0.271 -2.0992 -1.8765  1.4956
 2896SOL    HW210130   0.341   7.732   0.365  0.9257  1.5499 -0.6305
 2897SOL     OW10131   6.563   5.922   1.219  0.4453  0.0620 -0.2868
 2897SOL    HW110132   6.510   5.992   1.179 -2.2295 -1.1201  0.9545
 2897SOL    HW210133   6.604   5.964   1.295 -0.1914  0.5873 -0.2219
 2898SOL     OW10134   0.225   6.070   9.193 -0.2916 -0.5775  0.1323
 2898SOL    HW110135   0.308   6.086   9.239 -0.7424  0.0205  0.7501
 2898SOL    HW210136   0.173   6.019   9.255 -0.3695 -1.0197 -0.2866
 2899SOL     OW10137   5.731   5.009   1.206 -0.7367  0.1245 -0.3502
 2899SOL    HW110138   5.728   4.923   1.164  0.0014  0.1305 -0.4164
 2899SOL    HW210139   5.792   4.999   1.278 -0.0540  0.7913 -0.8128
 2900SOL     OW10140   7.649   1.904   7.484  0.0255  0.2474 -0.0672
 2900SOL    HW110141   7.588   1.969   7.518 -0.1019 -0.2573  0.6914
 2900SOL    HW210142   7.593   1.837   7.443  0.1464  0.5255 -0.6942
 2901SOL     OW10143   5.578   2.616   5.229  0.0343  0.0678  0.6052
 2901SOL    HW110144   5.611   2.658   5.309  1.2121 -1.1333  0.7778
 2901SOL    HW210145   5.633   2.651   5.159  1.0487 -1.1639  0.7553
 2902SOL     OW10146   5.389   3.782  10.108 -0.0600 -0.4018  0.5612
 2902SOL    HW110147   5.383   3.745  10.196  1.6094 -4.2494 -0.7154
 2902SOL    HW210148   5.478   3.815  10.101 -0.0078 -0.6173  0.1611
 2903SOL     OW10149   0.312   0.085   1.756 -0.5134 -0.1408  0.2558
 2903SOL    HW110150   0.366   0.013   1.724 -0.5376 -0.7138  1.4591
 2903SOL    HW210151   0.279   0.127   1.676  0.4824 -0.6992 -0.4772
 2904SOL     OW10152   2.212   3.930   2.187 -0.0984 -0.1707  0.2479
 2904SOL    HW110153   2.191   3.927   2.094  2.3200  1.6913 -0.4629
 2904SOL    HW210154   2.137   3.974   2.227 -0.2171  1.0291 -1.1976
 2905SOL     OW10155   1.886   6.840   4.407 -0.4104 -0.5977 -0.0761
 2905SOL    HW110156   1.801   6.796   4.396 -0.2442 -1.0165  0.2808
 2905SOL    HW210157   1.863   6.926   4.444 -0.5710 -1.4423  1.8963
 2906SOL     OW10158   5.585   6.591  12.321 -0.2704  0.3281  0.1543
 2906SOL    HW110159   5.666   6.541  12.322 -1.4886 -1.9154 -2.0289
 2906SOL    HW210160   5.531   6.549  12.389 -1.3220 -1.5679 -1.7312
 2907SOL     OW10161   2.438   2.469   8.802 -0.4781 -0.0778 -0.5982
 2907SOL    HW110162   2.409   2.468   8.893  1.0476  1.6574 -0.0160
 2907SOL    HW210163   2.447   2.562   8.781 -0.1567 -0.4679 -2.3106
 2908SOL     OW10164   7.775   4.492   9.536 -0.2106  0.4713  0.3857
 2908SOL    HW110165   7.744   4.408   9.501  0.9764  0.5185 -0.8613
 2908SOL    HW210166   7.777   4.479   9.631 -2.2253 -0.1241  0.3936
 2909SOL     OW10167   5.744   7.679   0.266 -0.1329  0.3946 -0.1627
 2909SOL    HW110168   5.712   7.740   0.332 -1.0015 -0.3388  0.1054
 2909SOL    HW210169   5.707   7.711   0.184 -0.7757  0.0935  0.0108
 2910SOL     OW10170   7.592   5.634   6.647 -0.5121  0.1949  0.4968
 2910SOL    HW110171   7.644   5.652   6.569  1.3957  0.0019  1.6603
 2910SOL    HW210172   7.593   5.716   6.697  0.4853 -0.4091  1.5158
 2911SOL     OW10173   5.692   3.453   4.941 -0.2936 -0.0736 -0.6034
 2911SOL    HW110174   5.676   3.358   4.944 -0.0324 -0.1068 -0.1355
 2911SOL    HW210175   5.650   3.486   5.020  1.4313 -0.0889  0.3515
 2912SOL     OW10176   5.032   2.355   9.300  0.6548 -0.1680 -0.1532
 2912SOL    HW110177   5.010   2.264   9.277  0.3857 -0.2344  0.3579
 2912SOL    HW210178   5.116   2.349   9.345  0.2055 -0.2803  0.7030
 2913SOL     OW10179   0.995   1.201   5.462  0.2319 -0.0848 -0.2433
 2913SOL    HW110180   1.041   1.284   5.453 -1.8315  1.2406  0.7192
 2913SOL    HW210181   0.940   1.212   5.540 -1.3196 -1.7303 -1.0259
 2914SOL     OW10182   2.539   3.182   7.775 -0.0496  0.4896  0.8727
 2914SOL    HW110183   2.627   3.220   7.772 -0.6899  2.1205  1.4847
 2914SOL    HW210184   2.486   3.247   7.822 -0.8597 -1.9425  3.6412
 2915SOL     OW10185   3.289   4.121   6.806  0.6516 -0.2379  0.0437
 2915SOL    HW110186   3.364   4.065   6.829  1.7084  0.7194 -0.9796
 2915SOL    HW210187   3.243   4.072   6.738  0.3063 -0.8341  0.6829
 2916SOL     OW10188   3.114   4.521   3.139 -0.0880  0.1020 -0.4005
 2916SOL    HW110189   3.076   4.461   3.074  0.5991 -0.4795 -0.2756
 2916SOL    HW210190   3.106   4.474   3.222  4.1931 -1.7648 -0.7916
 2917SOL     OW10191   4.923   1.040   5.215 -0.2375  0.1195 -0.1041
 2917SOL    HW110192   4.975   0.965   5.184  1.7139  1.4934 -0.3191
 2917SOL    HW210193   4.938   1.042   5.309 -0.7209 -0.0563 -0.0205
 2918SOL     OW10194   4.540   2.253  10.701  0.3337 -0.4647  0.4831
 2918SOL    HW110195   4.561   2.270  10.609 -0.9493 -0.2172  0.2214
 2918SOL    HW210196   4.455   2.294  10.714  0.6029 -0.2944  1.8558
 2919SOL     OW10197   0.555   1.910   0.532 -0.1557  0.2842 -0.1572
 2919SOL    HW110198   0.462   1.903   0.510 -0.1900  1.8283 -0.6255
 2919SOL    HW210199   0.563   1.992   0.580  0.8081 -0.3805  0.8688
 2920SOL     OW10200   2.815   7.610   7.195 -0.1288 -1.0517 -0.0020
 2920SOL    HW110201   2.751   7.565   7.250 -0.4323  0.6821  1.1442
 2920SOL    HW210202   2.765   7.677   7.150  0.7599 -0.0134  0.5090
 2921SOL     OW10203   4.917   7.579   4.810  0.8149 -0.1033  0.2621
 2921SOL    HW110204   4.962   7.495   4.798  0.5136 -0.0867 -1.0706
 2921SOL    HW210205   4.984   7.645   4.789  0.9985 -0.0032  1.1314
 2922SOL     OW10206   4.842   6.068  10.681  0.3397  0.1013 -0.2667
 2922SOL    HW110207   4.794   6.073  10.763 -0.8430  0.1704 -0.9481
 2922SOL    HW210208   4.871   6.158  10.664 -0.2223  0.2569 -0.3974
 2923SOL     OW10209   7.928   3.136   9.466 -0.4602 -0.1724 -0.3141
 2923SOL    HW110210   7.962   3.056   9.426  1.5449  0.5128 -0.1172
 2923SOL    HW210211   7.988   3.205   9.436 -1.5486  1.0997  0.3049
 2924SOL     OW10212   7.506   4.214   3.153 -0.1164  0.0630 -0.7744
 2924SOL    HW110213   7.538   4.141   3.206 -0.1713  0.2078 -0.5416
 2924SOL    HW210214   7.467   4.275   3.216  0.0565  0.3616 -0.9515
 2925SOL     OW10215   1.967   2.902   5.630 -0.2185 -0.0523 -0.0841
 2925SOL    HW110216   1.981   2.813   5.597 -0.6846  0.2905 -1.2911
 2925SOL    HW210217   1.975   2.957   5.552 -1.6409  0.7797  0.3167
 2926SOL     OW10218   7.831   3.230   5.347  0.4153  0.1326  0.6106
 2926SOL    HW110219   7.822   3.155   5.406  0.4134 -0.7669 -0.4973
 2926SOL    HW210220   7.874   3.297   5.400  1.4306 -1.0376  1.3288
 2927SOL     OW10221   4.498   3.187   1.980  0.4127  0.2365 -0.1748
 2927SOL    HW110222   4.515   3.094   1.988  1.1481  0.3375 -0.4444
 2927SOL    HW210223   4.517   3.223   2.067  2.2285  0.4269 -0.6072
 2928SOL     OW10224   0.288   7.219   1.905 -0.3645 -0.2377 -0.6503
 2928SOL    HW110225   0.370   7.208   1.953 -0.3334  0.4998 -0.5173
 2928SOL    HW210226   0.311   7.277   1.832 -0.9593  0.6930 -0.1071
 2929SOL     OW10227   0.043   2.029   0.963  0.2314  0.0126  0.5014
 2929SOL    HW110228   0.105   2.102   0.973 -1.2832  1.7129 -1.4906
 2929SOL    HW210229  -0.039   2.062   0.999 -0.2811 -1.0148  0.3038
 2930SOL     OW10230   1.077   3.133   9.242  0.1402  0.1259 -0.5944
 2930SOL    HW110231   1.109   3.214   9.203  1.4277 -0.9306 -1.8732
 2930SOL    HW210232   0.993   3.118   9.199 -0.1855  0.8617 -0.2258
 2931SOL     OW10233   2.619   7.298   8.588 -0.5867  0.0237  0.0763
 2931SOL    HW110234   2.683   7.368   8.575 -2.7942  2.7499  2.3957
 2931SOL    HW210235   2.534   7.343   8.585 -2.2124 -2.8265  0.3877
 2932SOL     OW10236   6.232   3.966   4.116  0.0085  0.3994  0.2120
 2932SOL    HW110237   6.228   3.927   4.028 -0.1036  0.6712  0.0978
 2932SOL    HW210238   6.320   4.003   4.121  0.1306  0.0947  0.3369
 2933SOL     OW10239   5.136   4.360   3.784 -0.2379 -0.4047 -0.0927
 2933SOL    HW110240   5.083   4.321   3.854  0.4068 -1.0164  0.0710
 2933SOL    HW210241   5.112   4.452   3.784 -3.2467 -1.0531 -1.7458
 2934SOL     OW10242   1.980   0.876   3.591 -0.3787 -0.2714  0.0018
 2934SOL    HW110243   2.037   0.843   3.522  0.9061 -2.0087  1.7647
 2934SOL    HW210244   1.956   0.798   3.641 -0.9736  0.9473  1.6945
 2935SOL     OW10245   3.695   0.103   5.933  0.0624  0.0336  0.8459
 2935SOL    HW110246   3.693   0.195   5.906  1.1132  0.8719  3.3361
 2935SOL    HW210247   3.739   0.058   5.861 -0.7647  1.3709 -0.5839
 2936SOL     OW10248   4.570   2.659   8.434 -0.0184 -0.2373 -0.5477
 2936SOL    HW110249   4.649   2.605   8.443 -1.2176 -1.9588  0.2336
 2936SOL    HW210250   4.498   2.596   8.428 -1.4588  1.2801 -0.1427
 2937SOL     OW10251   5.208   4.147   0.858  0.2557 -0.3002  0.1418
 2937SOL    HW110252   5.168   4.136   0.944 -0.6804 -1.2466 -0.3838
 2937SOL    HW210253   5.165   4.225   0.822 -0.4443 -0.7489 -0.0303
 2938SOL     OW10254   7.841   2.437   1.230 -0.0909  0.3891  0.1381
 2938SOL    HW110255   7.909   2.382   1.271 -0.8677 -1.0980 -0.4881
 2938SOL    HW210256   7.763   2.424   1.283 -0.6556 -0.2309 -0.8034
 2939SOL     OW10257   6.161   4.358   8.971  0.7789 -0.2116  0.1319
 2939SOL    HW110258   6.120   4.276   8.945  1.3716 -0.5126  0.1340
 2939SOL    HW210259   6.189   4.398   8.889 -0.6392  0.6090  0.0167
 2940SOL     OW10260   2.644   1.806   6.791  0.3266  0.5762 -0.5040
 2940SOL    HW110261   2.674   1.826   6.879 -1.9024  1.6198  0.0940
 2940SOL    HW210262   2.638   1.711   6.788 -1.0305  0.5701  1.0377
 2941SOL     OW10263   2.702   7.583  11.658  0.0546 -0.0502  0.5155
 2941SOL    HW110264   2.615   7.606  11.690 -0.3439  1.1479 -1.2651
 2941SOL    HW210265   2.762   7.625  11.719 -0.6552  1.6194  0.1261
 2942SOL     OW10266   5.498   5.609   9.505 -0.9071 -0.2112  0.1017
 2942SOL    HW110267   5.588   5.579   9.496 -0.3464  0.3611  2.7564
 2942SOL    HW210268   5.505   5.700   9.534 -2.4149  0.3753 -1.2061
 2943SOL     OW10269   1.309   2.486   7.430 -0.0688 -0.1720  0.1400
 2943SOL    HW110270   1.329   2.427   7.503  1.4554 -0.4881 -0.4846
 2943SOL    HW210271   1.219   2.466   7.406 -0.4313 -0.4040  1.6101
 2944SOL     OW10272   2.714   1.843   1.401 -0.1900  0.3559  0.5570
 2944SOL    HW110273   2.654   1.773   1.372  0.7864 -0.9899  1.6835
 2944SOL    HW210274   2.801   1.808   1.382  0.2956  1.7951  0.0510
 2945SOL     OW10275   2.083   4.162   2.393  0.6086 -0.0794 -0.2417
 2945SOL    HW110276   2.052   4.206   2.315 -1.1851 -0.9133 -0.0465
 2945SOL    HW210277   2.155   4.217   2.425 -0.0072  1.3957 -1.2973
 2946SOL     OW10278   3.169   0.345   7.020  0.2443 -0.4673  0.3020
 2946SOL    HW110279   3.252   0.310   6.988  0.1424  0.0559 -0.5560
 2946SOL    HW210280   3.170   0.436   6.993 -0.3016 -0.2753  0.9181
 2947SOL     OW10281   6.199   0.800   8.108  0.0240 -0.2552  0.3475
 2947SOL    HW110282   6.167   0.817   8.197  2.0229  1.2911  0.8452
 2947SOL    HW210283   6.128   0.752   8.066 -0.6612 -1.7728  3.0119
 2948SOL     OW10284   3.703   6.277   3.317 -0.3338 -0.1050  0.1945
 2948SOL    HW110285   3.724   6.261   3.225  0.7439  1.3074  0.1498
 2948SOL    HW210286   3.627   6.222   3.335 -0.7483 -0.1812 -1.6209
 2949SOL     OW10287   0.988   3.486   4.173 -0.3390 -0.4135 -0.1683
 2949SOL    HW110288   1.036   3.533   4.242 -0.0177 -0.1602 -0.5588
 2949SOL    HW210289   1.044   3.413   4.150 -0.1823 -0.1753 -0.5547
 2950SOL     OW10290   5.189   3.907   5.430 -0.8555 -0.1438  0.9886
 2950SOL    HW110291   5.243   3.979   5.398  1.1358 -1.8019  0.3360
 2950SOL    HW210292   5.103   3.921   5.391  0.4295  0.0205 -2.0829
 2951SOL     OW10293   5.161   4.622   4.766  0.5293  0.5650 -0.2262
 2951SOL    HW110294   5.189   4.541   4.808 -0.4700  0.1881 -0.2633
 2951SOL    HW210295   5.127   4.676   4.837  1.6379  1.1711 -0.1278
 2952SOL     OW10296   3.875   4.153  11.315 -0.4670 -0.0795  0.5936
 2952SOL    HW110297   3.954   4.207  11.324  1.0569 -2.0087 -0.4922
 2952SOL    HW210298   3.833   4.158  11.401  0.6971  1.2056  1.1225
 2953SOL     OW10299   0.737   3.037   4.976  0.1904  0.5458  0.6530
 2953SOL    HW110300   0.747   2.981   4.899 -4.1263 -0.5552  0.5969
 2953SOL    HW210301   0.700   3.119   4.942 -2.5302 -0.2392  1.4066
 2954SOL     OW10302   7.923   6.881   2.134  0.1691  0.3426 -0.3134
 2954SOL    HW110303   7.898   6.899   2.044 -1.1805 -0.5482 -0.1454
 2954SOL    HW210304   7.916   6.786   2.142 -2.3437  0.5766  1.4166
 2955SOL     OW10305   4.684   6.140   2.214 -0.2046  0.3240 -0.3894
 2955SOL    HW110306   4.766   6.115   2.172 -0.0693  0.0671  0.0322
 2955SOL    HW210307   4.617   6.116   2.149  0.0709  0.8891 -0.8950
 2956SOL     OW10308   7.906   1.351   8.565  0.5959 -0.4922 -0.4384
 2956SOL    HW110309   7.861   1.299   8.498 -0.5653 -0.1563  0.0719
 2956SOL    HW210310   7.881   1.311   8.648 -1.3128  1.5793  0.0577
 2957SOL     OW10311   4.081   2.338   0.246 -0.1547 -0.2767 -0.3950
 2957SOL    HW110312   4.132   2.400   0.194 -0.0698 -0.4183 -0.4809
 2957SOL    HW210313   3.990   2.363   0.230 -0.1704 -0.8224 -1.2625
 2958SOL     OW10314   6.040   4.625   4.561  0.0307 -0.4675  0.5818
 2958SOL    HW110315   6.121   4.588   4.524  1.7609  1.2466  2.3653
 2958SOL    HW210316   5.973   4.608   4.496  2.4461  0.6523 -2.4346
 2959SOL     OW10317   4.559   7.047   9.862 -0.1981  0.1399  0.0697
 2959SOL    HW110318   4.512   6.975   9.903 -1.3066  1.0895  0.5354
 2959SOL    HW210319   4.592   7.100   9.935 -1.0084  1.1024 -0.2372
 2960SOL     OW10320   7.820   4.782   8.545 -0.8685  0.4128 -0.4347
 2960SOL    HW110321   7.890   4.716   8.548 -1.2298  0.0587  1.5896
 2960SOL    HW210322   7.852   4.847   8.483  0.5114 -0.5598 -0.8087
 2961SOL     OW10323   6.598   6.203   0.268 -0.7853 -0.1404 -0.8446
 2961SOL    HW110324   6.583   6.188   0.361  1.6090  0.8397 -0.2168
 2961SOL    HW210325   6.656   6.132   0.241  0.6799  1.0125 -0.8744
 2962SOL     OW10326   1.666   3.520   1.673 -0.1479  0.4541  0.0907
 2962SOL    HW110327   1.606   3.558   1.608  0.7969  1.7351 -0.0784
 2962SOL    HW210328   1.733   3.587   1.685  1.8640 -1.3372 -0.5322
 2963SOL     OW10329   4.489   4.524   8.503  0.0584 -0.0679 -0.2795
 2963SOL    HW110330   4.549   4.472   8.451 -1.5384 -1.7627 -0.5289
 2963SOL    HW210331   4.522   4.614   8.495  1.3298 -0.6354 -2.0763
 2964SOL     OW10332   6.297   1.003  11.677 -0.3725 -0.1749 -0.5334
 2964SOL    HW110333   6.258   0.983  11.762  0.9035  0.0902  0.1407
 2964SOL    HW210334   6.276   1.095  11.662  1.5434  0.5437  0.7525
 2965SOL     OW10335   7.162   5.641  11.714  0.2721  0.2350  0.5653
 2965SOL    HW110336   7.199   5.575  11.772 -0.4987 -1.6502 -0.9919
 2965SOL    HW210337   7.071   5.614  11.701  0.4613  0.5076 -1.6110
 2966SOL     OW10338   7.349   3.883  11.325 -0.7431  0.3484 -0.1507
 2966SOL    HW110339   7.424   3.926  11.284  2.0779 -3.2461  0.7228
 2966SOL    HW210340   7.366   3.890  11.419 -1.8338 -0.0766  0.0909
 2967SOL     OW10341   1.553   6.867  10.589  0.3378  0.0095  0.3400
 2967SOL    HW110342   1.556   6.774  10.608 -1.3414  0.3973  3.0837
 2967SOL    HW210343   1.528   6.873  10.497  3.0801 -2.1601 -0.6881
 2968SOL     OW10344   0.804   4.477  11.700  0.1036  0.1943 -0.6455
 2968SOL    HW110345   0.864   4.543  11.663  2.0429  0.0339  1.9077
 2968SOL    HW210346   0.832   4.395  11.660  2.4186 -0.0327  1.1578
 2969SOL     OW10347   6.929   5.688   9.508 -0.0199  0.6414 -0.5115
 2969SOL    HW110348   6.834   5.684   9.500 -0.0094 -0.4496 -0.2723
 2969SOL    HW210349   6.948   5.779   9.528 -1.0099  0.8856 -0.6506
 2970SOL     OW10350   7.222   2.184   2.151 -0.6744 -0.2727  0.1671
 2970SOL    HW110351   7.232   2.267   2.198 -0.0403 -0.2951  0.0713
 2970SOL    HW210352   7.128   2.165   2.158 -0.8754  0.5775 -0.0230
 2971SOL     OW10353   4.400   7.733   2.490  0.3870 -0.1612 -0.7941
 2971SOL    HW110354   4.382   7.643   2.517  0.4348  0.2917  0.8273
 2971SOL    HW210355   4.425   7.725   2.398 -0.6995 -1.6683 -1.0010
 2972SOL     OW10356   7.421   7.616   6.711 -0.0076 -0.3108  0.4821
 2972SOL    HW110357   7.516   7.624   6.713 -0.0670  0.4532  0.4360
 2972SOL    HW210358   7.396   7.654   6.627 -0.2385 -1.8542 -0.1713
 2973SOL     OW10359   7.458   1.655   4.819 -0.0666 -0.6705  0.2783
 2973SOL    HW110360   7.367   1.649   4.788 -0.8113 -0.1994  2.2109
 2973SOL    HW210361   7.509   1.605   4.755 -1.9305 -2.4041  0.0405
 2974SOL     OW10362   6.731   5.104   8.307  0.1867 -0.0827  0.2734
 2974SOL    HW110363   6.813   5.084   8.262  0.6534 -1.0003  1.4738
 2974SOL    HW210364   6.664   5.095   8.239  1.1703  2.0999 -1.0793
 2975SOL     OW10365   7.622   0.616   3.135  0.3922  0.3755 -0.3457
 2975SOL    HW110366   7.649   0.608   3.044  0.7228  2.1970 -0.4505
 2975SOL    HW210367   7.704   0.622   3.184  0.2963 -2.8363  0.4003
 2976SOL     OW10368   4.293   4.954  12.206  0.3374  0.5348 -0.6549
 2976SOL    HW110369   4.380   4.917  12.195  0.4675  1.1738 -1.9358
 2976SOL    HW210370   4.308   5.048  12.217 -0.2248  0.8197 -2.0733
 2977SOL     OW10371   5.565   5.151   0.569  0.4139  0.4194  0.0133
 2977SOL    HW110372   5.603   5.199   0.643 -0.3389 -1.5024  1.7377
 2977SOL    HW210373   5.472   5.143   0.590  0.3000 -0.7087 -0.8302
 2978SOL     OW10374   1.525   0.738   5.923  0.7236 -0.1012 -0.2426
 2978SOL    HW110375   1.544   0.831   5.911 -0.7519  0.0605 -1.5484
 2978SOL    HW210376   1.519   0.702   5.834  2.0062 -1.6373  0.2290
 2979SOL     OW10377   2.409   3.307   4.131 -0.0809  0.3077 -0.1579
 2979SOL    HW110378   2.484   3.309   4.073 -0.3582  0.6304 -0.5093
 2979SOL    HW210379   2.446   3.289   4.218  0.3040 -0.4541 -0.4699
 2980SOL     OW10380   7.161   3.632   8.325 -0.3278 -0.8209 -0.0409
 2980SOL    HW110381   7.092   3.566   8.325 -2.6052  1.3668  1.0334
 2980SOL    HW210382   7.123   3.706   8.278  0.9506  0.7570  1.2668
 2981SOL     OW10383   2.329   3.948   4.307  0.2237  0.1163 -0.2792
 2981SOL    HW110384   2.392   3.962   4.378  0.2843 -0.0583 -0.2984
 2981SOL    HW210385   2.244   3.946   4.351  0.4324 -2.4775  0.1293
 2982SOL     OW10386   5.340   4.533  11.707 -0.1510 -0.2043  0.5191
 2982SOL    HW110387   5.405   4.603  11.712 -1.0521  0.7467 -0.3432
 2982SOL    HW210388   5.374   4.464  11.763  1.9022 -0.0091 -0.3875
 2983SOL     OW10389   6.258   4.116   3.524  0.4500  0.1234 -0.2609
 2983SOL    HW110390   6.256   4.032   3.571 -0.0305 -0.7598 -1.7639
 2983SOL    HW210391   6.346   4.120   3.486  0.7700  0.7350  0.5312
 2984SOL     OW10392   0.110   3.552   0.342 -0.6588 -0.1546 -0.2255
 2984SOL    HW110393   0.123   3.481   0.405 -1.4071 -0.7207 -0.7057
 2984SOL    HW210394   0.157   3.626   0.381 -0.1068 -0.8246  0.4155
 2985SOL     OW10395   5.177   7.285   7.159  0.0011  0.2736 -0.2001
 2985SOL    HW110396   5.132   7.362   7.124  0.2150 -0.9912 -3.5338
 2985SOL    HW210397   5.108   7.220   7.170  0.3672 -0.3035 -1.2216
 2986SOL     OW10398   1.971   3.508  10.733 -0.0376 -0.1497 -0.0283
 2986SOL    HW110399   1.882   3.478  10.718 -0.7270  1.5941  0.3091
 2986SOL    HW210400   1.969   3.547  10.820  1.6423 -2.0526  0.9343
 2987SOL     OW10401   5.012   6.890   8.722  0.0985 -0.1768 -0.0012
 2987SOL    HW110402   4.989   6.799   8.742  0.6110  0.2691  3.1246
 2987SOL    HW210403   5.084   6.910   8.782 -0.1460  2.3741 -0.4457
 2988SOL     OW10404   3.906   2.165  10.316  0.5177  0.2981  0.2434
 2988SOL    HW110405   3.827   2.214  10.295 -0.4254  1.4321  5.0801
 2988SOL    HW210406   3.977   2.215  10.276 -0.9467  1.3168 -1.1888
 2989SOL     OW10407   6.464   4.109  12.002 -0.5916  0.1957 -0.6418
 2989SOL    HW110408   6.446   4.026  11.957  1.4003 -1.5239  1.4350
 2989SOL    HW210409   6.524   4.156  11.944  0.2109 -0.9872 -0.8109
 2990SOL     OW10410   6.134   4.902  12.124  0.5356  0.2476  0.1250
 2990SOL    HW110411   6.043   4.884  12.146  0.1922  0.8617 -0.7388
 2990SOL    HW210412   6.183   4.884  12.205 -0.3026 -0.4137  0.4881
 2991SOL     OW10413   6.536   2.566   7.879 -0.1635  0.7519  0.5575
 2991SOL    HW110414   6.496   2.632   7.936 -0.0371  0.5339  0.8947
 2991SOL    HW210415   6.620   2.545   7.921 -0.8366 -0.6891  1.2326
 2992SOL     OW10416   1.526   7.590   7.856 -0.0072  0.0982 -0.2673
 2992SOL    HW110417   1.472   7.511   7.863  0.1451 -0.1802 -1.8227
 2992SOL    HW210418   1.476   7.649   7.800  0.0477  0.9738  0.5871
 2993SOL     OW10419   2.578   6.963   7.320 -0.4136  0.0320 -0.4849
 2993SOL    HW110420   2.672   6.956   7.302 -0.2584  0.5471  0.0945
 2993SOL    HW210421   2.538   6.899   7.261 -0.0688  2.3742 -3.5633
 2994SOL     OW10422   3.352   1.192   8.830  0.2759 -0.5861 -0.2651
 2994SOL    HW110423   3.440   1.227   8.848  0.1422  0.2352 -1.1365
 2994SOL    HW210424   3.294   1.245   8.884  0.2513 -0.7383 -0.1399
 2995SOL     OW10425   5.151   3.061   9.864 -0.2210 -0.5221 -0.0794
 2995SOL    HW110426   5.214   3.042   9.933  1.8496  1.6368 -1.2302
 2995SOL    HW210427   5.202   3.064   9.783 -2.2794 -1.3254 -1.5085
 2996SOL     OW10428   2.418   6.836  11.894 -0.9731  0.0045  0.0895
 2996SOL    HW110429   2.422   6.884  11.977  2.2868  0.3042 -0.1105
 2996SOL    HW210430   2.379   6.752  11.916 -0.8447  0.3601  1.7954
 2997SOL     OW10431   3.770   0.570   9.524 -0.3301 -0.1812  0.2305
 2997SOL    HW110432   3.681   0.566   9.559  0.1548 -1.4615  1.4053
 2997SOL    HW210433   3.776   0.493   9.468  0.0087 -0.0345  0.0669
 2998SOL     OW10434   6.172   4.476  10.595  0.0070 -0.2456  0.0178
 2998SOL    HW110435   6.096   4.417  10.602 -0.0877 -0.2342 -0.8276
 2998SOL    HW210436   6.141   4.559  10.630 -0.2613 -0.3410  0.0094
 2999SOL     OW10437   7.475   2.066  10.141 -0.2176  0.0980  0.4383
 2999SOL    HW110438   7.407   2.094  10.202  1.6526  1.4571  2.0274
 2999SOL    HW210439   7.549   2.041  10.197  0.9351 -0.4144 -1.2302
 3000SOL     OW10440   3.191   4.360  12.036  0.1133 -0.2832  0.0462
 3000SOL    HW110441   3.267   4.302  12.038  0.1443 -0.2136  1.3141
 3000SOL    HW210442   3.142   4.332  11.959  0.5973 -1.3889  0.1267
 3001SOL     OW10443   6.518   7.936   4.497  0.6438  0.2928  0.1629
 3001SOL    HW110444   6.439   7.885   4.515  1.3071 -0.9648 -0.4163
 3001SOL    HW210445   6.576   7.917   4.570  0.3621  1.3727  0.6900
 3002SOL     OW10446   5.189   5.557   4.023 -0.3181 -0.0106  0.0575
 3002SOL    HW110447   5.186   5.597   3.936 -1.1771  1.5851  0.7772
 3002SOL    HW210448   5.102   5.520   4.035  0.3629 -1.9070 -0.4622
 3003SOL     OW10449   3.423   6.469   0.969 -0.1845 -0.3436 -0.1043
 3003SOL    HW110450   3.413   6.561   0.995 -0.8292 -0.8951  1.7322
 3003SOL    HW210451   3.517   6.452   0.974 -0.1105  0.0864  0.0151
 3004SOL     OW10452   6.835   7.567   3.267 -0.3086  0.0464  0.7530
 3004SOL    HW110453   6.747   7.588   3.298 -0.6411 -1.4078  0.8649
 3004SOL    HW210454   6.868   7.502   3.330  0.3382 -0.3820 -0.0074
 3005SOL     OW10455   1.979   7.867  12.249  0.1416 -0.9080  0.6711
 3005SOL    HW110456   1.963   7.814  12.172  0.3037 -1.5135  1.0433
 3005SOL    HW210457   1.905   7.850  12.306  0.9150 -1.9150  1.4197
 3006SOL     OW10458   1.466   5.514   5.855  0.5767  0.0985 -0.5612
 3006SOL    HW110459   1.386   5.495   5.805 -0.7064  1.0214  1.0412
 3006SOL    HW210460   1.537   5.488   5.796 -0.8646  0.2143 -2.4730
 3007SOL     OW10461   7.283   7.028   3.635  0.1600 -0.0302 -0.3283
 3007SOL    HW110462   7.284   6.944   3.589  1.1294  0.2875 -0.9339
 3007SOL    HW210463   7.376   7.049   3.648 -0.0400  1.2823 -0.8480
 3008SOL     OW10464   5.847   3.064  11.383 -0.0985  0.8095  0.2971
 3008SOL    HW110465   5.755   3.048  11.406 -0.7106  0.7208 -2.0064
 3008SOL    HW210466   5.889   3.086  11.466 -2.6296  2.9144  1.1591
 3009SOL     OW10467   1.235   2.926   2.287 -0.4093 -0.9809 -0.6373
 3009SOL    HW110468   1.242   2.918   2.382 -1.8026  0.4623 -0.3478
 3009SOL    HW210469   1.160   2.871   2.264  0.0993 -1.5532 -0.9613
 3010SOL     OW10470   0.837   6.896   4.236  0.1118 -0.3998 -0.2405
 3010SOL    HW110471   0.848   6.837   4.311 -0.1224 -0.0947  0.0408
 3010SOL    HW210472   0.898   6.863   4.170 -0.5754 -1.4322 -0.3871
 3011SOL     OW10473   2.568   2.535  10.983 -0.2905 -0.1110  0.3445
 3011SOL    HW110474   2.486   2.512  11.026 -0.3922  1.8473  1.3350
 3011SOL    HW210475   2.545   2.609  10.926  0.4052 -0.8761 -0.9681
 3012SOL     OW10476   6.041   1.284   6.769  0.4549  0.1306  0.0511
 3012SOL    HW110477   5.984   1.291   6.692  1.0887 -1.3463 -0.5770
 3012SOL    HW210478   5.990   1.234   6.832  0.5767 -0.1043 -0.0372
 3013SOL     OW10479   2.191   5.603   0.515  0.1282 -0.2180  0.3350
 3013SOL    HW110480   2.219   5.579   0.427 -0.1079  1.4842 -0.2359
 3013SOL    HW210481   2.096   5.597   0.512  0.1017  0.1926  0.3647
 3014SOL     OW10482   2.253   0.056  11.749 -0.7149 -0.1263 -0.6706
 3014SOL    HW110483   2.289   0.120  11.811  1.3299 -0.0952 -1.8030
 3014SOL    HW210484   2.181   0.014  11.797 -1.1213  1.9302  0.6414
 3015SOL     OW10485   7.229   5.893   8.975 -0.1706  0.7816  0.1372
 3015SOL    HW110486   7.251   5.833   9.046  0.9378  0.6243 -0.3192
 3015SOL    HW210487   7.298   5.960   8.978 -1.1143  1.7852  0.3366
 3016SOL     OW10488   2.457   0.217   2.251  0.0688  0.1875  0.0316
 3016SOL    HW110489   2.398   0.171   2.192  0.3599  0.6793 -0.6490
 3016SOL    HW210490   2.400   0.279   2.297  0.0436  0.6809 -0.6455
 3017SOL     OW10491   6.729   7.370   0.128  0.1873  0.5220 -0.3849
 3017SOL    HW110492   6.722   7.414   0.043  0.2857  2.5241  0.5906
 3017SOL    HW210493   6.821   7.342   0.132  0.7642  2.3439 -0.0742
 3018SOL     OW10494   4.850   2.686   7.119 -0.2961  0.2458  0.4971
 3018SOL    HW110495   4.791   2.746   7.164 -0.7526 -0.4652  0.8660
 3018SOL    HW210496   4.929   2.738   7.102 -0.1817  0.6080  1.9519
 3019SOL     OW10497   7.187   5.900   3.669 -0.1749  0.4452 -0.3248
 3019SOL    HW110498   7.227   5.972   3.719 -0.9975  1.0950 -0.5691
 3019SOL    HW210499   7.224   5.821   3.707  1.1177  1.0117 -0.3671
 3020SOL     OW10500   1.867   1.145   5.599 -0.7532 -0.4129  0.4229
 3020SOL    HW110501   1.823   1.064   5.575 -0.3272 -0.3601 -0.5921
 3020SOL    HW210502   1.799   1.212   5.594 -0.6925 -0.4217 -0.5779
 3021SOL     OW10503   3.176   4.251   2.009  0.2149 -0.0423  0.6776
 3021SOL    HW110504   3.130   4.169   2.025  0.4393  0.0783  2.0665
 3021SOL    HW210505   3.108   4.314   1.987 -0.2022 -0.0938  1.7685
 3022SOL     OW10506   5.341   2.180  12.354 -0.7141 -0.3159 -0.3243
 3022SOL    HW110507   5.406   2.242  12.388  1.4619 -1.8624 -1.4146
 3022SOL    HW210508   5.300   2.143  12.432  2.1690 -1.7547  0.6324
 3023SOL     OW10509   1.012   5.952   3.045 -0.0138  0.1595 -0.2495
 3023SOL    HW110510   0.919   5.938   3.060 -0.1860  0.9210 -0.5752
 3023SOL    HW210511   1.016   6.007   2.967  0.7613 -1.2440 -1.2701
 3024SOL     OW10512   0.088   6.670   8.953  0.1060  0.0467 -0.4112
 3024SOL    HW110513   0.019   6.631   8.900 -2.2522  1.1745  1.6307
 3024SOL    HW210514   0.102   6.756   8.914  0.5497 -0.2816 -0.9806
 3025SOL     OW10515   7.480   5.667   7.354 -0.4451 -0.4674  0.3915
 3025SOL    HW110516   7.493   5.739   7.415  0.4359  0.0681 -0.4039
 3025SOL    HW210517   7.568   5.641   7.328 -0.8001 -0.2935 -1.0840
 3026SOL     OW10518   0.576   3.138  11.181 -0.0557  0.2418  0.5175
 3026SOL    HW110519   0.592   3.045  11.168 -0.9461  0.3982 -2.4618
 3026SOL    HW210520   0.485   3.144  11.209 -0.6853  0.2786 -1.4435
 3027SOL     OW10521   4.969   2.967   5.326 -0.3604  0.0336 -0.1711
 3027SOL    HW110522   5.050   2.916   5.327  1.0614  2.1857  0.2729
 3027SOL    HW210523   4.911   2.922   5.388  0.7521 -1.1119  0.0786
 3028SOL     OW10524   4.992   5.265   2.683  0.5550  0.0734 -0.0886
 3028SOL    HW110525   5.010   5.179   2.646  1.6888 -0.0737  0.7772
 3028SOL    HW210526   4.905   5.287   2.649 -0.2066 -1.8403  0.4743
 3029SOL     OW10527   0.561   6.496   3.862  0.3025 -0.0446 -0.1329
 3029SOL    HW110528   0.647   6.462   3.886 -0.1444 -1.2939 -0.2297
 3029SOL    HW210529   0.511   6.419   3.836 -0.4424  0.8053 -1.3437
 3030SOL     OW10530   5.779   0.329   5.781  0.2496 -0.1783  0.3457
 3030SOL    HW110531   5.821   0.383   5.849 -0.8780 -0.1733  1.0712
 3030SOL    HW210532   5.836   0.339   5.704  1.4837 -0.0759  1.2409
 3031SOL     OW10533   5.456   1.226   3.041  0.4805  0.0305  0.4365
 3031SOL    HW110534   5.415   1.147   3.079  3.4396 -1.0619  1.6561
 3031SOL    HW210535   5.395   1.296   3.061 -1.6744 -1.7291  0.4536
 3032SOL     OW10536   7.239   5.265   8.631  0.6043  0.3463  0.4297
 3032SOL    HW110537   7.180   5.190   8.625  0.8109  0.2395 -0.3529
 3032SOL    HW210538   7.282   5.254   8.716 -0.2906  0.2808  0.8878
 3033SOL     OW10539   7.969   0.540   0.886  0.0311 -0.7930  0.0855
 3033SOL    HW110540   7.892   0.593   0.866 -2.5374 -4.4471 -0.5534
 3033SOL    HW210541   8.015   0.532   0.802 -1.1236 -1.8151 -0.4725
 3034SOL     OW10542   4.681   1.239   4.335 -0.9633 -0.2294  0.5921
 3034SOL    HW110543   4.712   1.321   4.297 -1.0792 -1.1089 -1.5640
 3034SOL    HW210544   4.760   1.189   4.355 -0.8763  0.5512  2.3776
 3035SOL     OW10545   2.162   1.992   8.983  0.1975 -0.3800  0.2389
 3035SOL    HW110546   2.208   2.000   8.899  0.7929 -0.7615  0.5318
 3035SOL    HW210547   2.073   2.023   8.963  0.2485 -0.7428 -0.6095
 3036SOL     OW10548   1.338   6.000  10.950  0.4157  0.5351  0.3383
 3036SOL    HW110549   1.353   5.952  10.868  0.0667  0.2284  0.4504
 3036SOL    HW210550   1.426   6.022  10.981  0.5513  0.6557 -0.1181
 3037SOL     OW10551   0.149   7.775  11.125 -0.1574  0.1195  0.4731
 3037SOL    HW110552   0.070   7.824  11.101 -0.9438 -1.4497 -0.2698
 3037SOL    HW210553   0.203   7.777  11.045 -0.0759 -0.0067  0.5262
 3038SOL     OW10554   6.776   0.146  10.155  0.0788  0.4107 -0.0323
 3038SOL    HW110555   6.844   0.112  10.098  0.0906 -0.1645  0.3200
 3038SOL    HW210556   6.700   0.157  10.098  0.1987  0.1860 -0.2346
 3039SOL     OW10557   2.047   3.755   3.042 -0.5772  0.7450  0.2482
 3039SOL    HW110558   2.086   3.825   2.990  0.1995 -0.0350 -0.2261
 3039SOL    HW210559   2.120   3.699   3.067 -1.4913 -1.6666 -2.0459
 3040SOL     OW10560   1.418   4.172  10.425 -0.2462 -0.2803  0.3949
 3040SOL    HW110561   1.439   4.123  10.346 -0.1786 -0.4490  0.5177
 3040SOL    HW210562   1.346   4.230  10.399 -0.4895 -0.6187  0.3175
 3041SOL     OW10563   7.386   4.360   1.189  0.2407  0.2847 -0.1582
 3041SOL    HW110564   7.464   4.309   1.210  0.9768  1.5501  0.2900
 3041SOL    HW210565   7.363   4.405   1.270  1.0061  2.4512 -1.0550
 3042SOL     OW10566   2.030   0.450   0.920  0.3747 -0.2634  0.2930
 3042SOL    HW110567   1.941   0.487   0.919  0.9991  1.3297 -0.8899
 3042SOL    HW210568   2.022   0.366   0.874 -0.4840 -0.0612  0.0611
 3043SOL     OW10569   4.560   4.474   5.295 -0.0850  0.9218  0.1793
 3043SOL    HW110570   4.642   4.497   5.253 -0.3641  1.7313  0.0471
 3043SOL    HW210571   4.574   4.494   5.388  0.3427 -0.3263  0.3938
 3044SOL     OW10572   2.562   7.807   6.766  0.8566  0.2450  0.2201
 3044SOL    HW110573   2.479   7.820   6.813  0.3584  1.3898 -0.9088
 3044SOL    HW210574   2.620   7.874   6.802  1.2085 -0.3568  0.7904
 3045SOL     OW10575   2.931   6.420  10.916 -0.0468  0.5139 -0.1369
 3045SOL    HW110576   2.975   6.376  10.843  0.0712  0.4375 -0.0214
 3045SOL    HW210577   2.989   6.493  10.937  0.2297  0.1793  0.2757
 3046SOL     OW10578   6.300   0.852   8.457  0.0814 -0.0674 -0.7630
 3046SOL    HW110579   6.339   0.804   8.530 -0.8364 -0.2675 -0.3897
 3046SOL    HW210580   6.375   0.891   8.412  0.6669  0.1070  0.3104
 3047SOL     OW10581   1.926   2.695  10.243 -0.7823 -0.3765 -0.1381
 3047SOL    HW110582   1.928   2.667  10.334 -1.7806 -0.5193 -0.1480
 3047SOL    HW210583   2.007   2.660  10.205  0.4667  1.0904  1.0804
 3048SOL     OW10584   0.866   3.780  12.278 -0.2895  0.9708  0.3136
 3048SOL    HW110585   0.846   3.842  12.348 -1.2720 -1.6268  2.4821
 3048SOL    HW210586   0.781   3.758  12.240 -0.0682  0.1983  0.2522
 3049SOL     OW10587   3.631   6.496   7.657 -0.2874 -0.4029 -0.3738
 3049SOL    HW110588   3.557   6.440   7.680 -1.6581  1.9206  1.3227
 3049SOL    HW210589   3.707   6.452   7.693 -1.2201 -1.4940  0.3186
 3050SOL     OW10590   5.551   0.041   5.632  0.1148 -0.5632 -0.0322
 3050SOL    HW110591   5.545   0.134   5.611 -0.9463 -0.4976  0.4915
 3050SOL    HW210592   5.500  -0.002   5.564 -0.6935 -0.6188  0.5984
 3051SOL     OW10593   4.191   6.503   4.693 -0.3100  0.2314  0.2570
 3051SOL    HW110594   4.271   6.460   4.663 -0.1352  1.4876 -1.1919
 3051SOL    HW210595   4.154   6.542   4.614 -0.4931  2.6387  1.4462
 3052SOL     OW10596   2.876   0.905   9.727 -0.2534 -0.5228 -0.0472
 3052SOL    HW110597   2.895   0.922   9.634 -1.2622 -1.2380 -0.4054
 3052SOL    HW210598   2.960   0.916   9.771  0.2548 -0.2165 -1.0565
 3053SOL     OW10599   0.855   2.891   7.288  0.1103 -0.9572 -0.3057
 3053SOL    HW110600   0.774   2.856   7.324  0.4988  1.2613  3.2560
 3053SOL    HW210601   0.924   2.846   7.336  0.7415  0.7310  0.4709
 3054SOL     OW10602   0.094   6.521   2.292 -0.2621  0.0427  0.1209
 3054SOL    HW110603   0.141   6.583   2.237  0.1487  0.3235  0.7783
 3054SOL    HW210604   0.038   6.575   2.348  0.8013 -0.1000  1.3547
 3055SOL     OW10605   5.758   1.376   4.718 -0.6856  0.0230 -0.7615
 3055SOL    HW110606   5.699   1.449   4.737  0.3195  0.3591  1.3174
 3055SOL    HW210607   5.704   1.298   4.730 -0.8894  0.3383  0.4711
 3056SOL     OW10608   0.842   0.925   7.601  0.1194  0.1882 -0.0568
 3056SOL    HW110609   0.836   0.848   7.545 -1.3075 -0.4772  0.9539
 3056SOL    HW210610   0.775   0.912   7.668  1.9057  0.7940  1.9820
 3057SOL     OW10611   0.630   7.024   5.030  0.2507  0.4073  0.0483
 3057SOL    HW110612   0.572   6.958   4.991  0.1665  0.2942  0.3621
 3057SOL    HW210613   0.650   6.990   5.117  0.6747  0.5186 -0.0069
 3058SOL     OW10614   4.545   6.086  10.089  0.2314  0.6170 -0.3813
 3058SOL    HW110615   4.449   6.080  10.085  0.2235 -1.0537  0.9308
 3058SOL    HW210616   4.561   6.155  10.153 -0.1120  0.3751 -0.0281
 3059SOL     OW10617   7.320   5.519   2.524 -0.6073  0.4489  0.0758
 3059SOL    HW110618   7.293   5.428   2.514 -1.7886  0.6339  1.2598
 3059SOL    HW210619   7.407   5.523   2.485 -0.7705 -1.0551 -0.4969
 3060SOL     OW10620   6.544   2.242   3.428  0.1451 -0.2551  0.1322
 3060SOL    HW110621   6.540   2.180   3.355  1.7282  0.7012 -0.8162
 3060SOL    HW210622   6.484   2.313   3.402  0.1279 -0.2757  0.1149
 3061SOL     OW10623   1.588   4.375   6.588  0.1494 -0.5000  0.1837
 3061SOL    HW110624   1.586   4.471   6.595 -0.0122 -0.5497  0.9236
 3061SOL    HW210625   1.635   4.358   6.506 -0.6187  0.2198 -0.4287
 3062SOL     OW10626   1.510   7.313   5.980 -0.2865 -0.0664 -0.0765
 3062SOL    HW110627   1.521   7.404   5.952 -0.6606 -0.4369 -1.5345
 3062SOL    HW210628   1.457   7.274   5.911 -1.0413 -1.1298  1.0786
 3063SOL     OW10629   1.042   7.076   6.131  0.3084  0.2632 -0.2903
 3063SOL    HW110630   0.996   7.003   6.091  0.0149  0.8966 -1.1251
 3063SOL    HW210631   1.119   7.036   6.172  1.2089 -0.2997 -2.3843
 3064SOL     OW10632   4.117   5.454   1.108  0.4313 -0.3365  0.0236
 3064SOL    HW110633   4.165   5.371   1.101  1.1281  0.0003  0.7150
 3064SOL    HW210634   4.035   5.430   1.152  0.6906 -0.6285  0.3496
 3065SOL     OW10635   6.730   5.171   9.971  0.0392  0.4168 -0.1102
 3065SOL    HW110636   6.763   5.153   9.883  3.5136  1.6043  0.8159
 3065SOL    HW210637   6.786   5.120  10.029 -0.6382  1.4682  1.5444
 3066SOL     OW10638   4.466   4.173   0.501 -0.0537 -0.1794  0.0412
 3066SOL    HW110639   4.472   4.200   0.592 -0.6472  0.1119 -0.0043
 3066SOL    HW210640   4.381   4.204   0.471 -0.3310 -1.1977 -0.3027
 3067SOL     OW10641   0.734   1.689   1.624  0.7919 -0.3347  0.8546
 3067SOL    HW110642   0.665   1.648   1.676 -0.9935  2.9668  1.3715
 3067SOL    HW210643   0.732   1.641   1.541 -2.4927 -0.1878  0.6950
 3068SOL     OW10644   7.925   3.955   4.553  0.0859  0.0592 -0.0109
 3068SOL    HW110645   7.840   3.994   4.531 -0.1263  0.6086  1.5947
 3068SOL    HW210646   7.975   4.027   4.591  1.1593 -0.3456 -0.6084
 3069SOL     OW10647   6.175   6.704   2.022 -0.2694 -0.1517  0.3882
 3069SOL    HW110648   6.114   6.713   2.094 -0.0324  2.1917  0.3633
 3069SOL    HW210649   6.163   6.614   1.991 -1.7078 -0.5981  2.1180
 3070SOL     OW10650   7.719   7.778   0.472 -0.1546  0.5729 -0.5942
 3070SOL    HW110651   7.773   7.834   0.528  0.8950 -0.2576 -0.7453
 3070SOL    HW210652   7.782   7.735   0.414 -0.9267 -0.7174 -0.5085
 3071SOL     OW10653   6.121   5.152   7.167 -0.1455  0.7464 -0.0105
 3071SOL    HW110654   6.189   5.218   7.182  0.9910 -0.3680 -0.0867
 3071SOL    HW210655   6.062   5.161   7.242 -0.2355  2.1047 -0.2252
 3072SOL     OW10656   7.885   2.546   3.910 -0.5681  0.2813 -0.4480
 3072SOL    HW110657   7.975   2.570   3.886 -0.2665 -0.7125 -0.3782
 3072SOL    HW210658   7.879   2.566   4.003  0.9335 -3.2614  0.5767
 3073SOL     OW10659   1.387   4.177   0.277  0.6758 -0.3171  0.2199
 3073SOL    HW110660   1.479   4.196   0.262  0.5310 -0.8389 -1.6342
 3073SOL    HW210661   1.381   4.081   0.276  0.1625 -0.3012  0.7178
 3074SOL     OW10662   2.262   3.728  11.747  0.5341  0.3592 -0.3037
 3074SOL    HW110663   2.311   3.665  11.799  0.6974 -0.5008 -1.4555
 3074SOL    HW210664   2.175   3.732  11.787  1.1733  1.0575  1.0824
 3075SOL     OW10665   2.315   2.010   0.107  0.2130  0.1644  0.1032
 3075SOL    HW110666   2.293   1.992   0.199  0.7495 -1.7088 -0.0892
 3075SOL    HW210667   2.286   2.100   0.093 -2.8292 -0.5078  1.2038
 3076SOL     OW10668   5.644   6.189  11.212 -0.1378 -0.1708  0.1285
 3076SOL    HW110669   5.699   6.242  11.154 -1.3705  1.1977  0.1250
 3076SOL    HW210670   5.639   6.241  11.293 -0.1062 -1.0600  0.7078
 3077SOL     OW10671   3.515   0.863   8.660  0.2728 -0.4060  0.0480
 3077SOL    HW110672   3.591   0.825   8.702 -0.3620 -0.0459  1.5849
 3077SOL    HW210673   3.549   0.905   8.581  1.4239 -1.4756 -0.0423
 3078SOL     OW10674   4.552   2.004   2.566  0.3832 -0.1654  0.2170
 3078SOL    HW110675   4.526   1.953   2.489  1.3150 -0.4865  0.0909
 3078SOL    HW210676   4.642   2.030   2.547  0.2865  0.5906  0.7786
 3079SOL     OW10677   4.114   5.689   6.721  0.1002  0.5020  0.2852
 3079SOL    HW110678   4.109   5.616   6.660 -2.5267  0.2088  0.7255
 3079SOL    HW210679   4.154   5.653   6.800 -0.8690 -0.4188  0.3755
 3080SOL     OW10680   6.026   2.767   0.309 -0.8674 -0.1053 -0.1562
 3080SOL    HW110681   6.063   2.818   0.236 -0.0889  0.4733  0.6247
 3080SOL    HW210682   5.957   2.714   0.268  0.2787 -0.6205 -1.5049
 3081SOL     OW10683   0.867   6.302  10.104 -0.4850 -0.4570  0.1974
 3081SOL    HW110684   0.811   6.305  10.182  1.8440  1.3660  1.9640
 3081SOL    HW210685   0.854   6.387  10.062  0.8232 -0.0400  0.5887
 3082SOL     OW10686   3.213   0.295   7.689  0.8070 -0.0435 -0.4496
 3082SOL    HW110687   3.191   0.208   7.723  2.5337 -0.6504 -0.7590
 3082SOL    HW210688   3.228   0.349   7.766 -0.0601 -0.0763 -0.2549
 3083SOL     OW10689   4.088   2.680   5.118  0.3881 -0.6335  0.1493
 3083SOL    HW110690   4.183   2.694   5.113  0.3595 -0.5919 -0.2905
 3083SOL    HW210691   4.070   2.617   5.049 -0.1092  0.4065 -0.6909
 3084SOL     OW10692   3.855   1.310   0.202  0.0250 -0.3413  0.3863
 3084SOL    HW110693   3.829   1.401   0.220  1.0156  0.6494 -2.5003
 3084SOL    HW210694   3.876   1.273   0.288  0.2289  2.3792  1.6185
 3085SOL     OW10695   4.164   0.226   7.867 -0.4758  0.8888  0.0967
 3085SOL    HW110696   4.122   0.154   7.914  1.0862 -0.5707 -0.6168
 3085SOL    HW210697   4.098   0.257   7.806 -0.7477 -0.9793 -0.6304
 3086SOL     OW10698   6.261   2.560   8.954 -0.5702 -0.4868 -0.4437
 3086SOL    HW110699   6.256   2.647   8.993 -1.8793 -0.4080 -0.7728
 3086SOL    HW210700   6.295   2.575   8.866 -2.3767 -0.1110 -1.0960
 3087SOL     OW10701   6.366   7.152   0.656  0.3953  0.1759 -0.2381
 3087SOL    HW110702   6.416   7.109   0.725 -1.2546  2.1910  2.4141
 3087SOL    HW210703   6.284   7.102   0.651  0.2641  0.3980 -0.3194
 3088SOL     OW10704   0.793   5.693   0.857  0.0302 -0.1408  0.1356
 3088SOL    HW110705   0.853   5.625   0.826  1.6679  1.3678 -0.1693
 3088SOL    HW210706   0.734   5.708   0.783  0.2318 -0.6069 -0.1247
 3089SOL     OW10707   3.629   6.361   2.947 -0.2050 -0.5174 -0.2640
 3089SOL    HW110708   3.723   6.347   2.934  0.3232  0.8223  1.6626
 3089SOL    HW210709   3.609   6.442   2.900 -0.3427 -0.6501 -0.4370
 3090SOL     OW10710   2.646   0.967   6.189 -0.1073 -0.1559 -0.2605
 3090SOL    HW110711   2.718   1.014   6.231 -0.7134  1.8077 -1.3254
 3090SOL    HW210712   2.686   0.925   6.113  0.3032 -0.8469  0.3220
 3091SOL     OW10713   0.885   6.019  10.701  0.4876  0.3782 -0.3863
 3091SOL    HW110714   0.961   5.977  10.741  0.3544 -1.4938 -1.9366
 3091SOL    HW210715   0.813   5.960  10.718 -0.1589  1.0030 -0.8725
 3092SOL     OW10716   0.175   5.695   1.127  0.3576  0.2866 -0.3770
 3092SOL    HW110717   0.270   5.694   1.113  0.2654  0.5052 -1.0454
 3092SOL    HW210718   0.145   5.775   1.083 -0.0761  0.4846  0.2611
 3093SOL     OW10719   5.471   5.557  11.834  0.4637  0.1503  0.2783
 3093SOL    HW110720   5.460   5.539  11.928  0.8345  2.9822  0.9795
 3093SOL    HW210721   5.555   5.517  11.812 -0.0423 -1.3238  0.8990
 3094SOL     OW10722   0.656   2.034   5.992 -0.0172 -0.0720  0.0277
 3094SOL    HW110723   0.733   1.990   6.028 -0.7509 -0.7928  0.7840
 3094SOL    HW210724   0.687   2.119   5.963  1.4563 -1.0566 -1.4421
 3095SOL     OW10725   1.367   3.456   8.181 -0.2364 -0.1961  0.2445
 3095SOL    HW110726   1.353   3.509   8.259 -0.5321  0.5501 -0.3021
 3095SOL    HW210727   1.365   3.519   8.109  2.1138 -0.5552 -0.2088
 3096SOL     OW10728   0.058   2.013   5.148 -0.7527  0.1996  0.4809
 3096SOL    HW110729   0.045   1.965   5.230 -1.0759  1.3054  1.0936
 3096SOL    HW210730   0.109   2.090   5.173  0.3702 -0.1582 -0.6023
 3097SOL     OW10731   4.572   2.095   5.605 -0.1480  0.2122 -0.5683
 3097SOL    HW110732   4.665   2.072   5.605 -0.4365 -1.0048 -0.4196
 3097SOL    HW210733   4.536   2.052   5.683 -0.9051  0.3695 -0.8220
 3098SOL     OW10734   0.742   6.949   5.266 -0.1531  0.1971 -0.3816
 3098SOL    HW110735   0.787   7.033   5.262 -0.2493  0.2044 -1.5496
 3098SOL    HW210736   0.799   6.894   5.320  0.5349  0.6416 -0.6445
 3099SOL     OW10737   3.932   7.815  10.281 -0.0588 -0.5879  0.0876
 3099SOL    HW110738   4.020   7.834  10.250  0.3774 -0.4415  1.3741
 3099SOL    HW210739   3.875   7.850  10.213  0.8659 -0.2140 -0.5103
 3100SOL     OW10740   2.144   1.053  10.713 -0.0201 -0.1454  0.1326
 3100SOL    HW110741   2.160   0.968  10.671  2.7802  0.0809  0.5597
 3100SOL    HW210742   2.128   1.112  10.639 -0.7217 -0.7680 -0.2394
 3101SOL     OW10743   6.834   5.510  10.606  0.2234 -0.2407 -0.8087
 3101SOL    HW110744   6.771   5.575  10.638  1.0625  0.3777 -0.3944
 3101SOL    HW210745   6.887   5.488  10.682  2.1250  1.1056 -1.6679
 3102SOL     OW10746   1.153   7.036   3.800  0.3082  0.1976  0.2041
 3102SOL    HW110747   1.245   7.048   3.775  0.2692 -0.4393 -0.2969
 3102SOL    HW210748   1.107   7.108   3.757  0.6012  0.6452  0.6363
 3103SOL     OW10749   2.439   0.806   4.017  0.4647 -0.2889 -0.0995
 3103SOL    HW110750   2.354   0.844   4.039  1.3466  1.2394  0.8325
 3103SOL    HW210751   2.452   0.829   3.925  0.5361  0.8187  0.1751
 3104SOL     OW10752   3.830   2.726  10.214 -0.4563  0.0462  0.1237
 3104SOL    HW110753   3.869   2.716  10.301  0.5820 -2.6479 -0.5272
 3104SOL    HW210754   3.826   2.636  10.180 -1.6580  0.9297 -2.2636
 3105SOL     OW10755   2.424   5.930   9.209  0.1566 -0.2345 -0.7670
 3105SOL    HW110756   2.480   5.852   9.212  1.0639  0.3968 -0.9921
 3105SOL    HW210757   2.351   5.905   9.152 -0.1024 -1.2478 -0.0346
 3106SOL     OW10758   5.922   5.803  10.927 -0.5001 -0.1140 -0.1868
 3106SOL    HW110759   5.838   5.844  10.909  0.3226  1.4227 -0.7291
 3106SOL    HW210760   5.900   5.718  10.964 -2.2860  0.4597  0.1601
 3107SOL     OW10761   3.702   7.217   2.029  0.0772 -0.3239 -0.3732
 3107SOL    HW110762   3.659   7.281   1.972 -1.1200 -1.5426 -0.8874
 3107SOL    HW210763   3.686   7.250   2.117 -1.5562 -0.4866 -0.5741
 3108SOL     OW10764   7.314   2.568   4.930 -0.2580  0.1469 -0.6185
 3108SOL    HW110765   7.255   2.499   4.960  0.4476 -0.5409 -0.7950
 3108SOL    HW210766   7.334   2.545   4.839  2.6289 -1.3333  0.2691
 3109SOL     OW10767   6.450   4.628  10.983 -0.4221 -0.1347  0.2036
 3109SOL    HW110768   6.376   4.688  10.980 -1.1720 -1.0983 -1.6015
 3109SOL    HW210769   6.488   4.632  10.895  0.1444 -1.5251  0.3611
 3110SOL     OW10770   6.230   7.187   2.674 -0.3063 -0.5531 -0.3292
 3110SOL    HW110771   6.158   7.249   2.684  0.6491  0.4017  1.0084
 3110SOL    HW210772   6.289   7.206   2.747  0.7268 -2.1035 -0.6986
 3111SOL     OW10773   5.184   4.711   6.550  0.3972  1.1782 -0.0072
 3111SOL    HW110774   5.102   4.713   6.501  1.3714 -0.0318 -1.7555
 3111SOL    HW210775   5.252   4.696   6.484  1.8919  0.7396  1.5580
 3112SOL     OW10776   1.220   5.798   5.741  0.0109 -0.3500  0.1819
 3112SOL    HW110777   1.149   5.738   5.766 -0.2700  0.0710  0.4089
 3112SOL    HW210778   1.288   5.783   5.807  0.0392 -0.5945  0.0967
 3113SOL     OW10779   0.288   5.842   5.062  0.0403  0.2599  0.3747
 3113SOL    HW110780   0.219   5.892   5.019  1.8698  0.7103 -2.3076
 3113SOL    HW210781   0.292   5.760   5.012  2.9619  1.2425 -1.2800
 3114SOL     OW10782   4.860   6.889  10.844 -0.0040  0.3678 -0.3280
 3114SOL    HW110783   4.800   6.817  10.824  0.8648 -0.3128 -0.5279
 3114SOL    HW210784   4.934   6.876  10.784  1.4067 -0.1557  1.4329
 3115SOL     OW10785   5.515   0.653   3.046  0.3467  0.1458 -0.2169
 3115SOL    HW110786   5.438   0.626   3.096  0.4042 -0.3696 -0.3974
 3115SOL    HW210787   5.556   0.570   3.020  0.6693  0.4161 -0.5716
 3116SOL     OW10788   2.251   1.134  11.399  0.6180 -0.2315 -0.2877
 3116SOL    HW110789   2.179   1.113  11.338 -0.3315  3.5691 -0.6964
 3116SOL    HW210790   2.231   1.082  11.477 -3.0040  1.0565 -0.1488
 3117SOL     OW10791   6.468   3.989   4.383 -0.2840 -0.0450 -0.1020
 3117SOL    HW110792   6.549   3.940   4.394  0.3947  1.1691  0.5868
 3117SOL    HW210793   6.409   3.956   4.450 -0.2997 -0.8044 -0.4857
 3118SOL     OW10794   6.902   2.536   0.902 -0.0063 -0.3913  0.4178
 3118SOL    HW110795   6.975   2.598   0.905 -0.2964 -0.0769  1.2128
 3118SOL    HW210796   6.943   2.450   0.916  0.4061 -0.4007 -0.7565
 3119SOL     OW10797   3.583   0.295   8.150 -0.1250 -0.3468  0.5868
 3119SOL    HW110798   3.645   0.223   8.134  2.3020  1.3997  1.6008
 3119SOL    HW210799   3.499   0.251   8.161  0.6025 -2.7512 -2.1401
 3120SOL     OW10800   7.679   5.987   7.926  0.4045 -0.1221  0.2844
 3120SOL    HW110801   7.698   6.016   7.837  0.4870 -1.2647 -0.0763
 3120SOL    HW210802   7.628   5.906   7.915 -0.8584  0.4952  1.2586
 3121SOL     OW10803   1.524   6.600   0.687 -0.4784  0.1497  0.2319
 3121SOL    HW110804   1.469   6.525   0.665 -2.0397  0.9988  1.0654
 3121SOL    HW210805   1.530   6.650   0.605 -1.7062  0.4869  0.3217
 3122SOL     OW10806   5.603   0.349  12.353 -0.0391 -0.2199 -0.0042
 3122SOL    HW110807   5.665   0.406  12.398 -0.4440  0.6826 -0.5709
 3122SOL    HW210808   5.517   0.375  12.386 -0.3223  0.3134 -1.1215
 3123SOL     OW10809   6.820   3.211   9.202  0.1312  0.2087 -0.0937
 3123SOL    HW110810   6.909   3.181   9.183 -0.5799 -0.7527 -2.1889
 3123SOL    HW210811   6.807   3.284   9.141 -0.5267  0.3046  0.1643
 3124SOL     OW10812   1.473   1.716   8.217  0.1656 -0.2799  0.1611
 3124SOL    HW110813   1.527   1.651   8.172 -1.4142 -1.5757  0.0353
 3124SOL    HW210814   1.457   1.784   8.152  0.8907 -0.3415 -0.0844
 3125SOL     OW10815   1.261   3.758   5.731 -0.0637  0.0414  0.3007
 3125SOL    HW110816   1.176   3.725   5.758  1.0838 -1.4570  2.3842
 3125SOL    HW210817   1.251   3.780   5.638 -2.4706 -0.8107  0.3038
 3126SOL     OW10818   7.555   0.733  11.028  0.2092 -0.5299 -0.1412
 3126SOL    HW110819   7.574   0.655  10.976 -0.4076 -1.0899  0.4472
 3126SOL    HW210820   7.505   0.700  11.103  0.6771  0.3167  0.5639
 3127SOL     OW10821   7.845   2.015   9.010  0.2172 -0.1545 -0.6014
 3127SOL    HW110822   7.750   2.020   9.010  0.2602  1.7319  0.4917
 3127SOL    HW210823   7.865   1.921   9.014 -1.6514 -0.5548  2.3314
 3128SOL     OW10824   6.463   2.661   1.364 -0.0646  0.1854 -0.1336
 3128SOL    HW110825   6.399   2.632   1.299 -0.0331 -0.0074 -0.0794
 3128SOL    HW210826   6.545   2.620   1.338 -0.3532 -1.0895  0.8425
 3129SOL     OW10827   6.323   0.583   5.560  0.1884 -0.0333 -0.1018
 3129SOL    HW110828   6.297   0.494   5.536 -0.5228  0.1789 -0.1252
 3129SOL    HW210829   6.413   0.574   5.591 -0.1683 -0.8983  0.6990
 3130SOL     OW10830   5.194   3.151  11.636 -0.8032 -0.0685  0.0841
 3130SOL    HW110831   5.179   3.111  11.722 -2.5550  0.4486  0.0713
 3130SOL    HW210832   5.119   3.210  11.624 -0.8864 -0.4994 -2.0008
 3131SOL     OW10833   2.277   0.783  12.085  0.0511 -0.0706 -0.2851
 3131SOL    HW110834   2.220   0.849  12.045 -1.7274 -0.7427  1.0074
 3131SOL    HW210835   2.281   0.808  12.178  3.5615  1.0993 -0.5951
 3132SOL     OW10836   2.674   0.489   2.103 -0.0430 -0.1162 -0.0290
 3132SOL    HW110837   2.604   0.551   2.119  1.1068  1.4392 -0.7888
 3132SOL    HW210838   2.671   0.473   2.008 -0.0543 -0.8924  0.0949
 3133SOL     OW10839   2.954   2.748   6.948  0.1994  0.8083  0.3087
 3133SOL    HW110840   2.922   2.776   6.862  1.5408  2.0459  0.1830
 3133SOL    HW210841   3.049   2.745   6.939  0.2630 -1.6261  1.0211
 3134SOL     OW10842   6.690   4.953   0.034 -0.0387  0.3596 -0.0396
 3134SOL    HW110843   6.747   4.882   0.005 -0.3856 -0.3779  1.0390
 3134SOL    HW210844   6.636   4.974  -0.043 -1.6818 -2.2582  0.2761
 3135SOL     OW10845   5.351   3.171  11.189 -0.4161 -0.0338  0.0714
 3135SOL    HW110846   5.257   3.173  11.171 -0.7359 -0.3829  1.5493
 3135SOL    HW210847   5.375   3.263  11.197 -0.5655  0.0674 -0.5402
 3136SOL     OW10848   1.978   3.196  11.143 -0.3107 -0.2830 -0.1872
 3136SOL    HW110849   1.885   3.213  11.128 -0.3990 -0.6411 -0.0422
 3136SOL    HW210850   1.981   3.114  11.191 -0.0405  0.7614  1.6847
 3137SOL     OW10851   2.960   7.842   8.824  0.1102 -0.2174  0.3826
 3137SOL    HW110852   2.943   7.816   8.734 -1.3336  2.9717 -0.4029
 3137SOL    HW210853   3.050   7.876   8.822  0.4825 -1.1759  0.4377
 3138SOL     OW10854   2.704   2.662   4.649  0.2654  0.5587  0.2427
 3138SOL    HW110855   2.781   2.627   4.605  1.0901  1.7485  0.7006
 3138SOL    HW210856   2.638   2.593   4.639  1.3523 -0.4609 -0.2098
 3139SOL     OW10857   0.649   0.199   9.027 -0.5342 -0.0665  0.2465
 3139SOL    HW110858   0.654   0.223   9.120  0.7530 -0.8725  0.4131
 3139SOL    HW210859   0.703   0.264   8.983  0.5054 -0.8411  0.3331
 3140SOL     OW10860   0.321   2.713  11.732 -0.0694  0.1376  0.2649
 3140SOL    HW110861   0.401   2.734  11.684  0.3451  0.0510  0.9015
 3140SOL    HW210862   0.347   2.646  11.795 -1.2502 -1.8971 -1.3128
 3141SOL     OW10863   3.583   0.618   1.050 -0.4433  0.8922  0.5891
 3141SOL    HW110864   3.512   0.565   1.013  0.7150  0.1969 -0.7652
 3141SOL    HW210865   3.598   0.687   0.985 -0.5504  1.6452  1.3521
 3142SOL     OW10866   3.017   1.360   7.840 -0.1532  0.2801  0.0236
 3142SOL    HW110867   2.942   1.367   7.900  0.0110  0.5122  0.2068
 3142SOL    HW210868   3.084   1.315   7.891  0.3091  1.2926  0.3402
 3143SOL     OW10869   7.246   1.045   3.150 -0.3246 -0.0049  0.0419
 3143SOL    HW110870   7.176   0.982   3.169 -0.7447  0.5544  0.3734
 3143SOL    HW210871   7.315   1.022   3.211 -1.3371  1.2352  1.7574
 3144SOL     OW10872   2.490   5.098   8.542  0.0264  0.1072  0.0628
 3144SOL    HW110873   2.428   5.063   8.606  0.4030 -1.1076 -0.2128
 3144SOL    HW210874   2.479   5.041   8.465 -0.5524  1.6446 -1.0504
 3145SOL     OW10875   1.435   7.016  11.588  0.3476 -0.0263 -0.0972
 3145SOL    HW110876   1.475   6.996  11.673  3.2314 -3.9127 -2.0187
 3145SOL    HW210877   1.364   6.952  11.579  0.7548 -0.3744 -0.9709
 3146SOL     OW10878   3.248   3.244   6.145  0.1850  0.1258  0.1197
 3146SOL    HW110879   3.218   3.153   6.134  1.2523 -0.5659  2.3719
 3146SOL    HW210880   3.228   3.265   6.236 -0.5564  2.4006 -0.5071
 3147SOL     OW10881   2.716   3.261  11.869 -0.0506 -0.1103  0.5437
 3147SOL    HW110882   2.622   3.279  11.867 -0.1883 -0.8731  0.0263
 3147SOL    HW210883   2.729   3.212  11.950  0.1301  1.1783  1.3202
 3148SOL     OW10884   1.959   5.226   6.822 -0.2758  0.1327 -0.0622
 3148SOL    HW110885   1.994   5.152   6.772 -0.0534  1.2764 -1.6483
 3148SOL    HW210886   1.864   5.214   6.818 -0.2351 -0.2521  0.0050
 3149SOL     OW10887   6.667   2.461   1.096  0.9207  0.7562  0.4357
 3149SOL    HW110888   6.627   2.437   1.179  0.4284  1.2897  0.3648
 3149SOL    HW210889   6.757   2.485   1.118  1.0532  0.0496  0.6776
 3150SOL     OW10890   5.704   0.862   7.462 -0.4575  0.3997 -0.2896
 3150SOL    HW110891   5.788   0.886   7.500 -0.0804 -0.8312 -0.3052
 3150SOL    HW210892   5.676   0.940   7.414  1.3206  0.3813 -1.4272
 3151SOL     OW10893   5.963   6.108   5.518 -0.2132 -0.3995  0.5280
 3151SOL    HW110894   5.914   6.158   5.452 -1.3012  0.8176  2.1793
 3151SOL    HW210895   5.896   6.054   5.561  0.5309 -1.3956  0.4703
 3152SOL     OW10896   0.247   6.369  10.933 -0.1525 -0.0725 -0.1246
 3152SOL    HW110897   0.221   6.335  11.019 -2.1594  0.7352 -0.3685
 3152SOL    HW210898   0.289   6.294  10.890  0.0888 -0.7454  1.2181
 3153SOL     OW10899   4.557   0.790  11.430  0.2391  0.0420  0.0310
 3153SOL    HW110900   4.474   0.809  11.387  1.6989  0.6260 -2.7194
 3153SOL    HW210901   4.624   0.823  11.370  2.4832  1.9718  3.2349
 3154SOL     OW10902   7.118   0.256  11.808  0.5993  0.1550 -0.4991
 3154SOL    HW110903   7.047   0.282  11.750  0.6746 -0.0160 -0.6689
 3154SOL    HW210904   7.196   0.256  11.752  0.2067 -3.2251 -1.2883
 3155SOL     OW10905   6.223   5.660   7.371 -0.2134  0.3487 -0.3295
 3155SOL    HW110906   6.151   5.617   7.325  0.1471  0.8603 -1.4119
 3155SOL    HW210907   6.203   5.647   7.464 -0.5672 -1.3568 -0.6104
 3156SOL     OW10908   0.760   5.068   3.491  0.0456 -0.4983 -0.4358
 3156SOL    HW110909   0.703   5.025   3.428  1.0350 -1.0574 -0.9821
 3156SOL    HW210910   0.768   5.006   3.563  0.6120 -0.7832 -0.7363
 3157SOL     OW10911   6.561   4.047   7.059  0.0332 -0.1684  0.3250
 3157SOL    HW110912   6.546   4.099   6.980  1.2764 -0.0648  0.1396
 3157SOL    HW210913   6.514   4.094   7.128 -0.0047  0.4434 -0.1088
 3158SOL     OW10914   3.421   3.298   3.126  0.1003  0.7989  0.6481
 3158SOL    HW110915   3.451   3.339   3.045  1.3104 -1.3642 -0.0791
 3158SOL    HW210916   3.478   3.334   3.194  1.6895 -0.1872 -0.1016
 3159SOL     OW10917   1.079   4.053   8.862 -0.1562 -0.0002  0.3005
 3159SOL    HW110918   1.041   3.966   8.861 -1.8997  0.7245  0.2182
 3159SOL    HW210919   1.110   4.065   8.952 -1.1829 -0.1776  0.6801
 3160SOL     OW10920   2.243   3.500  12.110  0.2125  0.3650  0.0962
 3160SOL    HW110921   2.296   3.425  12.137  0.7318  0.5016 -0.5296
 3160SOL    HW210922   2.297   3.547  12.047 -0.5231  0.6964 -0.3055
 3161SOL     OW10923   6.728   2.181   8.518  0.2399  0.2131  0.3783
 3161SOL    HW110924   6.735   2.133   8.601 -1.2748  1.1400  1.1047
 3161SOL    HW210925   6.690   2.266   8.543 -0.8372  0.2792 -1.3340
 3162SOL     OW10926   3.980   1.263   9.708 -0.0321 -0.2052 -0.1167
 3162SOL    HW110927   3.884   1.258   9.703 -0.0149  0.4716 -1.5719
 3162SOL    HW210928   3.998   1.356   9.725  0.3788 -0.1412 -0.8521
 3163SOL     OW10929   1.785   2.444  10.783  0.2618  0.3619  0.2710
 3163SOL    HW110930   1.812   2.365  10.736 -1.8654  0.0715 -0.5473
 3163SOL    HW210931   1.834   2.441  10.866  1.3392 -1.0106 -0.3877
 3164SOL     OW10932   0.420   1.274   7.346 -0.0895 -0.3671 -0.0018
 3164SOL    HW110933   0.346   1.226   7.310 -0.6287  0.9555 -0.7589
 3164SOL    HW210934   0.438   1.342   7.280  1.4832 -0.3546  0.3939
 3165SOL     OW10935   5.179   7.935   5.571  0.0843 -0.2273 -0.3772
 3165SOL    HW110936   5.248   7.900   5.515 -0.6337 -0.8439 -0.8995
 3165SOL    HW210937   5.211   7.923   5.660 -0.0969 -2.1478 -0.5362
 3166SOL     OW10938   4.938   6.241  10.161  0.4843 -0.2379  0.4155
 3166SOL    HW110939   4.890   6.205  10.236  0.9747  0.9452  1.3261
 3166SOL    HW210940   5.014   6.183  10.151  1.4584  0.6626  2.0920
 3167SOL     OW10941   5.814   1.006   6.496 -0.2645  0.3476  0.0901
 3167SOL    HW110942   5.790   1.077   6.436 -0.9462  1.4947  1.6464
 3167SOL    HW210943   5.812   0.927   6.442 -0.8307  1.3270 -1.3869
 3168SOL     OW10944   2.989   1.187   1.300  0.3368 -0.6235  0.4006
 3168SOL    HW110945   3.075   1.214   1.334  0.7376 -1.3245 -0.0302
 3168SOL    HW210946   2.994   1.205   1.206 -0.9697  1.8359  0.7035
 3169SOL     OW10947   1.381   1.643   0.215 -0.6234 -0.1933 -0.1716
 3169SOL    HW110948   1.454   1.588   0.186 -0.4561 -0.1330  0.1396
 3169SOL    HW210949   1.412   1.733   0.203 -1.8142 -0.0437 -3.1924
 3170SOL     OW10950   6.993   0.603  12.452 -0.1915  0.0828 -0.3073
 3170SOL    HW110951   6.996   0.592  12.547 -0.8204 -0.2354 -0.3219
 3170SOL    HW210952   7.014   0.516  12.417 -1.4473 -0.1891 -0.4419
 3171SOL     OW10953   6.572   0.430  10.297  0.0788  0.0967  0.3730
 3171SOL    HW110954   6.653   0.437  10.347  0.7066  0.9544 -0.7096
 3171SOL    HW210955   6.520   0.505  10.324 -0.0101 -0.0046  0.4820
 3172SOL     OW10956   0.397   3.457  11.062  0.0772 -0.0870  0.2884
 3172SOL    HW110957   0.486   3.487  11.043  0.1667  0.1190  0.9725
 3172SOL    HW210958   0.406   3.411  11.146 -0.7910  1.6425  1.3827
 3173SOL     OW10959   4.173   1.941  11.206  0.4532  0.0504  0.0704
 3173SOL    HW110960   4.243   1.876  11.216  0.1731 -0.0352  1.6061
 3173SOL    HW210961   4.113   1.923  11.278  0.3567  1.9942  0.5131
 3174SOL     OW10962   2.666   6.464  10.937  0.1667 -0.0817  0.3563
 3174SOL    HW110963   2.686   6.506  10.853  0.3662 -0.3022  0.2916
 3174SOL    HW210964   2.749   6.428  10.966  0.3873  1.1751  1.3259
 3175SOL     OW10965   6.214   6.875   6.774  0.0391 -0.3780 -0.0668
 3175SOL    HW110966   6.263   6.811   6.826  0.0361  1.8218  2.9515
 3175SOL    HW210967   6.257   6.959   6.793 -0.9563  0.7801 -2.5128
 3176SOL     OW10968   0.252   7.869   8.674 -0.7707  0.0086  0.0299
 3176SOL    HW110969   0.292   7.859   8.588 -1.3117  0.6850 -0.3029
 3176SOL    HW210970   0.326   7.879   8.734 -0.3302 -1.7162 -0.1615
 3177SOL     OW10971   1.629   7.063   4.963 -0.2670 -0.6697  0.4000
 3177SOL    HW110972   1.643   6.986   5.018  0.6871  0.4564  1.8015
 3177SOL    HW210973   1.545   7.098   4.993  0.1090 -0.2261  0.9531
 3178SOL     OW10974   6.688   7.333   1.568  0.2668  0.1999  0.1997
 3178SOL    HW110975   6.713   7.335   1.476 -1.2958 -1.7349 -0.3463
 3178SOL    HW210976   6.726   7.413   1.605  0.0554  1.5896 -2.3416
 3179SOL     OW10977   2.562   7.659  10.790  0.6135 -0.8327 -0.6481
 3179SOL    HW110978   2.507   7.687  10.716  0.0286  2.4772  0.8474
 3179SOL    HW210979   2.499   7.625  10.854  0.5055  0.7058  0.1086
 3180SOL     OW10980   5.819   1.031   9.688  0.3488  0.0625 -0.1719
 3180SOL    HW110981   5.765   1.061   9.615 -0.3839 -3.3611 -1.1996
 3180SOL    HW210982   5.901   1.004   9.647  0.5718 -0.3219  0.5146
 3181SOL     OW10983   4.486   0.365   4.935  0.3071 -0.4909  0.6948
 3181SOL    HW110984   4.554   0.396   4.876  0.1325  0.2237  0.8633
 3181SOL    HW210985   4.531   0.347   5.017  0.2392  0.3290  0.9180
 3182SOL     OW10986   5.225   3.058   7.648  0.2205  0.1369 -0.2674
 3182SOL    HW110987   5.134   3.032   7.661  0.8233 -1.3835  1.4287
 3182SOL    HW210988   5.222   3.154   7.643 -1.3213  0.2518  1.4878
 3183SOL     OW10989   0.650   4.714   8.651  0.1259 -0.0635  0.4227
 3183SOL    HW110990   0.598   4.633   8.653 -0.7910  0.4216 -1.1716
 3183SOL    HW210991   0.617   4.766   8.724 -0.6594 -0.3500  0.2841
 3184SOL     OW10992   0.764   2.070   3.195 -0.6688  0.4820  0.6551
 3184SOL    HW110993   0.681   2.074   3.149 -1.7239  0.8621  2.4811
 3184SOL    HW210994   0.814   2.144   3.160 -0.4550 -0.5987 -1.5087
 3185SOL     OW10995   3.378   1.889   3.388  0.8268 -0.6498  0.0245
 3185SOL    HW110996   3.298   1.918   3.430  1.0514  0.3881 -0.2390
 3185SOL    HW210997   3.399   1.958   3.325  2.6445 -0.1876  1.0270
 3186SOL     OW10998   1.032   1.357   0.507  0.2170  0.2254  0.2386
 3186SOL    HW110999   0.989   1.348   0.422  1.4512 -0.0453 -0.3861
 3186SOL    HW211000   1.029   1.450   0.526 -1.2889  0.1332  0.5789
 3187SOL     OW11001   5.897   5.316   0.272  1.0295 -0.0725 -0.1653
 3187SOL    HW111002   5.905   5.407   0.300  1.3292 -0.2129  0.2068
 3187SOL    HW211003   5.819   5.283   0.317  1.8470 -0.4741  1.0063
 3188SOL     OW11004   0.198   6.327   6.646  0.5492  0.2417 -0.6152
 3188SOL    HW111005   0.287   6.325   6.613  1.0893 -0.4727  0.7797
 3188SOL    HW211006   0.199   6.392   6.716  0.6145 -1.3682  0.9635
 3189SOL     OW11007   0.691   4.889  12.350 -0.0301  0.2736  0.0399
 3189SOL    HW111008   0.735   4.911  12.433  0.0413  0.4917 -0.0553
 3189SOL    HW211009   0.706   4.965  12.294  2.5027 -1.0456 -1.2241
 3190SOL     OW11010   0.217   6.869   7.367 -0.2922 -0.1627  0.2152
 3190SOL    HW111011   0.202   6.913   7.451 -0.2485 -2.4431  1.4902
 3190SOL    HW211012   0.142   6.812   7.355 -0.2585  0.0610 -1.2976
 3191SOL     OW11013   6.940   2.533   7.530  0.9245 -0.0793  0.0742
 3191SOL    HW111014   6.912   2.462   7.587  1.3727 -0.2946  0.0240
 3191SOL    HW211015   6.985   2.490   7.458  1.8857  0.3033  0.4381
 3192SOL     OW11016   1.271   7.149   7.747  0.0553 -0.2824 -0.1425
 3192SOL    HW111017   1.287   7.130   7.654 -0.6214  1.5591 -0.6792
 3192SOL    HW211018   1.180   7.121   7.761 -0.0933  0.1305 -0.2544
 3193SOL     OW11019   6.290   6.840   1.065 -0.2839 -0.9451 -0.0903
 3193SOL    HW111020   6.278   6.923   1.018  0.7710 -0.5451  0.3290
 3193SOL    HW211021   6.209   6.829   1.115 -0.7293 -0.5355 -0.7059
 3194SOL     OW11022   3.665   4.776  11.732 -0.1121 -0.1799  0.2964
 3194SOL    HW111023   3.644   4.731  11.814 -0.4983  0.6139  0.6443
 3194SOL    HW211024   3.709   4.856  11.760 -1.5244  0.8037 -0.1842
 3195SOL     OW11025   6.705   2.015   1.108  0.1027  0.0620 -0.2757
 3195SOL    HW111026   6.670   2.071   1.038 -2.0034 -0.0226  0.6439
 3195SOL    HW211027   6.799   2.030   1.105 -0.1273  1.5472 -1.8629
 3196SOL     OW11028   4.058   5.395   6.236  0.3537  0.0809  0.4729
 3196SOL    HW111029   4.045   5.314   6.285 -2.2840  0.4599  0.5740
 3196SOL    HW211030   4.074   5.366   6.146  2.8159 -0.5541  1.0342
 3197SOL     OW11031   4.055   3.107   6.475 -0.2110  0.6747 -0.6146
 3197SOL    HW111032   4.040   3.200   6.491  0.3801  1.0047 -1.8456
 3197SOL    HW211033   4.142   3.090   6.512  0.3496  1.0010 -1.7198
 3198SOL     OW11034   6.366   3.513   6.322  0.3611  0.3775 -0.2675
 3198SOL    HW111035   6.454   3.491   6.350  0.8392  1.9188 -0.4756
 3198SOL    HW211036   6.331   3.567   6.393 -0.3774 -0.1177 -0.2411
 3199SOL     OW11037   0.306   7.191   0.516 -0.5142 -0.2268 -0.0287
 3199SOL    HW111038   0.395   7.195   0.481 -1.5342  0.2513 -2.8212
 3199SOL    HW211039   0.290   7.098   0.532  0.2142 -0.4011 -0.2678
 3200SOL     OW11040   0.292   6.094   1.271  0.5128 -0.6084  0.1552
 3200SOL    HW111041   0.243   6.146   1.208  1.1100  2.7558  2.1904
 3200SOL    HW211042   0.366   6.059   1.221  1.0146  1.9656 -1.0833
 3201SOL     OW11043   4.044   0.173   3.929  0.0560 -0.2374  0.4659
 3201SOL    HW111044   4.063   0.267   3.926  0.5056 -0.3351 -0.0293
 3201SOL    HW211045   4.064   0.147   4.019 -1.8225  0.4799  1.1259
 3202SOL     OW11046   7.214   6.070  10.932 -0.1409 -0.2491  0.0613
 3202SOL    HW111047   7.263   6.000  10.889 -1.9844 -1.6678  0.1098
 3202SOL    HW211048   7.239   6.064  11.024 -0.3822 -0.9841  0.0922
 3203SOL     OW11049   1.060   4.353   5.804  0.6366  0.1624  0.6691
 3203SOL    HW111050   1.047   4.259   5.809  0.2159  0.0841 -1.0838
 3203SOL    HW211051   0.974   4.388   5.780  0.2967  1.2379  3.1880
 3204SOL     OW11052   5.522   2.649  11.680 -0.2220 -0.2381  0.0953
 3204SOL    HW111053   5.581   2.663  11.606  0.6223 -2.0609  0.3618
 3204SOL    HW211054   5.464   2.578  11.652 -2.2607  1.3789 -0.0893
 3205SOL     OW11055   2.836   1.119   8.457 -0.0742 -0.3173  0.4023
 3205SOL    HW111056   2.928   1.095   8.460  0.1780  0.4240 -0.5402
 3205SOL    HW211057   2.825   1.158   8.370 -0.9340  0.9202  1.0386
 3206SOL     OW11058   3.645   3.393   0.445 -0.3726  0.8263  0.2761
 3206SOL    HW111059   3.597   3.476   0.454 -0.6739  0.5811  1.0572
 3206SOL    HW211060   3.686   3.398   0.359 -2.2599  0.7953 -0.6568
 3207SOL     OW11061   1.611   0.149   2.276  0.2409  0.6876 -0.0670
 3207SOL    HW111062   1.661   0.214   2.326  2.3944 -1.1771  0.3770
 3207SOL    HW211063   1.675   0.110   2.217 -0.2094 -2.7544  1.4532
 3208SOL     OW11064   6.151   6.796  11.535 -0.1056  0.4616  0.4900
 3208SOL    HW111065   6.220   6.730  11.543  0.1216  0.3150 -1.8485
 3208SOL    HW211066   6.072   6.751  11.562  0.3844 -0.0709  1.0643
 3209SOL     OW11067   3.936   0.500   6.103 -0.0095 -0.0707  0.3140
 3209SOL    HW111068   3.910   0.428   6.161 -1.0757 -1.1185 -1.3780
 3209SOL    HW211069   3.900   0.477   6.018  1.2401  1.5642 -0.7343
 3210SOL     OW11070   3.761   6.283   7.518  0.4318 -0.2747  0.5348
 3210SOL    HW111071   3.681   6.282   7.570  0.1471 -1.5683  0.1164
 3210SOL    HW211072   3.799   6.196   7.531  1.2066 -0.0454 -0.1177
 3211SOL     OW11073   5.294   2.763   4.588  0.0595  0.5323 -0.6804
 3211SOL    HW111074   5.308   2.741   4.680  0.1857 -1.5153 -1.1453
 3211SOL    HW211075   5.376   2.802   4.560  0.5512 -0.1749 -0.2740
 3212SOL     OW11076   1.048   0.057  11.845  0.4210 -0.0597  0.1684
 3212SOL    HW111077   0.968   0.078  11.894  0.0891 -1.0879  0.0808
 3212SOL    HW211078   1.056   0.129  11.783  1.0896  1.5143  1.9736
 3213SOL     OW11079   3.766   3.958   5.041 -0.3314 -0.2450 -0.0374
 3213SOL    HW111080   3.823   3.910   5.102 -0.2273 -1.4756 -1.0525
 3213SOL    HW211081   3.771   4.049   5.070  1.6068 -0.4299  0.3262
 3214SOL     OW11082   1.030   0.433   2.661  0.3061  0.2204 -0.0767
 3214SOL    HW111083   1.016   0.527   2.669 -0.7159 -0.0425  1.5490
 3214SOL    HW211084   0.949   0.393   2.694  1.6084 -1.2582  1.4920
 3215SOL     OW11085   3.049   0.484   1.670  0.6126  0.0165  0.2531
 3215SOL    HW111086   3.006   0.442   1.744 -0.6913 -0.4131 -0.7098
 3215SOL    HW211087   3.107   0.417   1.634  0.3869 -0.1482  0.1969
 3216SOL     OW11088   1.539   6.521   2.847 -0.5068  0.1598 -0.0713
 3216SOL    HW111089   1.616   6.537   2.792 -1.2541 -1.1297 -1.5811
 3216SOL    HW211090   1.544   6.428   2.869 -2.3123 -0.2868 -1.3594
 3217SOL     OW11091   5.604   6.628   3.521 -0.1964 -0.0528  0.6321
 3217SOL    HW111092   5.608   6.543   3.478  0.8306 -0.3478  1.2735
 3217SOL    HW211093   5.693   6.663   3.515 -1.3579  2.9260 -3.3204
 3218SOL     OW11094   0.837   0.575   2.403 -0.0221  0.0767  0.0842
 3218SOL    HW111095   0.780   0.530   2.465 -0.1692  0.4476  0.2168
 3218SOL    HW211096   0.785   0.647   2.369  0.0919 -0.0603 -0.4008
 3219SOL     OW11097   4.909   7.564   8.727 -0.0372  0.2964 -0.2225
 3219SOL    HW111098   4.909   7.643   8.672 -0.6378  0.4200 -0.0473
 3219SOL    HW211099   5.001   7.554   8.753  0.1411  0.6155 -0.7070
 3220SOL     OW11100   7.810   1.249   1.353  0.2133 -0.0997  0.1299
 3220SOL    HW111101   7.794   1.295   1.436 -0.2883  2.3123 -1.1923
 3220SOL    HW211102   7.776   1.309   1.287 -1.8913 -3.1128 -1.7336
 3221SOL     OW11103   5.797   0.562   1.980  0.0378  0.0298  0.3023
 3221SOL    HW111104   5.771   0.596   1.894 -0.0438  0.5834  0.5392
 3221SOL    HW211105   5.848   0.484   1.960  0.5051  0.4703 -0.2725
 3222SOL     OW11106   1.178   3.203  12.314  0.5542  0.2867 -0.9791
 3222SOL    HW111107   1.103   3.220  12.372  1.6150 -0.0990  0.5707
 3222SOL    HW211108   1.170   3.269  12.245 -1.3561  0.0778 -1.0062
 3223SOL     OW11109   0.478   2.049  11.992  0.2387  0.1448  0.0821
 3223SOL    HW111110   0.480   1.963  12.033 -0.1005  0.6204  1.1271
 3223SOL    HW211111   0.397   2.090  12.023  0.5065  0.9270 -0.2063
 3224SOL     OW11112   2.910   5.768   5.608 -0.8278  0.1270 -0.6017
 3224SOL    HW111113   2.875   5.719   5.683 -0.5599  0.1287 -0.4711
 3224SOL    HW211114   2.966   5.704   5.563  0.6267  0.6731  0.3441
 3225SOL     OW11115   3.814   1.659  10.584 -0.0218  0.1792 -0.6940
 3225SOL    HW111116   3.899   1.692  10.554  1.2764 -0.8543  1.5593
 3225SOL    HW211117   3.811   1.683  10.676 -1.6626 -0.8271 -0.4526
 3226SOL     OW11118   4.340   3.418   1.862 -0.4892 -0.0434  0.4285
 3226SOL    HW111119   4.245   3.423   1.863 -0.6644 -2.0815  2.2379
 3226SOL    HW211120   4.360   3.327   1.885  1.8971  0.3600  0.2902
 3227SOL     OW11121   4.503   6.890   2.899  0.4960 -0.3912  0.2763
 3227SOL    HW111122   4.580   6.922   2.946 -0.0867  1.3894  0.0965
 3227SOL    HW211123   4.529   6.889   2.807  1.0175 -2.0513  0.3991
 3228SOL     OW11124   7.774   4.353   5.030 -0.6481 -0.6820 -0.0637
 3228SOL    HW111125   7.729   4.296   5.092  0.1146  0.5925  1.7518
 3228SOL    HW211126   7.732   4.438   5.040  1.8693  0.4993  1.5485
 3229SOL     OW11127   4.277   4.623   0.793 -0.2164 -0.0512 -0.0997
 3229SOL    HW111128   4.220   4.570   0.850 -1.2187  0.7207 -0.3691
 3229SOL    HW211129   4.269   4.712   0.827 -0.4148  0.3301 -1.1313
 3230SOL     OW11130   6.104   4.336   9.692 -0.0341  0.1219  0.2283
 3230SOL    HW111131   6.114   4.366   9.602 -0.0336  1.5623  0.6727
 3230SOL    HW211132   6.043   4.399   9.731  0.5823 -0.0001  1.4405
 3231SOL     OW11133   6.933   3.703   9.681  0.2471  0.7948  0.1433
 3231SOL    HW111134   7.015   3.698   9.730  0.0949  0.8017  0.3981
 3231SOL    HW211135   6.880   3.631   9.716 -0.3019  1.5035  0.7882
 3232SOL     OW11136   2.280   3.859   6.589 -0.0979  0.5178 -0.3963
 3232SOL    HW111137   2.288   3.936   6.532 -0.0419 -0.5775 -1.9373
 3232SOL    HW211138   2.196   3.870   6.633  0.7316  2.3592  0.8504
 3233SOL     OW11139   0.373   1.121   6.384  0.4710 -0.6849 -0.3467
 3233SOL    HW111140   0.450   1.146   6.435 -0.5128 -1.2736  1.5158
 3233SOL    HW211141   0.409   1.072   6.310  1.8812 -1.8544  1.0253
 3234SOL     OW11142   4.937   6.807   3.601  0.6282  0.1900  0.5956
 3234SOL    HW111143   4.885   6.731   3.575  0.8844  0.1714  0.1267
 3234SOL    HW211144   4.897   6.836   3.683 -0.8778  0.8887 -0.3351
 3235SOL     OW11145   0.365   6.575  10.757 -0.0391 -0.1216 -0.9257
 3235SOL    HW111146   0.324   6.526  10.686 -0.9468 -1.4269  0.4260
 3235SOL    HW211147   0.375   6.511  10.827  0.2189  1.2566  0.3569
 3236SOL     OW11148   6.633   3.665   6.875  0.2151 -0.3139 -0.5381
 3236SOL    HW111149   6.691   3.714   6.817  0.7481 -1.4033 -0.9606
 3236SOL    HW211150   6.683   3.655   6.956 -0.0824  0.2364 -0.2812
 3237SOL     OW11151   7.672   6.644   0.177 -0.5040  0.4796 -0.0019
 3237SOL    HW111152   7.621   6.594   0.113 -0.4187  0.7507 -0.2826
 3237SOL    HW211153   7.607   6.699   0.221 -0.3817  1.2737 -0.7783
 3238SOL     OW11154   3.621   5.794   1.539  0.1231 -1.0643  0.1117
 3238SOL    HW111155   3.573   5.874   1.557  2.4091  0.0421  1.8300
 3238SOL    HW211156   3.615   5.743   1.620  0.2520 -1.7892 -0.3181
 3239SOL     OW11157   7.838   6.288  12.423 -0.1806  0.0953  0.2616
 3239SOL    HW111158   7.908   6.272  12.486  0.0872  1.1470  0.2367
 3239SOL    HW211159   7.799   6.201  12.409 -0.3296 -0.1482  1.9617
 3240SOL     OW11160   2.399   1.974   4.869  0.0760 -0.0703  1.0197
 3240SOL    HW111161   2.334   2.043   4.884  0.9137  1.4545 -1.7813
 3240SOL    HW211162   2.466   1.990   4.935 -1.0127  0.0797  2.1303
 3241SOL     OW11163   2.716   4.395   7.304  0.0969 -0.1496 -0.7373
 3241SOL    HW111164   2.655   4.466   7.284 -1.0051 -0.1273  2.1195
 3241SOL    HW211165   2.670   4.316   7.276 -0.6042 -0.0061 -0.0579
 3242SOL     OW11166   4.051   7.730   8.116  0.2853 -0.2479 -0.7926
 3242SOL    HW111167   4.134   7.722   8.070  1.5197  0.4343  1.1943
 3242SOL    HW211168   4.047   7.653   8.172 -1.1671 -1.0463 -1.9438
 3243SOL     OW11169   5.132   7.109   7.879  0.2823 -0.0619  0.1965
 3243SOL    HW111170   5.173   7.100   7.966  0.0155  0.1348  0.3433
 3243SOL    HW211171   5.038   7.111   7.897  0.0215 -3.0192 -0.3152
 3244SOL     OW11172   4.929   3.864   8.226  0.5549  0.2368 -0.8113
 3244SOL    HW111173   4.946   3.824   8.311  0.0111  1.1942 -0.2352
 3244SOL    HW211174   4.986   3.817   8.165  1.1716 -0.2536  0.1269
 3245SOL     OW11175   1.164   2.450  10.664 -0.1699  0.0112  0.2327
 3245SOL    HW111176   1.122   2.406  10.591 -0.1818  1.3575 -0.6031
 3245SOL    HW211177   1.137   2.400  10.741 -0.7824 -0.9663 -0.5942
 3246SOL     OW11178   5.196   0.109   8.423 -0.5639  0.0270 -0.2961
 3246SOL    HW111179   5.270   0.156   8.386 -1.5672  1.0256 -1.0742
 3246SOL    HW211180   5.180   0.037   8.362 -0.8706  0.4104 -0.6700
 3247SOL     OW11181   0.007   2.234  11.335  0.3483 -0.1956  0.1268
 3247SOL    HW111182   0.032   2.326  11.346 -0.2082 -0.1644  1.3256
 3247SOL    HW211183  -0.084   2.230  11.366  0.7830 -1.3750  1.3460
 3248SOL     OW11184   1.004   3.062   8.133 -0.0446 -0.3527 -0.1553
 3248SOL    HW111185   0.976   3.055   8.042  0.5057  1.7180 -0.5558
 3248SOL    HW211186   0.924   3.081   8.181 -0.2044 -0.4880 -0.3684
 3249SOL     OW11187   6.963   3.481   8.257  0.6744  0.2547 -0.4373
 3249SOL    HW111188   6.919   3.511   8.177 -1.8156  0.1825  0.8120
 3249SOL    HW211189   6.987   3.391   8.238 -0.2702  0.0990 -0.9816
 3250SOL     OW11190   7.333   2.816   4.755 -0.5202 -0.1222  0.4325
 3250SOL    HW111191   7.321   2.721   4.744 -0.6009  0.0070 -0.7125
 3250SOL    HW211192   7.258   2.854   4.710 -0.0431  0.5120  0.1697
 3251SOL     OW11193   7.465   6.194   6.162  0.0053  1.2004  0.4115
 3251SOL    HW111194   7.443   6.231   6.248 -0.0656  0.5180  0.6880
 3251SOL    HW211195   7.418   6.250   6.100 -1.1628  0.7815  0.8996
 3252SOL     OW11196   3.443   7.904   2.190 -0.0362 -0.6613 -0.9150
 3252SOL    HW111197   3.401   7.825   2.224 -0.0173 -0.7695 -1.1472
 3252SOL    HW211198   3.482   7.945   2.268 -0.1596 -0.8098 -0.7748
 3253SOL     OW11199   7.652   6.581   8.331  0.0311  0.1401  0.2120
 3253SOL    HW111200   7.561   6.592   8.359 -0.4581 -0.0719 -1.2201
 3253SOL    HW211201   7.687   6.670   8.327 -0.4600  0.3109 -0.3297
 3254SOL     OW11202   3.403   3.752  11.656 -0.2041 -0.0886  0.1022
 3254SOL    HW111203   3.341   3.723  11.723  0.2183  0.8230  0.9121
 3254SOL    HW211204   3.397   3.686  11.587 -1.4842 -0.4378  0.5256
 3255SOL     OW11205   6.068   6.316  12.330  0.2671 -1.1194 -0.6957
 3255SOL    HW111206   6.010   6.335  12.257  0.0537  1.4998  0.0481
 3255SOL    HW211207   6.010   6.283  12.399 -0.0102 -0.5485 -0.6560
 3256SOL     OW11208   0.735   0.485   8.994 -0.1392 -0.3178 -0.0730
 3256SOL    HW111209   0.724   0.579   8.983  0.4395 -0.2835 -0.3861
 3256SOL    HW211210   0.800   0.476   9.064  0.4747 -0.4656 -0.6474
 3257SOL     OW11211   6.400   3.353   7.635 -0.6930 -0.1113 -0.5602
 3257SOL    HW111212   6.312   3.330   7.607 -1.2456  0.2596  0.7740
 3257SOL    HW211213   6.403   3.448   7.630 -0.9826  0.0083  1.0268
 3258SOL     OW11214   7.831   4.815  12.399 -0.4263  0.8622  0.3907
 3258SOL    HW111215   7.749   4.811  12.449  0.7568 -2.3119  2.4336
 3258SOL    HW211216   7.897   4.841  12.463  0.4359  1.6808 -0.7999
 3259SOL     OW11217   5.174   3.504  11.971 -0.3675 -0.4302  0.0655
 3259SOL    HW111218   5.232   3.429  11.958 -0.5070 -0.4611 -0.3831
 3259SOL    HW211219   5.167   3.545  11.885  0.0750  0.3741  0.4044
 3260SOL     OW11220   2.792   5.720   6.255  0.5431  0.0342 -0.1261
 3260SOL    HW111221   2.836   5.802   6.231  0.4729  0.8656  2.2338
 3260SOL    HW211222   2.856   5.674   6.309  0.1479 -0.9295 -0.4575
 3261SOL     OW11223   2.460   3.013   6.089  0.7666  0.2106  0.8822
 3261SOL    HW111224   2.408   3.010   6.170 -0.3326  1.1743  0.2281
 3261SOL    HW211225   2.397   2.995   6.019  1.3554  1.1209  0.0939
 3262SOL     OW11226   5.981   4.299   6.326  0.1035  0.2009 -0.2819
 3262SOL    HW111227   5.899   4.335   6.358  0.8683  1.8994 -0.1022
 3262SOL    HW211228   5.978   4.206   6.349 -1.1346  0.5383  1.0084
 3263SOL     OW11229   5.727   2.173   7.167  0.3276 -0.6857 -0.2258
 3263SOL    HW111230   5.786   2.189   7.094  1.5089 -1.7905  0.4676
 3263SOL    HW211231   5.650   2.228   7.148  0.2274 -1.5954 -2.7168
 3264SOL     OW11232   7.474   5.290  11.558  0.3566  0.1806 -0.5204
 3264SOL    HW111233   7.404   5.338  11.513  0.4721 -0.5272 -1.4963
 3264SOL    HW211234   7.430   5.216  11.598  0.5475 -0.3183 -1.2154
 3265SOL     OW11235   4.246   1.731   6.715 -0.0200  0.2563  0.2671
 3265SOL    HW111236   4.176   1.778   6.760 -2.0133 -0.5557 -1.8002
 3265SOL    HW211237   4.301   1.800   6.678 -1.4196  0.9744 -0.5388
 3266SOL     OW11238   3.904   2.889   3.009  0.2012 -0.1588 -0.3533
 3266SOL    HW111239   3.941   2.956   3.067 -1.7521 -0.0160  0.8255
 3266SOL    HW211240   3.896   2.811   3.064  2.8312 -1.6046 -1.8138
 3267SOL     OW11241   5.913   7.928   9.791  0.7027 -0.2259  0.9307
 3267SOL    HW111242   5.883   7.929   9.882  0.4659  1.5822  0.8717
 3267SOL    HW211243   5.876   8.007   9.753  0.9407 -0.8604 -0.7168
 3268SOL     OW11244   1.865   6.706   5.294  0.3113  0.4953 -0.5909
 3268SOL    HW111245   1.917   6.781   5.267  0.3231  0.2637 -1.2286
 3268SOL    HW211246   1.911   6.630   5.257  0.0621  0.2107 -0.3247
 3269SOL     OW11247   3.121   5.799   3.911  0.5726  0.3917 -0.7942
 3269SOL    HW111248   3.151   5.712   3.885 -0.1055 -0.5539  1.3905
 3269SOL    HW211249   3.166   5.817   3.994 -0.0340  1.7077 -0.7181
 3270SOL     OW11250   5.671   2.879   8.978  0.3577 -0.1852  0.0298
 3270SOL    HW111251   5.582   2.910   8.957  0.0462  0.0811  1.6060
 3270SOL    HW211252   5.729   2.938   8.929 -0.3152 -0.5353 -1.2453
 3271SOL     OW11253   6.463   2.471   2.499  0.1710  0.0484 -0.2521
 3271SOL    HW111254   6.398   2.448   2.565 -0.2751  1.5772 -0.1308
 3271SOL    HW211255   6.437   2.557   2.468  2.1639  0.7395 -0.1642
 3272SOL     OW11256   0.576   5.803  11.287  0.1246  0.3301  0.2098
 3272SOL    HW111257   0.503   5.786  11.346 -1.2015  0.0151 -1.4425
 3272SOL    HW211258   0.614   5.717  11.268 -0.9051  0.1348 -1.1287
 3273SOL     OW11259   0.177   4.340   0.520  0.2016 -0.5124 -0.4529
 3273SOL    HW111260   0.219   4.399   0.457  1.8174  1.2692  2.1257
 3273SOL    HW211261   0.225   4.258   0.511  0.4998 -0.2562 -1.4012
 3274SOL     OW11262   1.308   0.847   5.154  0.1406  0.3735  0.4111
 3274SOL    HW111263   1.231   0.893   5.123 -1.2720 -0.3810  2.5345
 3274SOL    HW211264   1.282   0.810   5.239  2.9940  0.5326  1.4966
 3275SOL     OW11265   3.929   6.128   7.763  0.6794 -0.2300  0.5567
 3275SOL    HW111266   3.949   6.039   7.789 -0.1839 -1.0195 -1.3093
 3275SOL    HW211267   4.013   6.174   7.768  1.1067 -1.0787  1.6664
 3276SOL     OW11268   1.481   4.527   8.797 -0.1618  0.4817  0.4564
 3276SOL    HW111269   1.442   4.467   8.734  2.3877  0.0462 -0.8542
 3276SOL    HW211270   1.488   4.610   8.751 -1.6099  1.2167  1.4884
 3277SOL     OW11271   5.153   1.520   4.027  0.0352 -0.2453 -0.6637
 3277SOL    HW111272   5.107   1.502   4.109 -0.8772 -0.7300 -1.2603
 3277SOL    HW211273   5.163   1.615   4.025 -0.8034 -0.1442 -0.4444
 3278SOL     OW11274   4.351   0.056   3.983  0.2505 -0.1881  0.0468
 3278SOL    HW111275   4.400   0.003   4.046 -0.6060  0.5535  1.4023
 3278SOL    HW211276   4.285   0.101   4.037 -0.0645  1.0085 -1.2939
 3279SOL     OW11277   4.945   3.331   8.608  0.2431 -0.2216  0.2559
 3279SOL    HW111278   4.980   3.357   8.694 -0.3691  0.1071  0.4070
 3279SOL    HW211279   4.940   3.236   8.613  1.0926 -0.2765  0.2399
 3280SOL     OW11280   3.620   5.853   9.413 -0.1992  0.1174  0.1658
 3280SOL    HW111281   3.669   5.935   9.421  0.0069 -0.0775  0.9667
 3280SOL    HW211282   3.684   5.788   9.385 -0.4369  0.2895 -0.8437
 3281SOL     OW11283   1.100   6.410   8.552 -0.0021  0.0342  0.6429
 3281SOL    HW111284   1.162   6.424   8.624  0.6230  0.2245  0.0801
 3281SOL    HW211285   1.099   6.494   8.505 -0.7750  0.0673  0.7137
 3282SOL     OW11286   5.098   0.418  11.713  0.4191 -0.4439  0.4948
 3282SOL    HW111287   5.087   0.434  11.619 -1.4776  1.2731  0.9412
 3282SOL    HW211288   5.192   0.409  11.725  0.6453 -1.6422 -1.6877
 3283SOL     OW11289   0.356   0.721   2.279 -0.0317  0.0321 -0.1222
 3283SOL    HW111290   0.298   0.678   2.341  1.1292 -2.6659 -0.7642
 3283SOL    HW211291   0.300   0.783   2.232 -1.6134 -0.1522  1.4186
 3284SOL     OW11292   4.714   5.016   4.104 -0.0869  0.1627 -0.5805
 3284SOL    HW111293   4.693   5.098   4.060 -0.9390 -0.3572 -1.1929
 3284SOL    HW211294   4.760   4.965   4.037  1.2478  0.4710  0.0780
 3285SOL     OW11295   0.398   3.968   0.624 -0.4921 -0.4664  0.5875
 3285SOL    HW111296   0.353   3.958   0.708  0.4449 -0.3398  1.1231
 3285SOL    HW211297   0.479   3.918   0.635  0.3991  0.8610  0.3466
 3286SOL     OW11298   4.380   5.305   6.856  0.3353  0.2930  0.4468
 3286SOL    HW111299   4.447   5.331   6.792  0.5136  0.1404  0.5683
 3286SOL    HW211300   4.408   5.218   6.884 -0.8010 -0.4778 -0.7031
 3287SOL     OW11301   6.543   4.583   6.005 -0.3271  0.0896 -0.3308
 3287SOL    HW111302   6.465   4.614   5.960 -0.3669  0.8996  0.2655
 3287SOL    HW211303   6.592   4.663   6.027 -0.4657 -0.2479  1.3074
 3288SOL     OW11304   5.550   4.834   5.373 -0.1136  0.0202 -0.0573
 3288SOL    HW111305   5.626   4.806   5.424 -0.3181  0.2542  0.3863
 3288SOL    HW211306   5.475   4.808   5.427 -0.3163  0.9839  0.1500
 3289SOL     OW11307   5.709   7.605   9.584 -0.3451  0.4091  0.0694
 3289SOL    HW111308   5.799   7.633   9.601  0.3276 -0.8378 -1.2524
 3289SOL    HW211309   5.658   7.642   9.657  0.7272  3.4603 -0.6037
 3290SOL     OW11310   1.334   2.471   8.075  0.0432 -0.5061  0.1104
 3290SOL    HW111311   1.394   2.400   8.097 -0.6049 -1.2417 -0.4379
 3290SOL    HW211312   1.390   2.538   8.036  0.5956 -0.9128  0.1860
 3291SOL     OW11313   2.777   1.115   9.887  0.4499  0.5304 -0.0178
 3291SOL    HW111314   2.829   1.046   9.845 -0.2594 -0.4204  0.6110
 3291SOL    HW211315   2.699   1.123   9.832 -0.5083 -0.7587  1.0894
 3292SOL     OW11316   7.725   0.930   3.231 -0.0613  0.0689 -0.0486
 3292SOL    HW111317   7.679   0.911   3.313  1.5450 -0.6537  0.7310
 3292SOL    HW211318   7.724   1.025   3.224  0.2273  0.1659  1.0924
 3293SOL     OW11319   7.199   1.910   5.804  0.5738 -0.5197 -0.1314
 3293SOL    HW111320   7.161   1.997   5.792 -0.3529 -1.1614 -2.3787
 3293SOL    HW211321   7.177   1.887   5.894 -0.5397  0.9424  0.0182
 3294SOL     OW11322   1.925   7.562   3.241  0.5501 -0.2357 -0.7265
 3294SOL    HW111323   1.881   7.602   3.167  0.3127  0.2381 -0.3368
 3294SOL    HW211324   2.015   7.595   3.237  0.3598  0.3309 -0.4163
 3295SOL     OW11325   4.154   0.922   8.068 -0.3951 -0.7212 -0.0502
 3295SOL    HW111326   4.090   0.991   8.050  0.3448  0.0442  0.1595
 3295SOL    HW211327   4.199   0.909   7.984  0.9806  0.6741  0.4159
 3296SOL     OW11328   4.002   2.308   3.738 -0.4177 -0.2347  0.3607
 3296SOL    HW111329   4.039   2.334   3.822  0.1282  1.3639 -0.3193
 3296SOL    HW211330   3.918   2.354   3.734 -0.5019 -0.4089  0.0989
 3297SOL     OW11331   1.246   2.940   6.553  0.0337 -0.3669 -0.0321
 3297SOL    HW111332   1.161   2.965   6.518  0.5430  1.0408 -0.3463
 3297SOL    HW211333   1.225   2.887   6.630 -1.1199 -0.4070 -0.3495
 3298SOL     OW11334   7.458   1.731   7.374  0.1663 -0.1030 -0.2328
 3298SOL    HW111335   7.389   1.778   7.419  0.4610 -0.4395  0.5824
 3298SOL    HW211336   7.425   1.641   7.365  0.6223 -0.3490  0.4614
 3299SOL     OW11337   3.620   4.396   1.433  0.2931 -0.2433 -0.0685
 3299SOL    HW111338   3.665   4.325   1.479  0.2965  0.4774  1.0782
 3299SOL    HW211339   3.666   4.475   1.461 -0.3045  0.2997 -0.5954
 3300SOL     OW11340   2.836   0.395   4.182 -0.7262 -0.7069  0.4260
 3300SOL    HW111341   2.882   0.380   4.100 -0.2572 -0.3183  0.6132
 3300SOL    HW211342   2.895   0.450   4.233  0.3966 -3.3623  2.2235
 3301SOL     OW11343   7.138   4.462   7.098 -0.2826 -0.3510  0.4573
 3301SOL    HW111344   7.126   4.461   7.193 -0.8604 -1.4945  0.3803
 3301SOL    HW211345   7.146   4.370   7.073 -1.7110 -0.1722 -0.7945
 3302SOL     OW11346   1.015   1.034  11.088 -0.2153  0.1246 -0.0759
 3302SOL    HW111347   1.094   0.984  11.110 -1.0875 -1.6808 -0.8457
 3302SOL    HW211348   1.042   1.092  11.018  0.7316  0.4916  0.5720
 3303SOL     OW11349   1.306   7.485   7.509 -0.0102 -0.1070  0.0489
 3303SOL    HW111350   1.316   7.459   7.601  0.7866 -0.7920 -0.2136
 3303SOL    HW211351   1.395   7.507   7.480 -0.1856 -0.2925 -0.6668
 3304SOL     OW11352   0.960   4.068  12.079  0.6167 -0.0628  0.3275
 3304SOL    HW111353   1.048   4.041  12.104  0.8513  0.9403  0.6450
 3304SOL    HW211354   0.973   4.149  12.029 -0.0445 -0.5659 -0.7036
 3305SOL     OW11355   7.817   0.925   0.906 -0.5107 -0.7169 -0.5010
 3305SOL    HW111356   7.874   0.909   0.981 -0.7635  0.1870 -0.1057
 3305SOL    HW211357   7.814   0.841   0.860  0.0319 -1.1476  0.2310
 3306SOL     OW11358   7.464   6.915   0.017  0.3146  0.1707  0.3161
 3306SOL    HW111359   7.540   6.921   0.075  1.0668 -0.7931 -0.5252
 3306SOL    HW211360   7.501   6.886  -0.067 -1.2434 -2.7950  0.5301
 3307SOL     OW11361   0.592   6.870  10.306  0.0426  0.2860  0.2002
 3307SOL    HW111362   0.568   6.889  10.215 -1.0743 -0.2895  0.3472
 3307SOL    HW211363   0.574   6.776  10.316  1.4273  0.0474  0.6545
 3308SOL     OW11364   4.969   5.919  11.091 -0.4821  0.3506 -0.4581
 3308SOL    HW111365   4.877   5.905  11.070 -0.8365 -0.6267  1.4704
 3308SOL    HW211366   4.988   5.854  11.159  0.5051  2.9619  2.0076
 3309SOL     OW11367   1.265   3.875   9.527  0.0668  0.0401  0.1342
 3309SOL    HW111368   1.200   3.823   9.574  1.6411 -1.8754  0.3457
 3309SOL    HW211369   1.220   3.905   9.449 -0.9398 -1.7393 -0.0228
 3310SOL     OW11370   5.366   3.606  10.318  0.0481  0.4412 -0.2582
 3310SOL    HW111371   5.353   3.514  10.294  1.3801 -0.0665  0.8543
 3310SOL    HW211372   5.298   3.623  10.383  1.3965 -0.5848  1.5012
 3311SOL     OW11373   1.981   5.145   5.769  0.5259 -0.2650 -0.5587
 3311SOL    HW111374   1.943   5.059   5.750  0.0041 -0.0228 -0.6116
 3311SOL    HW211375   1.976   5.192   5.685  0.1519  0.0687 -0.3503
 3312SOL     OW11376   6.126   2.906   1.528 -0.1931 -0.8224  0.3366
 3312SOL    HW111377   6.130   3.001   1.541  0.1663 -0.8238  0.2437
 3312SOL    HW211378   6.168   2.870   1.606 -1.1550 -0.9388  0.8185
 3313SOL     OW11379   6.543   3.148   4.091 -0.4322  0.0317 -0.0135
 3313SOL    HW111380   6.513   3.122   4.003  0.2563 -0.6840 -0.0547
 3313SOL    HW211381   6.466   3.137   4.147 -0.6410 -0.3752 -0.3690
 3314SOL     OW11382   0.081   7.813   8.173  0.1429 -0.0344  0.3637
 3314SOL    HW111383   0.077   7.776   8.085  1.6478  0.5009  0.0353
 3314SOL    HW211384   0.062   7.739   8.231 -0.0673 -0.5773 -0.3788
 3315SOL     OW11385   0.921   6.162   8.974 -0.1613 -0.2283  0.6160
 3315SOL    HW111386   0.985   6.148   8.905 -1.4583 -0.2906 -0.6210
 3315SOL    HW211387   0.930   6.254   8.997 -1.1857  0.3688 -1.2088
 3316SOL     OW11388   0.737   1.131   8.034  0.5090 -0.0323  0.8478
 3316SOL    HW111389   0.745   1.036   8.046  1.6203  0.1175  1.4466
 3316SOL    HW211390   0.660   1.155   8.086  0.4570 -0.5513  1.0208
 3317SOL     OW11391   5.446   1.922   8.560 -0.0266  0.0733 -0.1137
 3317SOL    HW111392   5.376   1.862   8.584 -0.4131 -0.0021 -1.3614
 3317SOL    HW211393   5.415   2.008   8.589 -1.0761  0.1825 -1.4796
 3318SOL     OW11394   5.918   4.814   9.110 -0.0857 -0.2533 -0.1383
 3318SOL    HW111395   5.969   4.877   9.059  1.1674 -2.0448 -1.2388
 3318SOL    HW211396   5.830   4.817   9.072  1.0185 -2.1947 -3.2269
 3319SOL     OW11397   7.293   5.262   5.294  0.7016 -0.2008 -0.3851
 3319SOL    HW111398   7.283   5.257   5.389 -0.5152  1.3610 -0.3782
 3319SOL    HW211399   7.274   5.354   5.273 -1.2612 -0.9622 -2.3609
 3320SOL     OW11400   2.066   4.467  11.467  0.4603  0.0619 -0.3117
 3320SOL    HW111401   2.019   4.385  11.479 -1.6739  0.8270 -2.6501
 3320SOL    HW211402   2.130   4.468  11.538 -0.5658 -2.7925  0.8066
 3321SOL     OW11403   2.716   1.770  11.481 -0.6166  0.4291 -0.3065
 3321SOL    HW111404   2.711   1.856  11.438 -0.3096 -0.6921 -2.7870
 3321SOL    HW211405   2.628   1.756  11.517 -1.6816  0.4941 -2.6835
 3322SOL     OW11406   7.520   0.174  11.477 -0.1295 -0.0431 -0.0669
 3322SOL    HW111407   7.610   0.140  11.483 -0.3696 -0.5969  0.4820
 3322SOL    HW211408   7.532   0.267  11.457  0.5642 -0.1387 -0.1501
 3323SOL     OW11409   5.217   3.620   2.104  0.0730  0.2954  0.4047
 3323SOL    HW111410   5.306   3.594   2.128 -0.7442 -2.2797  0.9612
 3323SOL    HW211411   5.227   3.667   2.021  1.9917  0.6074  0.7722
 3324SOL     OW11412   6.176   5.968  11.274  0.1537 -0.0962 -0.8716
 3324SOL    HW111413   6.208   6.041  11.220 -1.1343  0.8372 -0.4273
 3324SOL    HW211414   6.254   5.918  11.295  1.3806  2.1859  0.3527
 3325SOL     OW11415   2.026   6.113   2.271 -0.1716  0.1501  0.4460
 3325SOL    HW111416   2.121   6.111   2.262 -0.2128 -0.4341  0.1142
 3325SOL    HW211417   1.993   6.068   2.194 -0.7266  0.4843  0.4793
 3326SOL     OW11418   7.327   3.713   4.511  0.1682  0.8251 -0.0504
 3326SOL    HW111419   7.315   3.623   4.541  2.0841  1.2850  2.4276
 3326SOL    HW211420   7.328   3.765   4.591  0.4767  2.8866 -1.3211
 3327SOL     OW11421   2.120   0.192   9.379 -0.4460 -0.2463  0.1911
 3327SOL    HW111422   2.211   0.204   9.405 -0.5850  1.9414 -0.2009
 3327SOL    HW211423   2.118   0.215   9.286 -1.1954 -1.4730 -0.1273
 3328SOL     OW11424   3.218   0.595   6.920  0.0293  0.0171  0.7649
 3328SOL    HW111425   3.186   0.597   6.830  0.0098  1.5402  0.7748
 3328SOL    HW211426   3.313   0.591   6.912  0.0857  1.1982  0.6348
 3329SOL     OW11427   7.276   3.342   3.018  0.1075  0.6782 -0.3937
 3329SOL    HW111428   7.359   3.323   3.062  0.3076  0.2713 -0.9376
 3329SOL    HW211429   7.259   3.265   2.964  0.2669  1.5003 -1.6412
 3330SOL     OW11430   5.309   3.029   5.744  0.3098  0.1725 -0.1756
 3330SOL    HW111431   5.380   2.991   5.691 -0.1778 -1.2152  0.1031
 3330SOL    HW211432   5.257   3.080   5.682  1.5395  1.2406 -0.3846
 3331SOL     OW11433   7.472   5.637  12.206  0.1959 -0.4096 -0.2548
 3331SOL    HW111434   7.544   5.582  12.238  0.5105  0.4265  0.5112
 3331SOL    HW211435   7.496   5.659  12.116  0.6093 -0.6169 -0.1957
 3332SOL     OW11436   7.948   2.042   6.984  0.1287 -0.5148  0.0972
 3332SOL    HW111437   7.918   2.120   7.032 -0.1721 -0.2811 -0.4662
 3332SOL    HW211438   7.990   2.077   6.906 -1.0325 -0.9466 -0.7421
 3333SOL     OW11439   1.517   2.105   9.333 -0.1897 -0.1956 -0.0283
 3333SOL    HW111440   1.541   2.189   9.295 -0.1313  0.4619  1.3872
 3333SOL    HW211441   1.424   2.095   9.313 -0.2030  0.2212 -0.1786
 3334SOL     OW11442   1.194   4.908   8.454  0.2609 -0.1204 -0.0920
 3334SOL    HW111443   1.152   4.915   8.368 -0.7780 -0.8861  0.3333
 3334SOL    HW211444   1.143   4.966   8.511  0.5172 -0.1440  0.1665
 3335SOL     OW11445   1.431   4.515   5.766  0.6975  0.1083  0.6471
 3335SOL    HW111446   1.438   4.422   5.790  0.6421  0.1922  1.0017
 3335SOL    HW211447   1.521   4.545   5.760  0.7179 -0.0064  0.3838
 3336SOL     OW11448   5.672   6.512   6.866 -0.7004  0.2950  0.2351
 3336SOL    HW111449   5.764   6.526   6.847 -0.4517 -2.5202 -1.2130
 3336SOL    HW211450   5.627   6.535   6.784 -0.8379 -1.5760 -0.2627
 3337SOL     OW11451   5.148   5.634   7.836 -0.3355  0.0635 -0.0342
 3337SOL    HW111452   5.077   5.663   7.779  0.1702 -0.6170 -1.0447
 3337SOL    HW211453   5.122   5.662   7.923 -1.9104 -0.2828 -0.3608
 3338SOL     OW11454   6.078   7.468   3.031  0.3149 -0.4981  0.0457
 3338SOL    HW111455   6.112   7.382   3.057  2.3792  0.4175  0.6034
 3338SOL    HW211456   6.010   7.488   3.096  0.3593 -1.3701  0.3645
 3339SOL     OW11457   0.834   3.800   8.347  0.1014  0.3581  0.8930
 3339SOL    HW111458   0.924   3.786   8.317  0.4662  0.7399  1.7924
 3339SOL    HW211459   0.780   3.752   8.284  1.0097 -0.9911  1.1092
 3340SOL     OW11460   4.971   0.107  11.011 -0.4700  0.6347 -0.3087
 3340SOL    HW111461   4.956   0.199  11.032  1.1291  0.7035  0.6996
 3340SOL    HW211462   5.065   0.102  10.994 -0.8920 -0.3876 -2.7519
 3341SOL     OW11463   0.191   5.091   6.551 -0.1319 -0.3997 -0.1565
 3341SOL    HW111464   0.174   5.164   6.611  1.3197  0.8872 -1.2187
 3341SOL    HW211465   0.227   5.022   6.607  0.2357  0.4030  0.6212
 3342SOL     OW11466   7.540   2.160   2.200 -0.0540  0.3566 -0.1573
 3342SOL    HW111467   7.491   2.198   2.273  0.3488  3.0784 -1.2233
 3342SOL    HW211468   7.474   2.111   2.150 -0.7459  0.2554  0.8212
 3343SOL     OW11469   0.496   5.099   1.665 -0.6087  0.1255  0.3101
 3343SOL    HW111470   0.410   5.139   1.651 -1.1665 -0.5306  1.6305
 3343SOL    HW211471   0.497   5.023   1.607 -0.5456  0.6280 -0.3608
 3344SOL     OW11472   1.755   1.700  10.131  0.5745  0.3638  0.1324
 3344SOL    HW111473   1.669   1.659  10.143  1.1414 -0.8348  0.3060
 3344SOL    HW211474   1.748   1.784  10.176 -1.7747  2.1777 -3.2213
 3345SOL     OW11475   7.573   0.631  11.925 -0.6948 -0.6602 -0.7493
 3345SOL    HW111476   7.588   0.717  11.963 -0.5631 -0.1636 -1.8825
 3345SOL    HW211477   7.480   0.614  11.940 -0.3123 -1.2192  1.2320
 3346SOL     OW11478   5.409   5.957   1.350 -0.3456 -0.3218 -0.0649
 3346SOL    HW111479   5.323   5.915   1.354  0.2794 -1.7411 -0.8219
 3346SOL    HW211480   5.446   5.942   1.437 -1.3875  1.5489  0.7529
 3347SOL     OW11481   2.852   7.768   5.418 -0.2491 -0.3095  0.5742
 3347SOL    HW111482   2.791   7.771   5.492 -0.0606 -3.6525  1.0328
 3347SOL    HW211483   2.837   7.849   5.371 -1.3766  1.3280  3.4964
 3348SOL     OW11484   0.009   5.816   5.282  0.1204 -0.7396 -0.1669
 3348SOL    HW111485   0.080   5.754   5.294 -0.9327 -1.6618  1.8994
 3348SOL    HW211486  -0.038   5.786   5.205  1.4483 -0.6040 -1.0546
 3349SOL     OW11487   3.172   2.333   0.200  0.3512  0.3835  0.0194
 3349SOL    HW111488   3.177   2.381   0.117  1.2101 -0.6790 -0.5760
 3349SOL    HW211489   3.264   2.315   0.222  0.0660 -0.9791  0.2019
 3350SOL     OW11490   1.781   1.524   8.290 -0.0277 -0.3995 -0.1287
 3350SOL    HW111491   1.842   1.453   8.267 -0.2161 -1.0754  1.3472
 3350SOL    HW211492   1.835   1.604   8.284  0.6936 -0.8629  0.0180
 3351SOL     OW11493   1.328   4.240   6.650 -0.5285 -0.3585  0.5883
 3351SOL    HW111494   1.351   4.328   6.622 -0.7136 -0.5977 -0.3447
 3351SOL    HW211495   1.390   4.183   6.604 -0.5473 -0.7338  1.0151
 3352SOL     OW11496   6.856   4.014  10.009  0.1029 -0.2013  0.3215
 3352SOL    HW111497   6.932   4.003   9.952 -0.1169 -0.4005  0.0596
 3352SOL    HW211498   6.872   4.095  10.056  0.3765 -0.1325  0.1114
 3353SOL     OW11499   5.947   3.398   0.988  0.0594 -0.2721  0.4297
 3353SOL    HW111500   5.974   3.339   1.058  0.5168  0.3990  0.8315
 3353SOL    HW211501   5.866   3.438   1.020 -1.2447 -1.9664 -0.5943
 3354SOL     OW11502   7.641   5.750   6.243  0.3312 -0.3095  0.7833
 3354SOL    HW111503   7.731   5.750   6.277  1.2785 -0.9777 -1.5545
 3354SOL    HW211504   7.635   5.828   6.189 -0.0506 -0.9522 -0.1280
 3355SOL     OW11505   6.920   4.447   9.884 -0.4220 -0.3573 -0.5429
 3355SOL    HW111506   6.870   4.514   9.931 -0.4360 -0.0554 -0.9826
 3355SOL    HW211507   6.874   4.438   9.800 -1.2525 -1.9118  0.0466
 3356SOL     OW11508   2.473   6.662   2.146  0.4663  0.0177  0.0603
 3356SOL    HW111509   2.491   6.568   2.140 -1.5159 -0.4370  0.5602
 3356SOL    HW211510   2.559   6.703   2.134  1.2831 -1.8146 -0.8697
 3357SOL     OW11511   2.968   2.922   6.408  0.4734 -0.0894  0.6726
 3357SOL    HW111512   3.049   2.874   6.427  0.8107  0.4683  0.6931
 3357SOL    HW211513   2.900   2.875   6.455  0.8583 -0.3201  1.0105
 3358SOL     OW11514   3.844   2.102   8.612 -0.4179 -0.1109 -0.5533
 3358SOL    HW111515   3.762   2.137   8.579 -0.1625  0.8697 -0.1982
 3358SOL    HW211516   3.905   2.109   8.539 -0.5257 -0.4047 -0.6732
 3359SOL     OW11517   5.798   0.574   4.919 -0.2407 -0.4199  0.2651
 3359SOL    HW111518   5.751   0.591   5.001 -1.3923 -0.2950 -0.4009
 3359SOL    HW211519   5.766   0.641   4.859  0.4095 -0.6634 -0.3623
 3360SOL     OW11520   5.617   7.901   2.726  0.3123  0.2054 -0.1568
 3360SOL    HW111521   5.583   7.900   2.637  0.5549 -1.2124 -0.2560
 3360SOL    HW211522   5.687   7.835   2.726  1.4096  1.3241  0.6686
 3361SOL     OW11523   7.982   1.225  10.333 -0.7808  0.2075  0.0903
 3361SOL    HW111524   7.886   1.220  10.332 -0.8305  0.7522  0.8804
 3361SOL    HW211525   8.005   1.215  10.425 -0.2622  2.7988  0.3281
 3362SOL     OW11526   0.871   3.159   7.196  0.4876 -0.5931  0.0652
 3362SOL    HW111527   0.836   3.073   7.218 -0.5902  0.2390  1.8122
 3362SOL    HW211528   0.827   3.182   7.114  2.0754 -2.3546 -1.4000
 3363SOL     OW11529   1.324   0.425   1.846  0.1023  0.0400 -0.0108
 3363SOL    HW111530   1.354   0.334   1.854  0.2054  0.0538 -0.2242
 3363SOL    HW211531   1.230   0.419   1.833  0.1462 -0.0505 -0.2959
 3364SOL     OW11532   0.928   2.611   4.608 -0.0242 -0.0100  0.1887
 3364SOL    HW111533   0.941   2.700   4.642  0.9024  0.5588 -1.5410
 3364SOL    HW211534   1.017   2.576   4.598 -0.2357 -0.0197 -1.9073
 3365SOL     OW11535   0.441   5.497   4.029  0.4122 -0.3195 -0.5893
 3365SOL    HW111536   0.501   5.437   4.074  0.0948 -0.8095 -0.8136
 3365SOL    HW211537   0.413   5.558   4.097  0.9394 -0.2601 -0.4163
 3366SOL     OW11538   6.594   3.778   7.210  0.6069 -0.2383  0.1769
 3366SOL    HW111539   6.641   3.793   7.293 -0.6896 -1.6671  1.2156
 3366SOL    HW211540   6.617   3.854   7.156 -0.2327  1.9030  2.6454
 3367SOL     OW11541   3.824   0.572   2.422 -0.5777  0.0776 -0.0900
 3367SOL    HW111542   3.870   0.651   2.451  0.4582 -1.1717  1.8421
 3367SOL    HW211543   3.891   0.503   2.422 -1.5576 -0.9264 -1.3061
 3368SOL     OW11544   5.220   1.370   6.924  0.3696  0.1624  0.7087
 3368SOL    HW111545   5.288   1.317   6.965  0.4772  0.5170  0.9957
 3368SOL    HW211546   5.141   1.316   6.928  0.6213 -0.2241  0.4303
 3369SOL     OW11547   2.848   7.334   5.567  0.0132  0.8075 -0.1302
 3369SOL    HW111548   2.806   7.249   5.568  0.2105  0.6494 -2.3411
 3369SOL    HW211549   2.821   7.375   5.485 -0.2370  2.9849  0.9491
 3370SOL     OW11550   2.130   6.898   7.493  0.1419 -0.4347  0.0010
 3370SOL    HW111551   2.211   6.846   7.489 -0.4160 -1.2951 -0.5179
 3370SOL    HW211552   2.064   6.843   7.451 -1.1927 -0.6069  2.1655
 3371SOL     OW11553   3.727   7.911   3.641 -0.0840 -0.4103  0.7770
 3371SOL    HW111554   3.802   7.898   3.583  0.4734  0.8191  1.2061
 3371SOL    HW211555   3.717   7.827   3.687 -1.0646 -1.7088 -1.6417
 3372SOL     OW11556   7.179   6.788   8.684 -0.4898 -0.1822 -0.3784
 3372SOL    HW111557   7.233   6.729   8.630 -0.8589 -0.0792 -0.8688
 3372SOL    HW211558   7.104   6.735   8.710  0.4482 -0.7221  1.3798
 3373SOL     OW11559   4.487   3.371   2.495  0.2759 -0.2641  0.3736
 3373SOL    HW111560   4.490   3.360   2.400 -0.8399  0.8663  0.1797
 3373SOL    HW211561   4.395   3.358   2.518  0.6500 -1.2505  1.4144
 3374SOL     OW11562   6.705   5.316  11.975  0.0971  0.6785  0.0346
 3374SOL    HW111563   6.636   5.356  12.027  0.2212 -0.2436  0.9410
 3374SOL    HW211564   6.658   5.262  11.910 -0.0744 -0.7964  1.3250
 3375SOL     OW11565   5.500   5.310   7.652 -0.2148  0.2670 -0.2735
 3375SOL    HW111566   5.527   5.232   7.603 -1.5431 -0.2733 -0.1948
 3375SOL    HW211567   5.424   5.342   7.604 -0.9939  0.2517  0.9086
 3376SOL     OW11568   2.041   1.881   9.202  0.0906  0.0200  0.9351
 3376SOL    HW111569   2.097   1.912   9.131 -0.2809  0.8888  1.0142
 3376SOL    HW211570   1.955   1.869   9.161 -0.1431  0.5978  1.2496
 3377SOL     OW11571   6.015   7.669   5.628  0.0817  0.4614 -0.2059
 3377SOL    HW111572   6.103   7.639   5.604 -0.5950 -1.8813 -0.0182
 3377SOL    HW211573   6.028   7.722   5.707  1.2229 -1.0617  0.6761
 3378SOL     OW11574   0.864   6.630   3.679  0.0039  0.9054  0.2213
 3378SOL    HW111575   0.931   6.590   3.735  0.4979  1.4324  0.0217
 3378SOL    HW211576   0.900   6.716   3.657 -0.3206  0.8228 -0.6586
 3379SOL     OW11577   1.487   6.552   6.761 -0.1853  0.1763  0.4310
 3379SOL    HW111578   1.541   6.631   6.765  0.0116 -0.0136  3.0807
 3379SOL    HW211579   1.440   6.560   6.678  2.0621  1.5388 -0.8395
 3380SOL     OW11580   6.347   7.244   1.269  0.3428  0.2752  0.8571
 3380SOL    HW111581   6.262   7.287   1.261  1.3645  2.6078  1.6024
 3380SOL    HW211582   6.362   7.238   1.363  1.6763  1.4472  0.7596
 3381SOL     OW11583   0.562   5.361  11.071 -0.3799 -0.0101  0.8155
 3381SOL    HW111584   0.641   5.405  11.039  0.6301 -2.3879 -0.2152
 3381SOL    HW211585   0.498   5.431  11.081  1.4100  1.8122  0.3012
 3382SOL     OW11586   5.936   5.029   6.775 -0.0662 -0.3840 -0.2118
 3382SOL    HW111587   6.010   4.975   6.802 -0.2189 -0.8509 -0.7230
 3382SOL    HW211588   5.882   4.971   6.721 -1.2109 -0.2949  0.7755
 3383SOL     OW11589   4.574   5.439  10.975 -0.2475 -0.7032 -0.5114
 3383SOL    HW111590   4.549   5.526  10.942 -2.7699 -1.1718 -0.0423
 3383SOL    HW211591   4.589   5.387  10.896  0.0261 -0.1839 -0.8112
 3384SOL     OW11592   4.436   5.733  10.249 -0.2224 -0.1800 -0.1924
 3384SOL    HW111593   4.498   5.677  10.296  1.4501  2.3374  0.8169
 3384SOL    HW211594   4.475   5.747  10.163 -0.8014 -0.7734 -0.5652
 3385SOL     OW11595   4.420   2.153  11.655  0.0242 -0.0613  0.3853
 3385SOL    HW111596   4.434   2.242  11.622 -0.5999 -0.3451 -0.6857
 3385SOL    HW211597   4.380   2.106  11.582 -0.4725 -0.9892  1.2327
 3386SOL     OW11598   1.958   1.816  11.893  0.0516 -0.1332 -0.0245
 3386SOL    HW111599   1.933   1.901  11.858 -3.0946 -1.0996 -0.4392
 3386SOL    HW211600   2.046   1.800  11.858  0.1177  2.2818 -1.1169
 3387SOL     OW11601   3.991   4.017   4.770 -0.0127  0.1253  0.0910
 3387SOL    HW111602   4.033   3.972   4.844 -0.7190 -0.4071  0.1709
 3387SOL    HW211603   4.064   4.061   4.725  0.8266 -1.7398 -0.4564
 3388SOL     OW11604   3.145   5.747   0.054 -0.0863 -0.1229  0.0159
 3388SOL    HW111605   3.187   5.686   0.116 -1.6680 -1.7294 -0.3908
 3388SOL    HW211606   3.161   5.834   0.091  3.1587 -0.6380  0.0820
 3389SOL     OW11607   3.452   3.351   5.956  0.1307 -0.3138 -0.1242
 3389SOL    HW111608   3.544   3.349   5.931 -0.1431 -1.4007 -1.0757
 3389SOL    HW211609   3.435   3.265   5.995 -0.4745 -0.0983  0.1075
 3390SOL     OW11610   1.533   4.746  11.534  0.2984 -0.7769  0.1087
 3390SOL    HW111611   1.532   4.659  11.574  3.9229 -1.1894 -0.3680
 3390SOL    HW211612   1.567   4.804  11.603  1.1041 -0.4055 -0.5863
 3391SOL     OW11613   6.092   3.923   8.222 -0.6028 -0.3394  0.6183
 3391SOL    HW111614   6.060   3.883   8.141 -1.5216 -1.0244  1.2895
 3391SOL    HW211615   6.060   4.013   8.220 -0.3702 -0.2670  0.0920
 3392SOL     OW11616   4.432   5.608   7.821 -0.6314  0.1575  0.2829
 3392SOL    HW111617   4.399   5.528   7.780  2.6197 -0.2307 -1.9209
 3392SOL    HW211618   4.389   5.679   7.772 -0.4158 -0.2948 -0.5837
 3393SOL     OW11619   1.613   6.459   7.999  0.2522 -0.0674 -0.3970
 3393SOL    HW111620   1.559   6.393   8.044  2.3721 -2.9050 -1.6832
 3393SOL    HW211621   1.574   6.464   7.911  0.6037 -0.2760 -0.5657
 3394SOL     OW11622   7.935   7.579   5.281  0.4181 -0.1183  0.5575
 3394SOL    HW111623   7.939   7.671   5.252 -0.5971 -0.2837 -0.1851
 3394SOL    HW211624   7.872   7.579   5.353 -0.0092 -0.2989  0.1946
 3395SOL     OW11625   2.502   2.205   2.622 -0.0637  0.0257  0.3379
 3395SOL    HW111626   2.516   2.131   2.681  0.6783 -0.5797 -0.5685
 3395SOL    HW211627   2.468   2.274   2.678 -0.8318 -1.0115  1.1987
 3396SOL     OW11628   5.984   1.676   4.695 -0.2246  0.0016  0.6583
 3396SOL    HW111629   6.038   1.669   4.774 -0.6908 -2.2070  0.8595
 3396SOL    HW211630   6.044   1.653   4.623 -0.7852 -2.5386  0.8900
 3397SOL     OW11631   4.852   7.828   9.398 -0.4791 -0.0819  0.1727
 3397SOL    HW111632   4.823   7.854   9.486 -0.5596  1.1520 -0.2082
 3397SOL    HW211633   4.778   7.851   9.341  0.0506  0.2548 -0.3836
 3398SOL     OW11634   0.422   5.975   4.803  0.1848  0.1919 -0.0187
 3398SOL    HW111635   0.363   6.033   4.755 -2.6608 -1.3173  1.3862
 3398SOL    HW211636   0.436   6.019   4.887  2.1270  1.0770 -0.7404
 3399SOL     OW11637   0.252   5.288   3.915  0.1366  0.5256  0.0679
 3399SOL    HW111638   0.273   5.325   3.829 -1.0690  3.3476  0.8664
 3399SOL    HW211639   0.305   5.340   3.976 -0.4929 -0.1060  1.1732
 3400SOL     OW11640   5.698   7.968   8.119  0.1077 -0.2087 -0.1115
 3400SOL    HW111641   5.651   8.002   8.043 -1.1256  1.1771  1.1920
 3400SOL    HW211642   5.636   7.907   8.160 -0.6961  1.6578  1.6411
 3401SOL     OW11643   5.367   3.712   5.644  0.1365  0.0064  0.1358
 3401SOL    HW111644   5.457   3.733   5.669  0.0511 -1.1302  1.5105
 3401SOL    HW211645   5.376   3.654   5.568  0.5121  0.7874 -0.4276
 3402SOL     OW11646   0.254   5.302   2.155  0.3961 -0.1644 -0.3376
 3402SOL    HW111647   0.313   5.256   2.215 -1.6094  0.0664  1.9752
 3402SOL    HW211648   0.166   5.270   2.179 -0.5072 -0.3834 -3.5161
 3403SOL     OW11649   6.891   5.232   4.077 -0.0723 -0.4274  0.3374
 3403SOL    HW111650   6.917   5.158   4.023  1.6804 -0.7417  1.5301
 3403SOL    HW211651   6.972   5.281   4.092 -0.5802 -0.0858  2.2547
 3404SOL     OW11652   1.798   2.448   8.148  0.4091 -0.1916 -0.1283
 3404SOL    HW111653   1.866   2.406   8.096  1.6188  0.3388  0.9497
 3404SOL    HW211654   1.846   2.509   8.204 -1.1186  1.3011 -0.3844
 3405SOL     OW11655   6.144   5.656   5.564 -0.1707  0.3930 -0.2690
 3405SOL    HW111656   6.207   5.670   5.635 -1.7054 -0.0141  1.2289
 3405SOL    HW211657   6.136   5.561   5.557  1.6966  0.3071 -2.6524
 3406SOL     OW11658   4.993   3.619   8.016 -0.0481 -0.7224  0.3095
 3406SOL    HW111659   4.991   3.705   7.974 -1.1442 -1.4447 -1.2325
 3406SOL    HW211660   4.902   3.605   8.043 -0.5484 -2.5304 -2.0074
 3407SOL     OW11661   2.254   5.393   1.316  0.1707  0.9757  0.0315
 3407SOL    HW111662   2.220   5.336   1.247 -0.3386  0.5250  0.6413
 3407SOL    HW211663   2.226   5.351   1.398 -0.9210  2.5155  0.4884
 3408SOL     OW11664   2.416   4.128   0.914  0.5185  0.0979 -0.7291
 3408SOL    HW111665   2.429   4.121   1.008  1.0118 -0.3525 -0.8283
 3408SOL    HW211666   2.323   4.108   0.900  0.5759 -0.3984 -0.3998
 3409SOL     OW11667   4.230   5.010   3.107 -0.2776 -0.0255  0.0824
 3409SOL    HW111668   4.196   4.921   3.121 -0.1774  0.1673  1.7200
 3409SOL    HW211669   4.305   4.997   3.049 -0.4161 -0.9808  0.0897
 3410SOL     OW11670   7.243   7.603   4.510  0.0833 -0.4372 -0.3368
 3410SOL    HW111671   7.261   7.549   4.433 -0.0631 -0.5853 -0.2674
 3410SOL    HW211672   7.256   7.693   4.479  1.9788 -0.5591 -0.0302
 3411SOL     OW11673   2.537   4.554  10.177 -0.4188 -0.3945 -0.2541
 3411SOL    HW111674   2.518   4.490  10.245 -2.3456  0.9798  0.5904
 3411SOL    HW211675   2.457   4.559  10.125  0.9391 -1.2835 -2.5973
 3412SOL     OW11676   0.288   1.597   8.882  0.3540  0.6504  0.0242
 3412SOL    HW111677   0.205   1.576   8.841  0.2985 -1.3192  1.0187
 3412SOL    HW211678   0.336   1.647   8.816  0.9284 -3.6253 -3.2323
 3413SOL     OW11679   5.507   1.713   5.276  0.2068  0.1236  1.0369
 3413SOL    HW111680   5.505   1.654   5.201 -1.5576  0.6790  0.6011
 3413SOL    HW211681   5.565   1.669   5.339  1.3177 -0.5929 -0.4193
 3414SOL     OW11682   6.591   7.667   1.877  0.0884 -0.5803  0.9216
 3414SOL    HW111683   6.567   7.581   1.912 -1.5321 -0.7169 -0.3954
 3414SOL    HW211684   6.511   7.720   1.886  0.9786  0.7326  1.4695
 3415SOL     OW11685   0.788   2.930  10.113  0.5000  0.5345 -0.3738
 3415SOL    HW111686   0.785   3.005  10.172  0.3644 -0.3650  0.7909
 3415SOL    HW211687   0.880   2.922  10.089  0.5401  0.9619 -0.3643
 3416SOL     OW11688   0.666   1.492  10.304 -0.2209 -0.0411  0.4779
 3416SOL    HW111689   0.671   1.587  10.292  1.9552 -0.2940 -1.0396
 3416SOL    HW211690   0.715   1.476  10.384  1.3721 -0.0656 -0.4769
 3417SOL     OW11691   5.483   1.874  10.540 -0.0816 -0.4019  0.0874
 3417SOL    HW111692   5.435   1.796  10.566 -1.4676 -0.3616 -2.0955
 3417SOL    HW211693   5.483   1.930  10.617 -0.7735 -1.7355  1.0849
 3418SOL     OW11694   5.010   6.492   8.187 -0.0292 -0.4619  0.7700
 3418SOL    HW111695   5.068   6.547   8.135 -2.2923 -0.6439 -2.1710
 3418SOL    HW211696   5.026   6.403   8.154 -2.5054 -0.4083 -0.7659
 3419SOL     OW11697   5.928   7.525   5.151  0.0251 -0.6793  0.0140
 3419SOL    HW111698   5.863   7.456   5.141 -1.0399  0.2527  0.2922
 3419SOL    HW211699   5.877   7.604   5.166  1.2386  0.0298  0.5812
 3420SOL     OW11700   4.166   1.665  10.218 -0.5719  0.6045 -0.0480
 3420SOL    HW111701   4.138   1.751  10.188 -0.5738  1.1047  1.3050
 3420SOL    HW211702   4.261   1.672  10.226 -0.3110 -0.2146 -1.9712
 3421SOL     OW11703   0.377   4.810   0.809  0.2740 -0.4006 -0.2603
 3421SOL    HW111704   0.301   4.809   0.867 -1.5715  0.5878 -2.5019
 3421SOL    HW211705   0.361   4.738   0.748  1.9353 -1.1312  0.1203
 3422SOL     OW11706   6.893   0.467   3.223 -0.7452 -0.8499 -0.4567
 3422SOL    HW111707   6.824   0.528   3.247  1.3235  1.6378 -0.4380
 3422SOL    HW211708   6.954   0.468   3.297 -1.0480 -3.6904 -0.0631
 3423SOL     OW11709   1.453   2.909  10.002  0.0837 -0.2584  0.3624
 3423SOL    HW111710   1.486   2.906  10.092  1.4328 -0.1017 -0.1073
 3423SOL    HW211711   1.427   2.819   9.984  0.9680 -0.5544  0.5064
 3424SOL     OW11712   7.755   1.742   4.203  0.5177  0.7131  0.0410
 3424SOL    HW111713   7.814   1.817   4.214  0.7954  0.1612  3.2384
 3424SOL    HW211714   7.686   1.756   4.268 -1.0176 -0.4136 -1.2730
 3425SOL     OW11715   3.285   1.365   3.006  1.0721  0.0847 -0.5241
 3425SOL    HW111716   3.280   1.270   3.006 -0.2479  0.1408  0.4312
 3425SOL    HW211717   3.208   1.394   2.957 -0.8418  0.6932  2.5577
 3426SOL     OW11718   1.700   1.251   6.578  0.5135 -0.2183  0.0099
 3426SOL    HW111719   1.781   1.283   6.538  0.5115  0.6136  0.6372
 3426SOL    HW211720   1.681   1.314   6.647  0.5500 -1.6500  1.3674
 3427SOL     OW11721   4.436   6.909   2.273  0.0685  0.1475  0.1474
 3427SOL    HW111722   4.511   6.968   2.260 -0.4215  0.6194 -0.5900
 3427SOL    HW211723   4.470   6.822   2.248  0.6206  0.2107  0.6611
 3428SOL     OW11724   2.720   5.150  12.149 -0.1421  0.0731 -0.6414
 3428SOL    HW111725   2.722   5.241  12.180 -1.0572 -0.5077  1.2796
 3428SOL    HW211726   2.779   5.149  12.074 -0.0843  2.2435 -0.6840
 3429SOL     OW11727   2.468   6.698   3.524  0.1215  0.0040  0.6105
 3429SOL    HW111728   2.395   6.636   3.532 -0.2354 -0.0072 -2.1037
 3429SOL    HW211729   2.545   6.646   3.547 -0.5965  0.0640  3.7314
 3430SOL     OW11730   3.459   2.231  12.288 -0.0077  0.4082  0.5568
 3430SOL    HW111731   3.495   2.281  12.215 -0.3444 -0.2774 -0.0981
 3430SOL    HW211732   3.368   2.260  12.293  0.2314  1.0712  1.2637
 3431SOL     OW11733   7.678   5.176   0.283  0.1108  0.0616  1.4627
 3431SOL    HW111734   7.736   5.167   0.207 -0.1612 -0.2263  1.2869
 3431SOL    HW211735   7.733   5.158   0.358  0.7571  1.7715  1.4579
 3432SOL     OW11736   6.970   2.547   4.623 -0.2348  0.1806 -0.1621
 3432SOL    HW111737   6.996   2.615   4.686 -2.3722 -0.1560  1.1899
 3432SOL    HW211738   6.954   2.595   4.542  2.0480  0.7030 -0.3918
 3433SOL     OW11739   2.046   3.828  11.524  0.2730  0.2036  0.0131
 3433SOL    HW111740   2.084   3.883  11.593 -0.2806  0.3846  0.1765
 3433SOL    HW211741   2.117   3.815  11.461  0.2633  1.5556 -0.2995
 3434SOL     OW11742   7.494   1.091   8.997  0.2492  0.2658 -0.1563
 3434SOL    HW111743   7.570   1.093   9.056  0.5209  0.9015 -0.5172
 3434SOL    HW211744   7.531   1.107   8.910 -0.1296 -0.8137 -0.5326
 3435SOL     OW11745   1.563   4.992  10.898 -0.2120 -0.1903 -0.2345
 3435SOL    HW111746   1.643   4.948  10.929  1.4675  2.3628 -0.6926
 3435SOL    HW211747   1.561   4.974  10.804  0.8624  1.1912 -0.5507
 3436SOL     OW11748   6.321   7.323   7.177  0.5135 -0.6845  0.2151
 3436SOL    HW111749   6.271   7.398   7.210  2.5920 -0.2942  2.7686
 3436SOL    HW211750   6.329   7.340   7.083 -1.7052  0.6512  0.1983
 3437SOL     OW11751   4.417   5.743   7.129  0.0273  0.1263  0.0103
 3437SOL    HW111752   4.354   5.696   7.184  0.1685  0.4144  0.4253
 3437SOL    HW211753   4.436   5.682   7.058 -1.9873  0.6863 -1.0573
 3438SOL     OW11754   5.247   5.882  11.696  0.0217  0.5985 -0.4387
 3438SOL    HW111755   5.327   5.848  11.656 -0.1176  0.7344 -0.8438
 3438SOL    HW211756   5.188   5.898  11.622 -1.2631 -1.7224 -0.0120
 3439SOL     OW11757   5.697   6.076   4.301 -0.1544  0.2691  0.1480
 3439SOL    HW111758   5.670   6.023   4.227 -2.5353 -0.1717  1.2251
 3439SOL    HW211759   5.792   6.085   4.292 -0.4954  1.5218 -3.7383
 3440SOL     OW11760   1.927   0.693   6.706  0.4762 -0.0167  0.1422
 3440SOL    HW111761   2.001   0.635   6.691  1.5297  1.2933  0.0937
 3440SOL    HW211762   1.963   0.781   6.696 -0.6394  0.7152  2.0860
 3441SOL     OW11763   7.944   5.567  10.707  0.5648 -0.7338  0.4347
 3441SOL    HW111764   7.972   5.658  10.720  0.4998 -0.7129  0.4314
 3441SOL    HW211765   7.894   5.569  10.625  0.4782 -0.7518  0.4864
 3442SOL     OW11766   2.015   5.285   6.272 -0.1428  0.0013  0.1281
 3442SOL    HW111767   2.085   5.260   6.212 -0.8100 -1.4332 -0.0899
 3442SOL    HW211768   1.948   5.323   6.216  0.4467  1.4002  0.3404
 3443SOL     OW11769   3.407   0.300   5.846 -0.5384 -0.0896 -0.0281
 3443SOL    HW111770   3.386   0.217   5.804 -1.7918 -0.2206  0.7860
 3443SOL    HW211771   3.352   0.365   5.801  1.7229  0.6793 -1.8720
 3444SOL     OW11772   7.675   2.414   3.202 -0.2494  0.3175 -0.7803
 3444SOL    HW111773   7.750   2.371   3.163  0.0654  1.9882 -2.1412
 3444SOL    HW211774   7.708   2.450   3.285  0.5373  1.1925 -1.4503
 3445SOL     OW11775   0.112   4.974   9.500 -0.5696 -0.5197  0.0876
 3445SOL    HW111776   0.169   4.904   9.469 -2.0359 -1.3692 -0.8541
 3445SOL    HW211777   0.125   4.975   9.595  0.0919 -1.5154  0.0275
 3446SOL     OW11778   3.065   3.635   0.358  0.1364  0.5003  0.4008
 3446SOL    HW111779   3.158   3.625   0.335 -0.0267  1.1081 -0.5544
 3446SOL    HW211780   3.051   3.729   0.360 -0.3637  0.4192  1.0037
 3447SOL     OW11781   6.192   1.155   5.221  0.2409 -0.1487  0.6691
 3447SOL    HW111782   6.176   1.181   5.131 -0.1190  0.0877  0.7953
 3447SOL    HW211783   6.145   1.221   5.273  1.6289  0.5566  1.0681
 3448SOL     OW11784   0.706   7.339   4.334  0.5651 -0.6889  0.5218
 3448SOL    HW111785   0.786   7.324   4.384  0.6715 -0.8497  0.3089
 3448SOL    HW211786   0.660   7.254   4.336  1.3042 -1.1543 -0.9287
 3449SOL     OW11787   6.232   6.519   8.932  0.5307  0.3051 -0.0808
 3449SOL    HW111788   6.232   6.442   8.989 -0.6275 -0.0773 -0.5768
 3449SOL    HW211789   6.222   6.593   8.992  2.3932  0.1715  0.4769
 3450SOL     OW11790   5.199   7.686   7.113 -0.3846  0.4639  0.0039
 3450SOL    HW111791   5.282   7.717   7.148 -0.2232  0.6217 -0.5084
 3450SOL    HW211792   5.162   7.632   7.183 -0.8047  2.0265  1.0302
 3451SOL     OW11793   2.460   4.722   0.321  0.2543  0.5343  0.1602
 3451SOL    HW111794   2.414   4.763   0.248  0.2927 -0.2326 -0.3001
 3451SOL    HW211795   2.545   4.765   0.323  1.1327 -0.9970 -1.7040
 3452SOL     OW11796   5.782   5.562   9.452 -0.3017  0.4700 -0.0396
 3452SOL    HW111797   5.761   5.494   9.515 -2.4134  1.8774  0.9007
 3452SOL    HW211798   5.805   5.516   9.371  0.2061 -1.3243  1.0913
 3453SOL     OW11799   2.972   5.897  11.394 -0.1586  0.1166 -0.6772
 3453SOL    HW111800   2.928   5.920  11.312  0.4974  0.0349 -1.0617
 3453SOL    HW211801   2.901   5.881  11.456 -0.6478  1.0977 -0.9721
 3454SOL     OW11802   6.445   3.032  12.044  0.2236  0.2707 -0.5799
 3454SOL    HW111803   6.486   2.957  12.003 -1.7756 -0.4831 -1.3312
 3454SOL    HW211804   6.426   3.092  11.972 -0.4498  0.3552 -0.3426
 3455SOL     OW11805   4.551   5.401   1.140  0.1886  1.0067 -0.5625
 3455SOL    HW111806   4.624   5.429   1.196 -0.7945  1.5642  0.4809
 3455SOL    HW211807   4.506   5.483   1.117  0.1369  0.7112 -1.5605
 3456SOL     OW11808   4.650   4.136   8.417  0.0516 -0.0854 -0.0067
 3456SOL    HW111809   4.572   4.092   8.385  0.7405 -0.3117 -1.4838
 3456SOL    HW211810   4.650   4.221   8.373  1.2403 -0.5638 -0.9956
 3457SOL     OW11811   5.664   2.643   0.473 -0.1637  0.0185  0.5686
 3457SOL    HW111812   5.622   2.714   0.426  1.0030  1.0859  1.0884
 3457SOL    HW211813   5.607   2.627   0.548 -0.5629  0.2295  0.3124
 3458SOL     OW11814   0.982   7.876   1.274  0.1517 -0.1411 -0.3856
 3458SOL    HW111815   0.886   7.872   1.285 -0.1345  1.0305 -2.1149
 3458SOL    HW211816   0.995   7.899   1.183  2.1233 -0.3001 -0.1867
 3459SOL     OW11817   3.774   4.809   9.268  0.5511  0.5153 -0.0821
 3459SOL    HW111818   3.738   4.818   9.180 -0.1152 -0.8636  0.0257
 3459SOL    HW211819   3.701   4.826   9.327  0.6917  0.2297  0.1825
 3460SOL     OW11820   1.041   1.135   6.439 -0.2233  0.2779  0.0178
 3460SOL    HW111821   1.018   1.077   6.367 -2.5671  1.3721 -0.2345
 3460SOL    HW211822   1.012   1.088   6.518 -0.0502  0.1675  0.0159
 3461SOL     OW11823   0.109   6.686   5.693 -0.1341  0.2298 -0.4073
 3461SOL    HW111824   0.034   6.685   5.633 -0.1133  0.2554 -0.4342
 3461SOL    HW211825   0.080   6.739   5.767 -0.7151 -1.0839  0.3367
 3462SOL     OW11826   6.594   3.678   1.602 -0.2371 -0.1239  0.1773
 3462SOL    HW111827   6.675   3.672   1.551 -0.2512  0.0645  0.1302
 3462SOL    HW211828   6.567   3.587   1.615 -0.5134 -0.1584 -0.6001
 3463SOL     OW11829   7.129   5.120   2.700  0.7959  0.0455  0.0990
 3463SOL    HW111830   7.049   5.070   2.685  1.6967 -1.3448 -0.2153
 3463SOL    HW211831   7.108   5.175   2.776 -0.7545  0.4069 -0.5402
 3464SOL     OW11832   7.848   4.135   0.369  0.0505 -0.1013 -0.1355
 3464SOL    HW111833   7.854   4.161   0.277 -0.5505  1.3632  0.2158
 3464SOL    HW211834   7.756   4.148   0.392 -0.2495 -2.3098  0.1839
 3465SOL     OW11835   4.791   5.413   9.302  0.0960 -0.2043 -0.5780
 3465SOL    HW111836   4.774   5.504   9.278 -0.3831  0.0008  0.5020
 3465SOL    HW211837   4.884   5.410   9.321  0.0712  0.1050 -0.4121
 3466SOL     OW11838   1.251   5.007   4.710  0.2480 -0.1976  0.5849
 3466SOL    HW111839   1.270   4.956   4.788 -1.8822  1.3417  2.2074
 3466SOL    HW211840   1.185   5.071   4.737 -0.4894  0.5120 -2.4320
 3467SOL     OW11841   1.818   2.809   3.712 -0.2387  0.2710 -0.1621
 3467SOL    HW111842   1.902   2.783   3.751 -0.8506  0.4798  1.3309
 3467SOL    HW211843   1.766   2.728   3.711 -0.1488  0.2118 -0.8040
 3468SOL     OW11844   1.049   3.576   3.021  0.8083  0.1220  0.2859
 3468SOL    HW111845   0.966   3.620   3.041  0.0835 -0.8818 -0.3902
 3468SOL    HW211846   1.112   3.615   3.081 -0.0386  1.2677  0.4759
 3469SOL     OW11847   3.652   5.724   7.558  0.5288 -0.2544  0.4453
 3469SOL    HW111848   3.671   5.661   7.489 -0.6860  2.0533 -2.2062
 3469SOL    HW211849   3.733   5.773   7.570  0.0673  1.0429 -1.3526
 3470SOL     OW11850   1.522   6.382   4.976  0.1803  0.2981  0.1823
 3470SOL    HW111851   1.516   6.287   4.989 -0.4993  0.0122 -1.8712
 3470SOL    HW211852   1.433   6.409   4.953  0.4138  1.4098  0.5289
 3471SOL     OW11853   5.984   0.423   0.483 -0.6595 -0.2589  0.3128
 3471SOL    HW111854   6.068   0.463   0.504 -0.3615 -0.8111  0.1827
 3471SOL    HW211855   6.002   0.329   0.477 -1.3481 -0.4206  0.6090
 3472SOL     OW11856   2.505   6.479   5.779  0.6114  0.3377 -0.4894
 3472SOL    HW111857   2.560   6.554   5.803  0.8961  0.6372 -2.0199
 3472SOL    HW211858   2.565   6.405   5.774  0.3691  0.0232  0.7697
 3473SOL     OW11859   5.205   1.981  11.195  0.4091 -0.4360 -0.2166
 3473SOL    HW111860   5.190   1.958  11.287 -1.2600 -2.9496 -1.0042
 3473SOL    HW211861   5.135   2.042  11.174 -0.3628 -1.2896 -0.2328
 3474SOL     OW11862   7.556   3.289   2.477  0.2935 -0.3106  0.3201
 3474SOL    HW111863   7.567   3.227   2.549  0.8644 -0.6243 -0.0280
 3474SOL    HW211864   7.632   3.273   2.421 -0.0361  0.0794 -0.2382
 3475SOL     OW11865   3.337   3.451  10.505  0.4009 -0.5693  0.4527
 3475SOL    HW111866   3.289   3.379  10.546  0.4959 -0.5739  0.5582
 3475SOL    HW211867   3.294   3.530  10.539 -0.0729 -0.5784 -0.1098
 3476SOL     OW11868   4.197   7.335   7.600  0.5579 -0.0807  0.3107
 3476SOL    HW111869   4.173   7.261   7.656  0.3384  0.0709  0.4162
 3476SOL    HW211870   4.218   7.295   7.516  1.7446 -0.4155  0.7397
 3477SOL     OW11871   5.731   2.656   5.012 -0.4754 -0.2001  0.4993
 3477SOL    HW111872   5.667   2.645   4.942 -1.2024 -1.9591  1.3810
 3477SOL    HW211873   5.796   2.586   4.997  0.3673  0.5516  0.5466
 3478SOL     OW11874   1.920   5.994   2.065  0.6234 -0.2818  0.4607
 3478SOL    HW111875   1.851   6.041   2.111 -0.0829  0.6468 -1.4696
 3478SOL    HW211876   1.885   5.907   2.051 -0.8309  0.5661 -1.7337
 3479SOL     OW11877   4.671   1.806   6.311 -0.1546  0.1161  0.1442
 3479SOL    HW111878   4.741   1.787   6.374  0.3195  2.3150  0.3568
 3479SOL    HW211879   4.598   1.838   6.366 -0.5029  0.0118 -0.2547
 3480SOL     OW11880   3.628   2.787   0.775  0.5435 -0.5359 -0.2496
 3480SOL    HW111881   3.662   2.699   0.761  1.1194 -0.1174 -1.6394
 3480SOL    HW211882   3.614   2.822   0.687  0.9094  0.9786  0.2654
 3481SOL     OW11883   0.618   5.536   9.260  0.0767 -0.2336  0.7775
 3481SOL    HW111884   0.667   5.604   9.307  2.4361 -1.4476  0.2377
 3481SOL    HW211885   0.659   5.454   9.287 -0.5998 -1.1924 -0.9825
 3482SOL     OW11886   5.504   3.167  10.939  0.2735  0.3141  0.2982
 3482SOL    HW111887   5.448   3.185  11.014 -1.6853 -0.3953 -0.9283
 3482SOL    HW211888   5.543   3.251  10.917 -1.4984  1.1722  0.2929
 3483SOL     OW11889   2.565   0.071   3.897  0.9708 -0.4033 -0.3062
 3483SOL    HW111890   2.636   0.053   3.835  2.4985  0.7660  1.0375
 3483SOL    HW211891   2.569   0.165   3.911 -0.8655 -0.3056 -0.1607
 3484SOL     OW11892   7.557   6.244  10.010  0.8208 -0.0733 -0.1653
 3484SOL    HW111893   7.519   6.161  10.041  1.9144 -0.5552 -0.0597
 3484SOL    HW211894   7.520   6.256   9.922  0.2833 -0.4177  0.0050
 3485SOL     OW11895   2.607   6.685   1.030 -0.3808  0.2750 -0.6802
 3485SOL    HW111896   2.551   6.607   1.027 -0.1288  0.0638  0.0034
 3485SOL    HW211897   2.601   6.721   0.942 -0.9622 -0.1916 -0.8420
 3486SOL     OW11898   6.300   5.122   3.431 -0.8957  0.0752  0.3366
 3486SOL    HW111899   6.253   5.190   3.479 -1.4814  0.2775 -0.4897
 3486SOL    HW211900   6.234   5.082   3.374 -0.0267  0.5975 -1.1155
 3487SOL     OW11901   1.687   5.818   2.367 -0.2857  0.2296 -0.0706
 3487SOL    HW111902   1.624   5.871   2.318 -1.0405 -1.1897 -0.6824
 3487SOL    HW211903   1.728   5.880   2.427 -3.4079  0.9719  1.5345
 3488SOL     OW11904   5.084   1.378   8.268  0.3664  0.1294 -0.5002
 3488SOL    HW111905   5.117   1.363   8.357 -0.6309 -0.3926 -0.2108
 3488SOL    HW211906   5.052   1.293   8.239 -1.9069  0.8346 -0.2684
 3489SOL     OW11907   6.628   1.812   6.274  0.4664  0.3265  0.4530
 3489SOL    HW111908   6.688   1.887   6.275  1.8369 -0.7241  1.0058
 3489SOL    HW211909   6.576   1.822   6.354  1.6177 -0.0357  1.2669
 3490SOL     OW11910   0.861   7.435   2.002 -0.1283  0.2978 -0.5002
 3490SOL    HW111911   0.908   7.386   2.069 -0.3778  2.2175  1.1669
 3490SOL    HW211912   0.929   7.484   1.955 -0.1477  0.6472 -0.1709
 3491SOL     OW11913   2.595   2.100   6.644 -0.3863 -0.0129  0.8451
 3491SOL    HW111914   2.593   2.146   6.561  0.6805 -0.0230  0.7966
 3491SOL    HW211915   2.550   2.158   6.705 -0.4492  0.3646  0.4410
 3492SOL     OW11916   6.889   6.913   2.823 -0.4990 -0.2844 -0.1984
 3492SOL    HW111917   6.900   7.001   2.859  0.9166 -0.3452 -0.4327
 3492SOL    HW211918   6.904   6.923   2.729  2.1429 -1.1275  0.0658
 3493SOL     OW11919   3.742   1.674   5.720  0.3837 -0.1461 -0.7131
 3493SOL    HW111920   3.798   1.752   5.732 -1.3883  1.1545 -0.5160
 3493SOL    HW211921   3.654   1.709   5.711 -0.9893 -2.2382  2.6335
 3494SOL     OW11922   0.472   3.860  12.421 -0.2494 -0.1279 -0.2014
 3494SOL    HW111923   0.398   3.921  12.431 -0.6539 -0.7057  0.3940
 3494SOL    HW211924   0.435   3.784  12.377  0.1222 -0.1922 -0.4039
 3495SOL     OW11925   6.854   1.266   3.856 -0.1789 -0.2932 -0.4681
 3495SOL    HW111926   6.939   1.298   3.826  0.4365 -1.6038 -0.2006
 3495SOL    HW211927   6.790   1.305   3.797  0.8190 -1.1779 -2.1966
 3496SOL     OW11928   3.695   0.794   5.574  0.1108  0.3870 -0.0242
 3496SOL    HW111929   3.640   0.803   5.496  0.0172 -0.7921 -0.0985
 3496SOL    HW211930   3.726   0.704   5.572  0.1110  0.3438  1.3109
 3497SOL     OW11931   0.208   5.828   1.606 -0.0196  0.2315 -0.5784
 3497SOL    HW111932   0.279   5.782   1.561  0.1262  0.5518 -0.6782
 3497SOL    HW211933   0.176   5.892   1.542 -0.7433 -0.2540 -0.7175
 3498SOL     OW11934   3.781   4.855   0.448  0.2491 -0.3405 -0.4006
 3498SOL    HW111935   3.763   4.947   0.431 -1.2646 -0.3627  0.8774
 3498SOL    HW211936   3.707   4.808   0.409  0.5282 -0.9367 -0.2341
 3499SOL     OW11937   5.396   3.703   3.417 -0.2434  0.0133 -0.0756
 3499SOL    HW111938   5.350   3.786   3.410  2.9403  1.7685 -3.1575
 3499SOL    HW211939   5.449   3.712   3.497 -0.3390  0.7025 -0.0850
 3500SOL     OW11940   6.041   6.143   3.657 -0.3968 -0.5217  0.1247
 3500SOL    HW111941   5.948   6.126   3.636 -0.3449 -1.4007  0.5550
 3500SOL    HW211942   6.046   6.135   3.752  0.2578 -1.2354  0.0410
 3501SOL     OW11943   4.061   7.071   4.975  0.2910 -0.0657  0.5299
 3501SOL    HW111944   4.155   7.065   4.958  0.3943  0.5845  0.8375
 3501SOL    HW211945   4.042   6.994   5.029  0.3575 -0.9914 -0.7215
 3502SOL     OW11946   4.943   4.777   9.517 -0.0351  0.0526  0.0114
 3502SOL    HW111947   4.906   4.693   9.545  0.5491 -0.3280 -0.3310
 3502SOL    HW211948   4.923   4.781   9.424  0.7685 -0.1635 -0.1832
 3503SOL     OW11949   2.299   5.262  11.319 -0.1763 -0.3388  0.0807
 3503SOL    HW111950   2.245   5.215  11.256 -0.9706  1.0284 -0.2942
 3503SOL    HW211951   2.238   5.318  11.366  0.8399  0.8590  0.0203
 3504SOL     OW11952   6.165   1.707   5.781  0.2240 -0.3117 -0.3448
 3504SOL    HW111953   6.079   1.674   5.807  0.7579 -2.0753 -0.6314
 3504SOL    HW211954   6.177   1.675   5.692  0.2165  1.9645 -1.2216
 3505SOL     OW11955   3.774   6.588  11.030  0.2627 -0.3230 -0.2096
 3505SOL    HW111956   3.807   6.509  10.988  1.7972 -0.1965  0.7141
 3505SOL    HW211957   3.770   6.652  10.959  0.8735 -0.6810 -0.5767
 3506SOL     OW11958   4.215   7.146  11.753 -0.1802 -0.1899  0.5554
 3506SOL    HW111959   4.285   7.104  11.803 -0.9405 -0.5978  1.3267
 3506SOL    HW211960   4.199   7.087  11.680 -0.4555 -0.6821  0.9975
 3507SOL     OW11961   7.225   1.650   7.617 -0.1155  0.5787  0.2448
 3507SOL    HW111962   7.247   1.735   7.655 -2.9674  0.8643  1.5319
 3507SOL    HW211963   7.195   1.598   7.692 -1.1648 -0.5436 -0.9133
 3508SOL     OW11964   6.207   6.425   1.953 -0.0536  0.1130  0.4365
 3508SOL    HW111965   6.121   6.393   1.979  0.1418 -0.2648  0.6208
 3508SOL    HW211966   6.262   6.347   1.949  0.0508  0.2204 -0.6022
 3509SOL     OW11967   1.990   0.704   1.108  0.3922 -0.6711  0.2385
 3509SOL    HW111968   1.954   0.736   1.190  1.7053  1.1197  0.1645
 3509SOL    HW211969   2.084   0.695   1.125  0.2658 -3.7058 -0.0360
 3510SOL     OW11970   6.493   7.696   5.355 -0.2531 -0.4749  0.3066
 3510SOL    HW111971   6.541   7.681   5.436 -2.2774 -0.6881  1.5293
 3510SOL    HW211972   6.439   7.619   5.344 -0.1260 -0.3911 -1.2164
 3511SOL     OW11973   0.810   7.710  11.108 -0.7396 -0.2233  0.5815
 3511SOL    HW111974   0.721   7.696  11.074 -0.5138 -0.3726  0.0333
 3511SOL    HW211975   0.810   7.800  11.140 -0.5151  0.4923 -1.2905
 3512SOL     OW11976   2.667   1.428   5.935  0.4521  0.2668  0.1927
 3512SOL    HW111977   2.731   1.434   6.006 -0.3423  3.0272  0.7845
 3512SOL    HW211978   2.625   1.343   5.949  1.3374  0.0785  2.1388
 3513SOL     OW11979   5.059   1.156   7.469 -0.1044 -0.1185 -0.1730
 3513SOL    HW111980   5.020   1.093   7.409  1.4502 -0.9491 -0.3846
 3513SOL    HW211981   5.016   1.239   7.449  0.2394 -0.3985 -2.3329
 3514SOL     OW11982   4.784   3.844   0.299  0.7694 -0.3332  0.5734
 3514SOL    HW111983   4.871   3.818   0.268  0.4621 -0.9346  0.2020
 3514SOL    HW211984   4.801   3.915   0.360  1.4702  0.0937 -0.1018
 3515SOL     OW11985   2.166   4.448   9.659 -0.0912  0.0654 -0.7381
 3515SOL    HW111986   2.173   4.477   9.568  0.9902  0.4059 -0.5598
 3515SOL    HW211987   2.255   4.457   9.694 -0.2031 -1.3636 -0.0333
 3516SOL     OW11988   7.221   0.571   5.340  0.0653 -0.1478 -0.0978
 3516SOL    HW111989   7.213   0.626   5.262  2.8367 -1.8670 -1.7500
 3516SOL    HW211990   7.145   0.513   5.337 -1.2632  1.5176  0.0112
 3517SOL     OW11991   2.517   2.950   8.990  0.3045 -0.3607  0.0840
 3517SOL    HW111992   2.536   2.859   8.968  1.3979 -0.3227  0.7938
 3517SOL    HW211993   2.586   3.000   8.946 -1.6274  0.3860 -2.2769
 3518SOL     OW11994   2.358   5.544   7.249 -0.1780 -0.3100  0.2377
 3518SOL    HW111995   2.280   5.549   7.305 -0.3327  0.5820 -0.0441
 3518SOL    HW211996   2.352   5.457   7.208 -1.3787 -0.0032 -0.2815
 3519SOL     OW11997   2.285   4.479  11.934  0.7794 -0.5678  0.2619
 3519SOL    HW111998   2.289   4.395  11.981 -1.5686 -0.9784 -0.1839
 3519SOL    HW211999   2.357   4.530  11.971  0.4888 -1.7252  2.6259
 3520SOL     OW12000   0.719   0.670   4.113  0.7953  0.5217  0.1522
 3520SOL    HW112001   0.644   0.660   4.171  0.2948  0.1259 -0.5441
 3520SOL    HW212002   0.795   0.664   4.171  0.3807 -1.8667  0.5811
 3521SOL     OW12003   2.496   0.017   8.205  0.2939 -0.1627 -0.1681
 3521SOL    HW112004   2.548   0.006   8.125  0.5629  0.0590 -0.0242
 3521SOL    HW212005   2.559   0.044   8.271  0.2629 -1.4115  0.3949
 3522SOL     OW12006   5.464   3.966  11.286  0.7290  0.0136 -0.3581
 3522SOL    HW112007   5.397   3.921  11.338 -1.4619  1.9460 -1.3173
 3522SOL    HW212008   5.441   4.059  11.294  2.0364  0.5693 -2.4763
 3523SOL     OW12009   0.316   4.000   5.685  0.3551 -0.2114  0.4186
 3523SOL    HW112010   0.257   4.075   5.681 -1.2270 -1.4095  0.3784
 3523SOL    HW212011   0.308   3.968   5.775  2.0277  0.3993  0.8310
 3524SOL     OW12012   4.685   2.795  12.417  0.0274 -0.2769  0.5179
 3524SOL    HW112013   4.705   2.702  12.429 -0.0448 -0.4344 -0.5252
 3524SOL    HW212014   4.754   2.827  12.359 -0.3056  0.1782  0.3707
 3525SOL     OW12015   6.997   5.363   2.411  0.1503  0.5645  0.2295
 3525SOL    HW112016   7.082   5.319   2.404  0.5310  1.3949 -0.6723
 3525SOL    HW212017   6.947   5.310   2.474  0.6422 -1.0575 -0.6732
 3526SOL     OW12018   1.051   0.711   2.123  0.0101 -0.0995  0.4338
 3526SOL    HW112019   1.014   0.694   2.037 -0.0811  2.3808 -0.0966
 3526SOL    HW212020   1.134   0.663   2.123 -0.0770 -0.2932 -0.9580
 3527SOL     OW12021   6.505   2.409   2.873  0.0057 -0.0270  0.5193
 3527SOL    HW112022   6.538   2.447   2.954  0.4797  1.2150 -0.2140
 3527SOL    HW212023   6.450   2.478   2.835  0.4871 -0.2398 -0.6180
 3528SOL     OW12024   4.153   6.723   7.618 -0.4749  0.2084 -0.2657
 3528SOL    HW112025   4.151   6.673   7.700 -1.6154 -0.3276 -0.5998
 3528SOL    HW212026   4.086   6.790   7.629  0.2757  0.9784 -0.2632
 3529SOL     OW12027   1.693   0.364   8.724 -0.3815 -0.0594  0.6287
 3529SOL    HW112028   1.699   0.424   8.650  0.8040 -0.4939  0.3431
 3529SOL    HW212029   1.658   0.418   8.795 -0.1887  0.7396  0.1394
 3530SOL     OW12030   4.106   0.458   4.043 -0.1370  0.2100  0.6351
 3530SOL    HW112031   4.192   0.429   4.076 -0.3682 -0.9328  0.2980
 3530SOL    HW212032   4.044   0.424   4.107 -0.4007  0.1888  0.3701
 3531SOL     OW12033   5.171   1.101  10.228 -0.7178  0.6668  0.3191
 3531SOL    HW112034   5.099   1.138  10.278 -0.4843 -0.6140  1.6549
 3531SOL    HW212035   5.132   1.030  10.177 -0.7283  1.1801 -0.4042
 3532SOL     OW12036   3.150   5.836   4.832 -0.3639  0.2302  0.0868
 3532SOL    HW112037   3.133   5.884   4.913 -0.7825  0.0468  0.1128
 3532SOL    HW212038   3.202   5.896   4.779  0.4766  0.0983  0.7508
 3533SOL     OW12039   7.209   7.182   0.486 -0.0270 -0.6811  0.0053
 3533SOL    HW112040   7.230   7.109   0.428  0.1988 -0.6541  0.0511
 3533SOL    HW212041   7.145   7.146   0.547  0.3203 -0.9331  0.2230
 3534SOL     OW12042   5.306   6.925   5.709  0.1737  0.4829  0.0481
 3534SOL    HW112043   5.299   6.840   5.666 -1.5838  0.6396 -0.0464
 3534SOL    HW212044   5.356   6.979   5.648 -1.6453  0.4911 -1.5475
 3535SOL     OW12045   3.038   7.917   5.890 -0.1288 -0.2099  0.0719
 3535SOL    HW112046   2.957   7.867   5.891 -0.8327  0.8652  1.6470
 3535SOL    HW212047   3.066   7.920   5.981  0.3548  1.4707 -0.0894
 3536SOL     OW12048   4.543   4.934   7.684  0.0874 -0.0583  0.6144
 3536SOL    HW112049   4.450   4.952   7.668  0.3535  0.2226 -0.7476
 3536SOL    HW212050   4.568   4.996   7.752 -0.5795  0.2587  0.5791
 3537SOL     OW12051   0.307   1.427   4.477  0.0625 -0.0103  0.5658
 3537SOL    HW112052   0.245   1.462   4.542 -2.3269 -0.9751 -1.0683
 3537SOL    HW212053   0.291   1.479   4.398  1.0247 -0.6144 -0.0416
 3538SOL     OW12054   0.978   6.268   9.493  0.0763  0.2765  0.2073
 3538SOL    HW112055   0.983   6.179   9.528 -2.8698 -0.8942 -1.9472
 3538SOL    HW212056   1.012   6.261   9.404 -2.0216  0.7684 -0.6874
 3539SOL     OW12057   5.382   7.818   8.426 -0.1426  0.0407  0.0370
 3539SOL    HW112058   5.362   7.845   8.515 -0.3947 -1.4932  0.4852
 3539SOL    HW212059   5.316   7.751   8.406 -0.1280  0.3948 -1.3293
 3540SOL     OW12060   1.030   5.268   1.937 -0.1647 -0.1069 -0.0152
 3540SOL    HW112061   0.976   5.321   1.995 -0.0205 -0.6911  0.6726
 3540SOL    HW212062   1.037   5.183   1.982  0.8487 -0.2211 -0.3644
 3541SOL     OW12063   0.461   0.853   8.206 -0.0499 -0.3012 -0.1298
 3541SOL    HW112064   0.556   0.865   8.208  0.0010 -0.6637 -0.4244
 3541SOL    HW212065   0.435   0.845   8.298  0.0383  1.0867  0.0482
 3542SOL     OW12066   1.121   0.728   1.670 -0.6405  0.2324 -0.4168
 3542SOL    HW112067   1.096   0.636   1.665 -1.2352  0.4240 -1.0249
 3542SOL    HW212068   1.213   0.730   1.643 -0.2183 -0.3482  0.8907
 3543SOL     OW12069   0.484   3.279  10.323 -0.3086 -0.0281 -0.0454
 3543SOL    HW112070   0.434   3.242  10.396 -1.6400 -0.1888 -0.9780
 3543SOL    HW212071   0.420   3.331  10.274  0.6685  0.4972 -0.8123
 3544SOL     OW12072   6.996   5.328   5.153  0.1644 -0.5132  0.1769
 3544SOL    HW112073   6.934   5.288   5.093  1.4093 -0.6317 -1.0924
 3544SOL    HW212074   7.077   5.334   5.103  1.1425 -0.2244  1.7216
 3545SOL     OW12075   4.494   7.310   7.790 -0.7632  0.2724  0.2566
 3545SOL    HW112076   4.461   7.358   7.866  1.1562 -2.1651  2.8256
 3545SOL    HW212077   4.442   7.230   7.786 -0.0673 -0.1703 -0.2587
 3546SOL     OW12078   0.955   4.078  10.971  0.1043 -0.3160  0.5480
 3546SOL    HW112079   1.031   4.065  10.914  1.0812  0.5960  1.6097
 3546SOL    HW212080   0.880   4.071  10.912  1.0727  0.2772 -0.8046
 3547SOL     OW12081   1.780   2.604   5.745 -0.6794  0.5060  0.1827
 3547SOL    HW112082   1.769   2.695   5.772  0.1717  0.6754  0.0159
 3547SOL    HW212083   1.801   2.557   5.826  0.2595  0.7207  0.0796
 3548SOL     OW12084   2.960   5.833   9.584 -0.0604  0.3534  0.4039
 3548SOL    HW112085   2.945   5.763   9.647 -0.9475 -2.2920 -2.5382
 3548SOL    HW212086   3.041   5.809   9.539  0.0842  1.7010 -0.1282
 3549SOL     OW12087   5.196   4.795   5.838  0.4995  0.2922 -0.4260
 3549SOL    HW112088   5.131   4.838   5.782  1.2621 -0.6168 -2.0764
 3549SOL    HW212089   5.194   4.703   5.810 -0.2899 -0.5896  2.2308
 3550SOL     OW12090   2.544   4.882   8.334  0.2118 -0.1532  0.2391
 3550SOL    HW112091   2.610   4.814   8.350  0.0847 -0.3786 -0.1885
 3550SOL    HW212092   2.562   4.913   8.245 -1.2325 -1.3248 -0.5076
 3551SOL     OW12093   1.488   1.632   3.899 -0.1347  0.1340  0.0812
 3551SOL    HW112094   1.402   1.599   3.872 -0.1504 -0.3701  0.7171
 3551SOL    HW212095   1.481   1.645   3.993  1.1141 -2.0131  0.5466
 3552SOL     OW12096   5.614   0.055  10.732  0.1640 -0.3001 -0.1711
 3552SOL    HW112097   5.675   0.058  10.806  0.4901 -1.3266 -0.3849
 3552SOL    HW212098   5.528   0.065  10.772  0.4523  1.6156  0.0943
 3553SOL     OW12099   3.610   3.256   4.829 -0.4916  0.4748 -0.1828
 3553SOL    HW112100   3.685   3.235   4.885 -0.9682 -0.3646  0.1616
 3553SOL    HW212101   3.549   3.302   4.887 -0.5877  0.4442 -0.2592
 3554SOL     OW12102   4.087   7.253   3.668 -0.2462 -0.2819  0.5008
 3554SOL    HW112103   3.998   7.218   3.671 -0.3287 -0.2029 -0.5179
 3554SOL    HW212104   4.075   7.347   3.655 -0.0594 -0.4888 -1.6181
 3555SOL     OW12105   2.652   5.702  10.834 -0.3066  0.1577  0.0620
 3555SOL    HW112106   2.672   5.624  10.886  1.2385  0.3630 -0.1847
 3555SOL    HW212107   2.676   5.678  10.744  1.7441  1.3816  0.2016
 3556SOL     OW12108   7.962   2.513  10.029  0.3147  0.8704  0.0788
 3556SOL    HW112109   8.054   2.506  10.053  0.9151  0.7222 -2.0228
 3556SOL    HW212110   7.915   2.462  10.096  1.7561  0.8684  1.1160
 3557SOL     OW12111   5.854   3.665   4.501 -0.2573  0.2719 -0.4129
 3557SOL    HW112112   5.907   3.744   4.503 -0.3610  0.3509 -0.8128
 3557SOL    HW212113   5.764   3.695   4.516 -0.3015  0.2364 -0.6001
 3558SOL     OW12114   4.788   4.162   0.693  0.3863  0.0623 -0.1152
 3558SOL    HW112115   4.750   4.231   0.747  0.6332 -0.3717  0.6221
 3558SOL    HW212116   4.751   4.081   0.727  0.7054 -0.2348 -0.4631
 3559SOL     OW12117   1.734   5.483   0.981  0.3494  0.0963  0.0515
 3559SOL    HW112118   1.805   5.547   0.974  0.7047 -0.0592  1.7268
 3559SOL    HW212119   1.660   5.532   1.016 -0.4945  0.3042 -1.8961
 3560SOL     OW12120   0.950   4.798   3.333 -0.1907  0.2681 -0.2577
 3560SOL    HW112121   1.037   4.757   3.337  0.7559  2.2489  0.6447
 3560SOL    HW212122   0.902   4.757   3.404  1.1316  1.4800  1.4176
 3561SOL     OW12123   4.934   7.409  12.449  0.1587 -0.2384 -0.3478
 3561SOL    HW112124   4.881   7.474  12.403  0.2615 -0.3621 -0.6415
 3561SOL    HW212125   4.922   7.329  12.399  0.7959 -0.2161 -0.5436
 3562SOL     OW12126   6.553   4.644   3.379 -0.4035  0.1486 -0.3382
 3562SOL    HW112127   6.549   4.641   3.283 -1.8705  1.4313 -0.3474
 3562SOL    HW212128   6.545   4.553   3.406  2.4518 -0.5643 -1.4491
 3563SOL     OW12129   1.542   2.712  10.896  0.0297 -0.3377 -0.8120
 3563SOL    HW112130   1.465   2.678  10.849 -0.8275 -1.2381  1.1327
 3563SOL    HW212131   1.596   2.634  10.912  1.1770  0.2293 -1.7882
 3564SOL     OW12132   0.647   4.991  10.634 -0.6277  0.2016  0.0772
 3564SOL    HW112133   0.591   5.037  10.696  0.8526  1.9799  0.1785
 3564SOL    HW212134   0.731   4.981  10.680  0.2072  0.7314 -1.2663
 3565SOL     OW12135   4.355   4.838   6.056 -0.5184 -0.3341  0.0896
 3565SOL    HW112136   4.273   4.793   6.075 -0.0732 -0.9070  0.7111
 3565SOL    HW212137   4.330   4.915   6.005 -1.4847 -0.2464  0.6936
 3566SOL     OW12138   2.332   7.640   5.142  0.0705  0.2449 -0.4524
 3566SOL    HW112139   2.281   7.677   5.214  0.0708 -0.3396 -0.1465
 3566SOL    HW212140   2.302   7.550   5.134  1.0582 -0.1229 -0.2487
 3567SOL     OW12141   5.798   1.174   7.755  0.3261 -0.4753  0.6442
 3567SOL    HW112142   5.871   1.111   7.761  0.8527  0.1881  1.5084
 3567SOL    HW212143   5.815   1.222   7.674  0.3185 -0.9570  0.3498
 3568SOL     OW12144   4.651   0.273  11.528 -0.3429 -0.4071  0.2284
 3568SOL    HW112145   4.738   0.241  11.505 -0.4076  0.4028 -1.2262
 3568SOL    HW212146   4.636   0.239  11.616  0.9616 -1.5297  0.0547
 3569SOL     OW12147   7.264   1.137  12.049 -0.2104  0.1137  0.0681
 3569SOL    HW112148   7.178   1.101  12.029 -0.1628 -0.4743  0.9076
 3569SOL    HW212149   7.246   1.219  12.094 -0.3170  0.7028 -1.0078
 3570SOL     OW12150   5.901   7.973   2.111  0.5202 -0.1089  0.7123
 3570SOL    HW112151   5.961   8.031   2.157 -0.8778  0.7632  1.5155
 3570SOL    HW212152   5.899   8.006   2.021 -0.7229  1.5487  1.2977
 3571SOL     OW12153   2.807   6.001   5.651  0.1102  0.3046 -0.0872
 3571SOL    HW112154   2.843   5.918   5.618  0.2669  0.5327 -0.5004
 3571SOL    HW212155   2.812   5.994   5.746  0.2069 -0.1237 -0.1238
 3572SOL     OW12156   7.108   3.014   6.419 -0.2310 -0.4123 -0.1150
 3572SOL    HW112157   7.028   3.030   6.470  1.1749 -0.5540  2.2770
 3572SOL    HW212158   7.092   2.930   6.376 -0.8914 -1.1229  1.4187
 3573SOL     OW12159   2.677   3.197   8.907 -0.0966  0.8428 -0.2806
 3573SOL    HW112160   2.680   3.174   8.999 -1.1852  0.3451 -0.3596
 3573SOL    HW212161   2.768   3.215   8.884  0.2585  0.4250  0.7486
 3574SOL     OW12162   4.464   0.767  10.744 -0.1283 -0.6696 -0.1522
 3574SOL    HW112163   4.501   0.808  10.665  0.5238  1.6092  1.2357
 3574SOL    HW212164   4.514   0.686  10.754  0.1033 -0.7704 -1.7862
 3575SOL     OW12165   0.692   2.264   8.740  0.1604 -0.3158 -0.1711
 3575SOL    HW112166   0.673   2.315   8.662  2.9906  0.1254 -0.6881
 3575SOL    HW212167   0.788   2.263   8.745  0.1715  0.9625  4.0871
 3576SOL     OW12168   2.927   1.585  10.802 -0.1938  0.1437  0.0108
 3576SOL    HW112169   2.895   1.596  10.713  0.0417 -0.9449 -0.2174
 3576SOL    HW212170   2.895   1.499  10.829 -0.4848  0.5669  1.0794
 3577SOL     OW12171   0.167   4.271  10.238  0.0085 -0.1963  0.1738
 3577SOL    HW112172   0.075   4.256  10.218 -0.1328  1.1818 -0.3057
 3577SOL    HW212173   0.175   4.366  10.245  1.4110 -0.2879  0.1050
 3578SOL     OW12174   2.800   3.402   3.277 -0.1553  0.2614 -0.4130
 3578SOL    HW112175   2.725   3.435   3.326  0.7867  1.6355  0.1615
 3578SOL    HW212176   2.809   3.311   3.305 -1.8734 -0.0782 -0.8546
 3579SOL     OW12177   7.169   5.323   2.926 -0.0610  0.0930 -0.1882
 3579SOL    HW112178   7.245   5.375   2.901  0.0913  0.3075  0.6968
 3579SOL    HW212179   7.189   5.291   3.014 -0.7688 -0.2844 -0.1543
 3580SOL     OW12180   3.129   7.897   1.976  0.4302 -0.2317  0.5287
 3580SOL    HW112181   3.092   7.811   1.997 -0.3706 -0.1991 -0.6992
 3580SOL    HW212182   3.079   7.958   2.031  0.4110 -0.4545  0.7637
 3581SOL     OW12183   4.707   5.633   6.474  0.3293  0.1713 -0.1283
 3581SOL    HW112184   4.726   5.585   6.394  0.0587  1.2836 -0.8675
 3581SOL    HW212185   4.654   5.572   6.526  2.0720 -1.2869  0.0516
 3582SOL     OW12186   6.368   4.507  10.171  0.1833 -0.2835  0.0028
 3582SOL    HW112187   6.286   4.489  10.218  1.2273  1.0277  2.5426
 3582SOL    HW212188   6.342   4.520  10.080 -2.6431  1.4489  0.9508
 3583SOL     OW12189   4.863   1.297  10.052 -0.2435  0.0027 -0.0781
 3583SOL    HW112190   4.918   1.348  10.110 -0.8924 -2.3298  2.7977
 3583SOL    HW212191   4.798   1.359  10.020  0.2275  1.4279  1.5961
 3584SOL     OW12192   2.613   6.989   3.086 -0.1307  0.0677 -0.2472
 3584SOL    HW112193   2.702   6.981   3.121 -0.0156  0.7505 -0.3761
 3584SOL    HW212194   2.557   6.954   3.156  0.2568 -0.8287 -0.3616
 3585SOL     OW12195   5.126   6.425   8.668 -0.1639 -0.3803  0.0315
 3585SOL    HW112196   5.203   6.371   8.686 -0.6951 -1.4330 -0.7084
 3585SOL    HW212197   5.123   6.431   8.572  0.1643  1.4219  0.0948
 3586SOL     OW12198   4.738   5.914   3.856  0.0731  0.0344  0.0836
 3586SOL    HW112199   4.800   5.867   3.912  1.5517  0.6827 -0.9582
 3586SOL    HW212200   4.780   5.998   3.840  0.4262 -0.6518 -3.1576
 3587SOL     OW12201   1.847   3.012   1.939  0.2611 -0.5398  0.4718
 3587SOL    HW112202   1.899   3.016   1.859  1.3347 -0.9172  1.1271
 3587SOL    HW212203   1.879   3.084   1.993 -1.7160  0.8866 -0.1232
 3588SOL     OW12204   3.135   1.902   7.657  0.3314  0.6350  0.3204
 3588SOL    HW112205   3.149   1.826   7.600  2.7590  1.0693  0.2404
 3588SOL    HW212206   3.155   1.870   7.745 -0.1445  0.8047  0.4924
 3589SOL     OW12207   6.507   0.010   8.723 -0.0225 -0.0442 -0.0270
 3589SOL    HW112208   6.552   0.088   8.756  1.9823 -1.7557  1.5144
 3589SOL    HW212209   6.557  -0.016   8.646 -1.7688  1.1364 -1.6440
 3590SOL     OW12210   4.496   3.072   2.573  0.3623  0.1858 -0.5988
 3590SOL    HW112211   4.419   3.129   2.575 -0.9027 -1.4123  1.6657
 3590SOL    HW212212   4.529   3.079   2.484 -2.3976  0.9518 -1.6657
 3591SOL     OW12213   4.859   3.604   2.357 -0.7229 -0.1223 -0.2574
 3591SOL    HW112214   4.778   3.627   2.312 -1.3956  1.4412  1.6193
 3591SOL    HW212215   4.831   3.565   2.440  0.4416  0.0029  0.2183
 3592SOL     OW12216   5.839   4.752   9.940 -0.6796  0.1837  0.4054
 3592SOL    HW112217   5.747   4.732   9.954 -0.6198  0.8541  1.8600
 3592SOL    HW212218   5.876   4.763  10.027  1.5242 -3.1511  0.1019
 3593SOL     OW12219   0.381   1.014   0.622  0.2236 -0.3866 -0.1428
 3593SOL    HW112220   0.304   0.976   0.666  0.5812 -0.1688  0.7009
 3593SOL    HW212221   0.350   1.098   0.589  0.2926  0.0669  0.9016
 3594SOL     OW12222   5.165   4.861   2.163 -0.2420 -0.1882  0.1718
 3594SOL    HW112223   5.096   4.878   2.099  1.7560  3.4346 -1.2578
 3594SOL    HW212224   5.162   4.935   2.223  3.3476  1.0198 -0.9252
 3595SOL     OW12225   6.544   7.241   9.526 -0.3925  0.2023  0.2533
 3595SOL    HW112226   6.565   7.300   9.598 -0.2978  1.2419 -0.6012
 3595SOL    HW212227   6.452   7.261   9.505  0.4009  2.0356 -1.8048
 3596SOL     OW12228   1.912   1.933  10.503 -0.1478 -0.3407 -0.1277
 3596SOL    HW112229   1.973   2.004  10.483  0.2620 -0.5942  0.2266
 3596SOL    HW212230   1.967   1.858  10.524 -0.5617 -0.2842  1.2701
 3597SOL     OW12231   4.705   6.255  12.210  0.1965 -0.1206  0.3920
 3597SOL    HW112232   4.752   6.257  12.127 -0.7601  0.2889 -0.1587
 3597SOL    HW212233   4.761   6.204  12.268 -0.0355 -2.2013 -1.0704
 3598SOL     OW12234   3.225   3.288   0.347 -0.3245  0.1505  0.7240
 3598SOL    HW112235   3.130   3.276   0.356 -0.2114 -0.5713  0.9457
 3598SOL    HW212236   3.238   3.304   0.254 -0.3738 -2.5437  0.1852
 3599SOL     OW12237   6.962   2.970   1.276  0.1894 -0.7679 -0.3971
 3599SOL    HW112238   6.999   2.893   1.320  1.3258 -0.0548 -0.0642
 3599SOL    HW212239   7.038   3.024   1.254 -0.5553  0.0402 -1.0530
 3600SOL     OW12240   0.383   2.704   1.912  0.4210 -0.0303 -0.0298
 3600SOL    HW112241   0.426   2.664   1.837  0.3385  0.0272 -0.1073
 3600SOL    HW212242   0.395   2.640   1.983  2.5158  0.9031  0.5449
 3601SOL     OW12243   4.551   0.090   1.195  0.5732 -0.0579 -0.3786
 3601SOL    HW112244   4.533   0.137   1.277 -0.1872  0.1206 -0.6385
 3601SOL    HW212245   4.541  -0.002   1.219  0.0238  0.0060 -0.3364
 3602SOL     OW12246   0.223   0.507   6.313  0.2024 -0.6359 -0.1040
 3602SOL    HW112247   0.275   0.434   6.279  0.5273  0.2525 -1.6473
 3602SOL    HW212248   0.148   0.466   6.355  1.2291 -1.8967  0.5579
 3603SOL     OW12249   0.593   6.973   9.614 -0.3277 -1.2066  0.3235
 3603SOL    HW112250   0.538   7.050   9.601 -0.3786 -0.9787  1.7322
 3603SOL    HW212251   0.649   6.970   9.536 -0.8182 -0.1677 -0.0835
 3604SOL     OW12252   0.388   6.569   8.353  0.1174 -0.4670 -0.0731
 3604SOL    HW112253   0.432   6.551   8.436 -0.2533 -1.3340 -0.0560
 3604SOL    HW212254   0.327   6.640   8.373  0.5952 -0.1265  0.2000
 3605SOL     OW12255   1.267   1.948   9.082 -0.4834 -0.2549  0.0724
 3605SOL    HW112256   1.257   1.942   9.177 -0.4067 -0.8496  0.0487
 3605SOL    HW212257   1.184   1.914   9.048 -0.4792 -0.1155 -0.0747
 3606SOL     OW12258   0.222   3.057   2.074  0.0610  0.0832  0.7564
 3606SOL    HW112259   0.306   3.010   2.079 -0.1203 -0.2438  0.7466
 3606SOL    HW212260   0.247   3.149   2.065  0.4283 -0.0682  0.1092
 3607SOL     OW12261   3.706   4.581   6.098 -0.1552  0.1866 -0.2207
 3607SOL    HW112262   3.625   4.541   6.130 -0.5825  1.2356  0.0771
 3607SOL    HW212263   3.681   4.672   6.080  0.5868  0.1317 -1.6194
 3608SOL     OW12264   7.948   2.943   1.102 -0.5714 -0.2140 -0.0239
 3608SOL    HW112265   7.880   2.878   1.116 -0.8482 -0.1897 -1.1445
 3608SOL    HW212266   8.024   2.893   1.072 -0.6811 -0.0618 -0.5672
 3609SOL     OW12267   7.548   6.614   1.485  0.0684 -0.2523  0.5406
 3609SOL    HW112268   7.496   6.575   1.555 -0.5276  0.3413  0.4336
 3609SOL    HW212269   7.485   6.635   1.417  0.4280  0.5398  0.4404
 3610SOL     OW12270   3.513   4.082   9.450  0.0602 -0.8391 -0.3611
 3610SOL    HW112271   3.465   4.035   9.518 -0.4356 -1.7548 -1.3126
 3610SOL    HW212272   3.464   4.164   9.437 -0.0181 -0.8041  0.1586
 3611SOL     OW12273   3.113   1.352   2.162  0.0434  0.7074 -0.1135
 3611SOL    HW112274   3.057   1.279   2.191  3.1159 -1.8090  0.0936
 3611SOL    HW212275   3.140   1.395   2.244  1.3140 -0.5138  0.1626
 3612SOL     OW12276   5.560   1.948   1.731  0.4733 -0.2784 -0.5611
 3612SOL    HW112277   5.478   1.976   1.770  0.4728 -1.2325  0.1695
 3612SOL    HW212278   5.624   2.012   1.760  0.6056 -1.3124  1.6251
 3613SOL     OW12279   0.535   2.874  11.072  0.3028  0.1472  0.0112
 3613SOL    HW112280   0.623   2.906  11.052  0.4567  2.7439  3.7117
 3613SOL    HW212281   0.548   2.794  11.122  0.3323 -1.0777 -1.8737
 3614SOL     OW12282   4.159   5.005   4.546  0.3929  0.5883  0.6567
 3614SOL    HW112283   4.115   4.922   4.562 -0.0163  0.8650  1.0066
 3614SOL    HW212284   4.122   5.036   4.463  0.6416  0.3607  0.4604
 3615SOL     OW12285   3.881   7.523   1.933  0.5324  0.0661  0.5118
 3615SOL    HW112286   3.906   7.524   2.026  0.3539 -0.4128  0.5692
 3615SOL    HW212287   3.939   7.587   1.892  1.9572 -1.1056  0.6285
 3616SOL     OW12288   2.939   3.608   3.166  0.3165 -0.0778 -0.6149
 3616SOL    HW112289   2.881   3.540   3.200 -0.1907  0.3528 -0.6038
 3616SOL    HW212290   2.987   3.639   3.243  0.7068 -0.5660 -0.6557
 3617SOL     OW12291   0.604   2.513   5.874  0.3334 -0.3259 -0.0857
 3617SOL    HW112292   0.528   2.549   5.920 -1.9175 -3.2638 -1.2093
 3617SOL    HW212293   0.645   2.454   5.937  1.5259  0.9732  0.3933
 3618SOL     OW12294   1.512   7.654   1.045  0.0632 -0.5807  0.4285
 3618SOL    HW112295   1.533   7.746   1.030 -0.5801 -0.1565  1.9305
 3618SOL    HW212296   1.569   7.606   0.984  0.3182  0.7962 -0.4663
 3619SOL     OW12297   0.248   1.333   9.116  0.0192  0.3634 -0.0673
 3619SOL    HW112298   0.246   1.382   9.034  2.3153 -0.0533 -0.4301
 3619SOL    HW212299   0.171   1.365   9.164  0.0218  2.4727 -1.3179
 3620SOL     OW12300   2.506   7.269   5.160  0.5291 -0.3113  0.5995
 3620SOL    HW112301   2.561   7.255   5.237  0.3836 -2.4526  0.3943
 3620SOL    HW212302   2.542   7.208   5.094 -0.7256 -0.1605 -0.2642
 3621SOL     OW12303   3.305   4.175   4.238  0.3994 -0.4553 -0.1528
 3621SOL    HW112304   3.246   4.118   4.287  1.3784 -1.8217 -0.4965
 3621SOL    HW212305   3.307   4.256   4.289 -0.6719 -0.8800  0.6121
 3622SOL     OW12306   4.899   2.330   1.609 -0.1817 -1.1162  0.0999
 3622SOL    HW112307   4.820   2.300   1.564 -0.1088 -0.0800 -0.7815
 3622SOL    HW212308   4.891   2.426   1.610  1.5972 -0.8926 -1.1058
 3623SOL     OW12309   1.633   1.038   7.069  0.1314 -0.2384 -0.3369
 3623SOL    HW112310   1.635   1.027   6.974  0.3067 -1.5578 -0.2009
 3623SOL    HW212311   1.677   0.960   7.104 -0.1695  0.0846  0.8359
 3624SOL     OW12312   7.627   5.621   4.162  0.3480 -0.0638  0.3353
 3624SOL    HW112313   7.550   5.650   4.211  0.2038 -2.2634  1.5679
 3624SOL    HW212314   7.685   5.698   4.159 -0.5819  0.7575  2.0990
 3625SOL     OW12315   2.121   3.864   0.602 -0.7415 -0.0050 -0.1174
 3625SOL    HW112316   2.216   3.870   0.592 -0.6151  0.1738  0.9730
 3625SOL    HW212317   2.104   3.771   0.612 -0.7939 -0.1188 -1.1854
 3626SOL     OW12318   5.123   6.240   5.417 -0.2422 -0.2074  0.2866
 3626SOL    HW112319   5.203   6.283   5.447 -1.6299  1.0714  2.4984
 3626SOL    HW212320   5.119   6.159   5.468 -0.3244 -0.2951  0.1400
 3627SOL     OW12321   2.507   3.872  12.470 -0.1774  0.2274 -0.4201
 3627SOL    HW112322   2.434   3.871  12.532  0.6121  1.5426  0.6073
 3627SOL    HW212323   2.467   3.853  12.385 -1.4276 -0.7656  0.3610
 3628SOL     OW12324   5.850   3.836   5.191 -0.1975 -0.1362 -1.0345
 3628SOL    HW112325   5.822   3.842   5.282  1.0256  0.1299 -0.6620
 3628SOL    HW212326   5.773   3.864   5.141 -0.5027  0.8763 -0.0431
 3629SOL     OW12327   6.150   6.099   8.766  0.1867  0.5295 -0.4408
 3629SOL    HW112328   6.233   6.108   8.813 -0.3647 -1.2244  0.9771
 3629SOL    HW212329   6.159   6.017   8.717 -0.7183  0.3091 -0.2515
 3630SOL     OW12330   1.077   0.357  10.150 -0.0469  0.0186 -0.1508
 3630SOL    HW112331   0.997   0.305  10.156 -1.6084  1.8913 -2.4732
 3630SOL    HW212332   1.070   0.401  10.065  3.1561  0.8078 -0.1390
 3631SOL     OW12333   5.526   2.601   0.742  0.1659 -0.0672 -0.7437
 3631SOL    HW112334   5.574   2.534   0.791 -0.6341  0.3789  0.6858
 3631SOL    HW212335   5.563   2.684   0.772 -2.6365  0.4097  1.8157
 3632SOL     OW12336   1.400   6.722  10.240 -0.5092  0.0226 -0.8352
 3632SOL    HW112337   1.410   6.628  10.254  1.3680  0.0066 -1.9586
 3632SOL    HW212338   1.320   6.730  10.189 -0.7792 -0.9439 -0.5867
 3633SOL     OW12339   4.170   3.601   7.651  0.1919  0.0284 -0.1228
 3633SOL    HW112340   4.081   3.585   7.622 -0.1479  2.8695 -0.9735
 3633SOL    HW212341   4.225   3.563   7.582 -0.3924 -0.4569 -0.3283
 3634SOL     OW12342   3.752   6.497   8.010  0.7496 -0.0979 -0.1028
 3634SOL    HW112343   3.801   6.577   7.991  0.4628 -0.2458 -1.5866
 3634SOL    HW212344   3.661   6.519   7.987  0.4018 -0.3849  0.9267
 3635SOL     OW12345   4.529   0.678   0.467 -0.1831  0.3507 -0.3746
 3635SOL    HW112346   4.539   0.587   0.495 -1.3630 -0.0669 -1.2274
 3635SOL    HW212347   4.436   0.698   0.482  0.4076  2.0271  1.5023
 3636SOL     OW12348   3.395   7.544   7.721  0.6098  0.0516  0.1683
 3636SOL    HW112349   3.470   7.491   7.748  1.0595  0.0774 -0.9504
 3636SOL    HW212350   3.393   7.535   7.625 -1.3762 -0.6978  0.2161
 3637SOL     OW12351   6.511   6.651   9.098 -0.0515 -0.7328  0.2061
 3637SOL    HW112352   6.588   6.708   9.093 -1.3889  1.3611  1.8636
 3637SOL    HW212353   6.525   6.599   9.178 -0.3527 -0.3457  0.5123
 3638SOL     OW12354   3.399   4.203  12.087  0.0048  0.0340  0.1775
 3638SOL    HW112355   3.447   4.136  12.039  0.9239 -0.4953  1.7495
 3638SOL    HW212356   3.364   4.158  12.163 -1.3178  0.8704  0.0918
 3639SOL     OW12357   6.663   2.495   8.342 -0.1069  0.2386 -0.0635
 3639SOL    HW112358   6.571   2.469   8.335  0.0976 -0.9468  1.2301
 3639SOL    HW212359   6.674   2.523   8.432  0.7768  0.4490 -0.2241
 3640SOL     OW12360   6.234   0.252   3.879  0.2402  0.0589 -0.2901
 3640SOL    HW112361   6.194   0.178   3.925  0.2123 -0.4262 -1.0750
 3640SOL    HW212362   6.162   0.289   3.827 -0.1591  1.6603  1.3152
 3641SOL     OW12363   2.655   0.595   4.376  0.0332  0.6237  0.6218
 3641SOL    HW112364   2.747   0.574   4.363 -0.2131 -0.5157  0.6862
 3641SOL    HW212365   2.613   0.574   4.293 -0.7233 -2.1261  1.6017
 3642SOL     OW12366   6.968   7.180  11.118  0.6409 -0.4812  0.3044
 3642SOL    HW112367   6.957   7.259  11.170  1.0022 -0.7536  0.8010
 3642SOL    HW212368   7.062   7.160  11.122  0.5246 -1.0526  0.3632
 3643SOL     OW12369   3.775   0.940   9.868  0.3234  0.2025 -0.3940
 3643SOL    HW112370   3.838   0.947   9.796  1.6158 -1.6746  0.4937
 3643SOL    HW212371   3.741   0.851   9.861  0.0457  0.1899  0.9934
 3644SOL     OW12372   4.629   5.996   7.121 -0.2424 -0.0570 -0.4396
 3644SOL    HW112373   4.597   5.910   7.094  0.1667 -0.4486  0.2872
 3644SOL    HW212374   4.617   6.051   7.044 -0.5354 -0.7565 -0.9068
 3645SOL     OW12375   3.036   1.105   5.265 -0.0697  0.5107 -0.7824
 3645SOL    HW112376   3.092   1.029   5.279 -0.6831 -0.3733 -2.7872
 3645SOL    HW212377   3.089   1.165   5.213 -0.0955  0.8164 -0.4593
 3646SOL     OW12378   7.178   6.458  10.431 -0.3209 -0.5415  0.1687
 3646SOL    HW112379   7.172   6.438  10.337 -1.9966 -1.8137  0.4880
 3646SOL    HW212380   7.156   6.551  10.437 -0.5170 -0.5171 -0.6769
 3647SOL     OW12381   7.727   4.510   7.590 -0.2516 -0.2917  0.1806
 3647SOL    HW112382   7.768   4.423   7.589 -0.4100 -0.3716  0.3937
 3647SOL    HW212383   7.664   4.505   7.662  0.5762  0.3973  0.9741
 3648SOL     OW12384   3.161   0.656  10.752  0.0396  0.6780  0.1224
 3648SOL    HW112385   3.080   0.703  10.770 -1.3902 -1.2354 -0.8819
 3648SOL    HW212386   3.167   0.590  10.822  0.5749  0.6270  0.0336
 3649SOL     OW12387   4.679   1.290  10.724  0.1495 -0.2272  0.5236
 3649SOL    HW112388   4.657   1.346  10.798  1.2620 -1.6531  2.0332
 3649SOL    HW212389   4.774   1.279  10.730  0.1348 -1.1264 -0.5397
 3650SOL     OW12390   2.816   6.552   0.830  0.3860 -0.4364  0.6336
 3650SOL    HW112391   2.817   6.573   0.923 -1.2633 -1.0834  0.8374
 3650SOL    HW212392   2.887   6.603   0.792  0.8694  0.0830  2.1903
 3651SOL     OW12393   0.145   7.346  12.411 -0.1546  0.0085  0.3686
 3651SOL    HW112394   0.143   7.401  12.332  2.4117 -0.8557 -0.3996
 3651SOL    HW212395   0.133   7.408  12.483 -1.5033  0.9680 -0.6338
 3652SOL     OW12396   4.680   2.799  10.174 -0.2499  0.2951 -0.9202
 3652SOL    HW112397   4.750   2.853  10.210 -0.7413 -1.1334  2.5994
 3652SOL    HW212398   4.677   2.822  10.082  3.1793  2.1918 -0.7250
 3653SOL     OW12399   1.048   4.706   4.871 -0.4361  0.0558  0.3601
 3653SOL    HW112400   1.137   4.741   4.864  0.1955 -1.4058  0.6683
 3653SOL    HW212401   0.995   4.780   4.900  0.7569  0.8445  0.6065
 3654SOL     OW12402   6.772   7.380   1.970  0.4181 -0.0415  0.3310
 3654SOL    HW112403   6.838   7.315   1.945  0.7672  0.6042 -0.5054
 3654SOL    HW212404   6.820   7.463   1.970 -0.0390  0.2319  1.3073
 3655SOL     OW12405   3.134   1.186   9.134  0.1011 -0.0860  0.0327
 3655SOL    HW112406   3.226   1.211   9.139  0.5557 -1.8327  1.1552
 3655SOL    HW212407   3.134   1.101   9.090 -0.8826 -0.4873  0.7576
 3656SOL     OW12408   0.886   1.600   6.146  0.1512  0.3047  0.1312
 3656SOL    HW112409   0.860   1.510   6.127  0.7863 -0.1110  1.1457
 3656SOL    HW212410   0.929   1.595   6.231  0.4105  1.5344  0.0899
 3657SOL     OW12411   7.930   6.976   8.496 -0.5005 -0.4765  0.4475
 3657SOL    HW112412   7.937   6.899   8.552  1.0633 -2.2066 -1.9484
 3657SOL    HW212413   8.021   7.000   8.476 -0.9888  0.6620 -0.5702
 3658SOL     OW12414   0.913   3.209  11.295  0.6999 -0.1702  0.6672
 3658SOL    HW112415   0.946   3.168  11.216 -0.4621  0.0540  0.0407
 3658SOL    HW212416   0.917   3.303  11.277  0.7965 -0.1025  1.0330
 3659SOL     OW12417   4.193   7.187   5.335 -0.1161 -0.3082  0.0661
 3659SOL    HW112418   4.113   7.234   5.313 -0.5584  0.0926  2.2546
 3659SOL    HW212419   4.162   7.105   5.374  0.3583  0.7104  2.8384
 3660SOL     OW12420   1.321   3.980  11.110 -0.6509 -0.4469  0.0266
 3660SOL    HW112421   1.393   4.035  11.079  0.3990 -1.6592  0.2488
 3660SOL    HW212422   1.254   4.043  11.140  0.3184  0.7004 -0.1417
 3661SOL     OW12423   0.024   4.486   3.935 -0.5020  0.1588  0.5224
 3661SOL    HW112424   0.012   4.535   3.853 -0.5706 -0.9587 -0.1529
 3661SOL    HW212425  -0.024   4.536   4.000 -1.1268  0.6351 -0.2877
 3662SOL     OW12426   0.564   7.857  10.266 -0.5345 -0.8203  0.3055
 3662SOL    HW112427   0.567   7.918  10.193  1.7688 -0.7182  0.4063
 3662SOL    HW212428   0.643   7.804  10.256  0.1916 -0.4248  2.9795
 3663SOL     OW12429   0.750   7.870  11.767 -0.6026  0.2942 -0.3818
 3663SOL    HW112430   0.812   7.889  11.838 -2.3337  1.0554  1.0140
 3663SOL    HW212431   0.705   7.790  11.796  0.0967 -0.6057 -1.6759
 3664SOL     OW12432   2.434   7.012   2.278 -0.4353  0.0437  0.3333
 3664SOL    HW112433   2.466   6.994   2.367 -0.6067 -0.1436  0.3571
 3664SOL    HW212434   2.340   7.027   2.289 -0.6434 -0.9977  0.0421
 3665SOL     OW12435   1.690   0.103  11.991  1.0496  0.3201 -0.2238
 3665SOL    HW112436   1.697   0.028  11.932  2.6039 -0.0567  0.4013
 3665SOL    HW212437   1.629   0.073  12.059  1.9436 -0.5319  0.2188
 3666SOL     OW12438   6.597   7.577  11.062 -0.3635  0.0430  0.2432
 3666SOL    HW112439   6.685   7.569  11.097 -0.2778 -2.3734 -0.3216
 3666SOL    HW212440   6.606   7.636  10.987  0.8106 -0.2328  0.1418
 3667SOL     OW12441   6.098   7.790   0.886  0.1646  0.1374  0.2724
 3667SOL    HW112442   6.172   7.851   0.884  0.3598 -0.0746  0.8874
 3667SOL    HW212443   6.032   7.831   0.830  1.6925 -0.8892 -2.5177
 3668SOL     OW12444   6.974   6.060   9.127 -0.3318 -0.4347 -0.2284
 3668SOL    HW112445   6.942   6.029   9.042 -1.5601  0.6736 -0.2050
 3668SOL    HW212446   7.004   6.149   9.110  0.8176 -0.7233  0.2125
 3669SOL     OW12447   7.149   5.624   2.712  0.1510  0.0287  0.0546
 3669SOL    HW112448   7.197   5.572   2.648  0.1531  0.4488 -0.2908
 3669SOL    HW212449   7.057   5.601   2.698  0.0684  0.7290 -0.6795
 3670SOL     OW12450   2.622   5.509   4.939 -0.0083  0.5353 -0.0205
 3670SOL    HW112451   2.534   5.543   4.959  0.1652  1.4361 -0.7002
 3670SOL    HW212452   2.607   5.442   4.873 -0.4559 -1.5371  2.0359
 3671SOL     OW12453   1.439   5.451   3.187 -0.5127 -0.0796  0.3815
 3671SOL    HW112454   1.517   5.492   3.152 -1.0715 -0.3451 -1.2498
 3671SOL    HW212455   1.461   5.358   3.195 -0.8365 -0.2631 -0.6837
 3672SOL     OW12456   7.098   4.090   5.185 -0.0102  0.2856 -0.2155
 3672SOL    HW112457   7.003   4.077   5.193 -0.3205  1.6041 -1.3294
 3672SOL    HW212458   7.133   4.002   5.170 -1.0685 -0.2009  0.0664
 3673SOL     OW12459   3.892   7.816   7.859  0.8439  0.2609  0.4494
 3673SOL    HW112460   3.846   7.878   7.915 -0.1206 -0.3745  0.3896
 3673SOL    HW212461   3.829   7.793   7.791  0.9320 -1.2583  0.8363
 3674SOL     OW12462   7.013   7.650   7.132  0.0333  0.1475  0.8825
 3674SOL    HW112463   7.107   7.647   7.112  0.3793  0.0956  2.4033
 3674SOL    HW212464   6.994   7.743   7.145 -0.3354  0.2480 -0.2419
 3675SOL     OW12465   3.690   0.899   1.450 -0.4391 -0.5081 -0.4085
 3675SOL    HW112466   3.702   0.961   1.378 -0.6090 -1.4480 -1.2784
 3675SOL    HW212467   3.607   0.856   1.431 -0.3046 -1.0346  0.1511
 3676SOL     OW12468   5.969   7.273   4.504  0.0463  0.1116  0.2743
 3676SOL    HW112469   5.993   7.181   4.514  0.1603 -0.0516 -1.2431
 3676SOL    HW212470   5.961   7.285   4.409  1.6753  2.0837  0.3394
 3677SOL     OW12471   1.996   7.456   1.050  0.0664  0.0585 -0.3762
 3677SOL    HW112472   2.033   7.457   1.139  1.2266 -2.2056 -0.7566
 3677SOL    HW212473   1.913   7.410   1.060  0.3636 -0.5121 -0.5068
 3678SOL     OW12474   0.315   2.241  11.337 -0.0488 -0.2735  0.6336
 3678SOL    HW112475   0.318   2.297  11.260 -0.6970 -0.6277  0.3421
 3678SOL    HW212476   0.260   2.167  11.311 -0.8210 -0.0760  1.6411
 3679SOL     OW12477   7.406   0.202  10.211 -0.2335 -0.4341  0.4166
 3679SOL    HW112478   7.420   0.283  10.162  0.3795 -1.7774 -1.7644
 3679SOL    HW212479   7.327   0.165  10.173  0.0839 -1.3788  0.6505
 3680SOL     OW12480   3.288   2.453  11.564  0.6624 -0.2463  0.3126
 3680SOL    HW112481   3.304   2.538  11.604 -0.9724  0.1447  0.2140
 3680SOL    HW212482   3.235   2.406  11.628 -0.5079 -0.2557 -0.6086
 3681SOL     OW12483   4.149   0.526   2.618  0.3344  0.7518  0.1403
 3681SOL    HW112484   4.098   0.536   2.698 -1.6982  2.6871 -1.2881
 3681SOL    HW212485   4.233   0.567   2.638 -0.2557  1.4946  1.1970
 3682SOL     OW12486   3.967   2.163   5.052 -0.0473  0.1945 -0.3334
 3682SOL    HW112487   3.998   2.077   5.079 -2.6864  0.0142  2.6378
 3682SOL    HW212488   3.873   2.153   5.039 -0.3201  2.4571 -0.6276
 3683SOL     OW12489   6.446   3.884  11.832  0.2966 -0.0603 -0.7090
 3683SOL    HW112490   6.510   3.830  11.788  2.2184 -0.0238  1.8372
 3683SOL    HW212491   6.380   3.823  11.866  0.6867 -0.4573 -0.6701
 3684SOL     OW12492   0.998   3.172   0.390 -0.1336  0.4206  0.2896
 3684SOL    HW112493   0.959   3.249   0.430  1.3438  0.6206  1.4553
 3684SOL    HW212494   0.985   3.102   0.454  0.3195  0.2033  0.1558
 3685SOL     OW12495   1.936   0.316   9.020  0.1041 -0.1235  0.2065
 3685SOL    HW112496   1.886   0.336   9.099  0.0491  0.7912 -0.0450
 3685SOL    HW212497   1.950   0.402   8.978  2.4741 -0.2701  0.6041
 3686SOL     OW12498   3.763   5.355   4.343  0.2395 -0.0451 -0.7121
 3686SOL    HW112499   3.851   5.354   4.305  0.0046  1.3277 -1.3847
 3686SOL    HW212500   3.769   5.298   4.419  1.4576 -0.7204 -1.2798
 3687SOL     OW12501   3.516   0.992   4.861  0.5261 -0.6875  0.2280
 3687SOL    HW112502   3.521   1.079   4.900  0.6928 -1.4762  2.0809
 3687SOL    HW212503   3.470   1.005   4.778 -0.8767  0.9593  1.1951
 3688SOL     OW12504   6.001   0.140   0.420  0.0687 -0.3889  0.3359
 3688SOL    HW112505   5.931   0.140   0.355 -0.3177 -0.6843  0.7498
 3688SOL    HW212506   6.054   0.063   0.398 -0.5465 -0.9777  0.8810
 3689SOL     OW12507   5.119   5.003  10.212  0.3868  0.5271 -0.7419
 3689SOL    HW112508   5.168   5.071  10.258 -1.1040  2.5764 -2.0408
 3689SOL    HW212509   5.030   5.038  10.205 -0.2750 -1.2737 -2.0676
 3690SOL     OW12510   2.347   3.169  11.181 -0.3748 -0.0099 -0.1318
 3690SOL    HW112511   2.383   3.243  11.230  0.4270 -0.9909  0.8001
 3690SOL    HW212512   2.299   3.209  11.109  1.8240  1.3852 -0.9054
 3691SOL     OW12513   5.994   5.458   0.906 -0.3139  0.3095 -0.1491
 3691SOL    HW112514   5.988   5.380   0.851 -0.5917 -0.7319  1.3037
 3691SOL    HW212515   5.951   5.526   0.855 -0.0708 -0.4715 -1.4519
 3692SOL     OW12516   3.117   3.493   2.356  0.2205  0.0544 -0.0552
 3692SOL    HW112517   3.070   3.575   2.346  0.6242  0.1037 -1.9503
 3692SOL    HW212518   3.209   3.519   2.365  0.3325 -0.1584 -0.5248
 3693SOL     OW12519   4.646   1.486   3.766 -0.0649  0.1136  0.1284
 3693SOL    HW112520   4.589   1.530   3.829  0.8110  0.2454  0.8440
 3693SOL    HW212521   4.640   1.541   3.687 -1.7110 -0.4393 -0.1720
 3694SOL     OW12522   7.596   3.834   4.229 -0.3390  0.2141 -0.0495
 3694SOL    HW112523   7.571   3.742   4.219 -0.5381  0.2576  0.0398
 3694SOL    HW212524   7.603   3.847   4.323  3.2489 -0.6466 -0.0764
 3695SOL     OW12525   6.554   1.893   1.588 -0.0821 -0.0670  0.3116
 3695SOL    HW112526   6.618   1.961   1.568 -0.2241 -0.3735 -1.3461
 3695SOL    HW212527   6.606   1.820   1.622  0.5400 -0.4185 -1.2751
 3696SOL     OW12528   0.828   6.288  11.111  0.6879  0.0933  0.2104
 3696SOL    HW112529   0.883   6.247  11.178  0.9432  2.0699  1.2777
 3696SOL    HW212530   0.761   6.335  11.161 -1.7595 -1.8183 -1.0371
 3697SOL     OW12531   0.023   7.260   5.714  0.1818  0.4296  0.0352
 3697SOL    HW112532  -0.022   7.344   5.705 -1.2468 -0.3835 -0.7205
 3697SOL    HW212533  -0.046   7.197   5.734  0.9560 -0.8663 -1.1456
 3698SOL     OW12534   2.496   7.832   5.108 -0.0199  0.2396 -0.2561
 3698SOL    HW112535   2.440   7.758   5.131  0.0541  0.0829 -0.5723
 3698SOL    HW212536   2.438   7.895   5.066 -0.3250  0.8975  1.0960
 3699SOL     OW12537   4.651   2.547   9.940  0.2796 -0.1638  0.6542
 3699SOL    HW112538   4.566   2.517   9.971  0.6418  0.6337  2.5889
 3699SOL    HW212539   4.702   2.559  10.020  2.0098 -0.0302 -0.4287
 3700SOL     OW12540   2.203   4.770  12.326 -0.4629  0.4279 -0.0494
 3700SOL    HW112541   2.221   4.783  12.232 -0.2255  1.0776  0.0784
 3700SOL    HW212542   2.214   4.857  12.364 -0.2832  0.1091  0.6330
 3701SOL     OW12543   6.130   3.055   7.590 -0.3009 -0.4055 -0.1217
 3701SOL    HW112544   6.121   3.141   7.549  1.0523  0.0410  0.4565
 3701SOL    HW212545   6.201   3.012   7.542 -0.9472 -1.2026 -0.3912
 3702SOL     OW12546   2.223   6.275   1.396 -0.3426  0.2542 -0.1070
 3702SOL    HW112547   2.300   6.260   1.341 -0.7416  1.5436 -1.0959
 3702SOL    HW212548   2.248   6.348   1.453 -1.5095  2.2999 -2.0333
 3703SOL     OW12549   2.145   6.081   8.896  0.1745 -0.8186 -0.3914
 3703SOL    HW112550   2.153   6.011   8.960 -0.8890 -1.4557 -0.9225
 3703SOL    HW212551   2.155   6.038   8.811  0.4912 -0.1672 -0.6908
 3704SOL     OW12552   4.691   3.681   0.940  0.5563 -0.3479  0.3627
 3704SOL    HW112553   4.700   3.766   0.897  1.7256 -0.7939 -0.2953
 3704SOL    HW212554   4.711   3.617   0.873 -0.1515 -1.1642  0.9003
 3705SOL     OW12555   3.862   5.432  11.100 -0.3403 -0.4038  0.5233
 3705SOL    HW112556   3.897   5.521  11.111  1.2060 -0.6902 -1.3964
 3705SOL    HW212557   3.793   5.442  11.034  0.6023 -0.7239 -0.5582
 3706SOL     OW12558   5.694   4.537   7.949  0.4627 -0.2916 -0.3699
 3706SOL    HW112559   5.649   4.537   8.033 -0.2769 -2.1643 -0.7226
 3706SOL    HW212560   5.632   4.580   7.890  0.3436 -0.3122 -0.2610
 3707SOL     OW12561   5.444   4.999   9.186  0.2987 -0.6085  0.7460
 3707SOL    HW112562   5.502   5.054   9.239  2.1962 -1.0202 -0.7735
 3707SOL    HW212563   5.455   5.031   9.097 -1.5080 -1.0183  0.3397
 3708SOL     OW12564   4.702   4.202   9.354 -0.2702 -0.1448  0.2866
 3708SOL    HW112565   4.629   4.258   9.379  0.0371 -0.1595  1.2709
 3708SOL    HW212566   4.661   4.126   9.312 -0.6678  1.0002 -1.5295
 3709SOL     OW12567   6.294   2.012   0.037  0.2720 -0.2758  0.1960
 3709SOL    HW112568   6.379   2.053   0.023  1.0698 -2.0468 -0.5341
 3709SOL    HW212569   6.266   1.983  -0.050 -1.7268  1.3796  0.2131
 3710SOL     OW12570   2.210   4.500   8.277  0.7864  0.1962 -0.1284
 3710SOL    HW112571   2.267   4.427   8.302  1.7872  0.5241 -1.3160
 3710SOL    HW212572   2.165   4.469   8.198 -2.7403 -1.0452  2.1727
 3711SOL     OW12573   0.371   6.313   1.728 -0.8793 -0.0952  0.3429
 3711SOL    HW112574   0.391   6.402   1.699 -1.0422 -0.7030 -1.8130
 3711SOL    HW212575   0.281   6.319   1.761 -1.5376  0.2549 -1.3870
 3712SOL     OW12576   6.884   6.874  12.295  0.2635 -0.1606  0.4009
 3712SOL    HW112577   6.936   6.865  12.374 -0.3553  1.2816  1.0224
 3712SOL    HW212578   6.796   6.894  12.326 -0.4968 -1.7066 -0.6324
 3713SOL     OW12579   4.210   6.411   2.608  0.4900  0.0468 -0.3767
 3713SOL    HW112580   4.123   6.377   2.591  0.2789  0.8153 -0.8509
 3713SOL    HW212581   4.212   6.425   2.703 -0.5215  1.6507 -0.5558
 3714SOL     OW12582   0.486   0.641   4.283 -0.0048 -0.2297 -0.1015
 3714SOL    HW112583   0.425   0.630   4.210  0.1138  1.3442 -0.4893
 3714SOL    HW212584   0.460   0.574   4.346 -2.0583  0.2761 -0.3206
 3715SOL     OW12585   2.044   7.074   0.313  0.2075  0.4785 -0.5199
 3715SOL    HW112586   1.983   7.095   0.242  0.6405  2.2546 -0.4250
 3715SOL    HW212587   2.126   7.053   0.268  1.0070  3.3624 -0.6110
 3716SOL     OW12588   4.779   5.522  12.438  0.0416 -0.0875 -0.1902
 3716SOL    HW112589   4.764   5.616  12.449  2.4435  0.4910 -1.1334
 3716SOL    HW212590   4.792   5.511  12.344 -1.9881 -1.7263 -0.3416
 3717SOL     OW12591   2.190   1.544   9.999  0.1201 -0.2055  0.1441
 3717SOL    HW112592   2.108   1.568  10.042 -0.3184 -1.6180  0.1804
 3717SOL    HW212593   2.248   1.618  10.013 -1.1337  0.8199  0.1456
 3718SOL     OW12594   4.579   6.721   4.314  0.5760  0.2638  0.7732
 3718SOL    HW112595   4.663   6.763   4.335  1.2968  0.3046 -1.8010
 3718SOL    HW212596   4.592   6.684   4.227 -1.6388 -1.0523  0.9251
 3719SOL     OW12597   3.196   3.888   7.596 -0.1099  0.1396  0.6424
 3719SOL    HW112598   3.218   3.981   7.599 -0.1189  0.1113  3.0013
 3719SOL    HW212599   3.177   3.865   7.687 -1.2497 -1.9081 -0.0662
 3720SOL     OW12600   3.988   5.924  12.157 -0.0537  0.6819 -0.2235
 3720SOL    HW112601   4.049   5.991  12.186 -1.0868  0.9268  1.5294
 3720SOL    HW212602   3.986   5.860  12.228 -0.2855 -0.4227 -1.1698
 3721SOL     OW12603   5.745   7.477   4.256  0.3970  0.0586  0.0659
 3721SOL    HW112604   5.777   7.561   4.222 -0.9445  0.6554  0.2053
 3721SOL    HW212605   5.668   7.500   4.308 -0.9963 -1.4041 -1.2372
 3722SOL     OW12606   5.018   5.692   5.961  0.4479 -0.9902  0.1503
 3722SOL    HW112607   5.007   5.710   6.055  1.5896 -0.9259  0.2939
 3722SOL    HW212608   4.973   5.608   5.947 -2.1580  0.3261  0.1411
 3723SOL     OW12609   5.918   4.753  10.200 -0.0587  0.0114  0.3560
 3723SOL    HW112610   5.831   4.739  10.236  0.3644 -0.4577  1.2478
 3723SOL    HW212611   5.969   4.788  10.273  1.0250 -1.7124  0.4996
 3724SOL     OW12612   3.611   7.662  10.022 -0.1689 -0.0467 -0.6318
 3724SOL    HW112613   3.550   7.662  10.095 -0.3561  0.3497 -0.7832
 3724SOL    HW212614   3.626   7.570  10.003 -0.1402 -0.1495 -0.1140
 3725SOL     OW12615   2.987   5.177  10.354  0.2154  0.7953  0.0635
 3725SOL    HW112616   2.953   5.088  10.366 -0.5863  1.0857 -0.0333
 3725SOL    HW212617   2.984   5.190  10.259  0.3706  0.9178  0.0754
 3726SOL     OW12618   5.577   0.546   6.903  0.1246 -0.2406 -0.8316
 3726SOL    HW112619   5.591   0.525   6.810  1.0331  0.7239 -0.9238
 3726SOL    HW212620   5.663   0.534   6.944 -0.5775 -2.1532  0.2181
 3727SOL     OW12621   5.267   0.865   9.387 -0.0761 -0.2521  0.4978
 3727SOL    HW112622   5.247   0.902   9.301 -0.7396 -1.6581  0.0169
 3727SOL    HW212623   5.358   0.889   9.403  0.1914 -0.3473 -0.7985
 3728SOL     OW12624   0.991   6.302   3.352  0.5273 -0.7579  0.6359
 3728SOL    HW112625   0.918   6.345   3.397  0.6179  1.1757 -0.9049
 3728SOL    HW212626   1.050   6.374   3.329  2.1683 -2.0932  0.4668
 3729SOL     OW12627   4.185   1.385   4.686  0.2728  0.1233 -0.4951
 3729SOL    HW112628   4.149   1.462   4.730  0.0957  0.1816 -0.7393
 3729SOL    HW212629   4.117   1.359   4.624  0.8107  0.4845 -1.2543
 3730SOL     OW12630   3.798   3.493   1.704  0.0614  0.0473 -0.3838
 3730SOL    HW112631   3.883   3.534   1.690  0.3683 -0.4223  0.0672
 3730SOL    HW212632   3.788   3.433   1.630  0.8126 -1.0063  0.3373
 3731SOL     OW12633   1.878   5.158   7.094  0.1827 -0.0124  0.3798
 3731SOL    HW112634   1.943   5.162   7.024  0.0205 -1.4796  0.1335
 3731SOL    HW212635   1.847   5.068   7.095 -1.8957  0.6388  0.4693
 3732SOL     OW12636   6.887   2.275   2.757 -0.2862 -0.7731  0.0192
 3732SOL    HW112637   6.826   2.333   2.712  1.3315 -0.3889 -1.8326
 3732SOL    HW212638   6.907   2.320   2.840  0.0314  0.7558 -0.8577
 3733SOL     OW12639   7.589   3.453   1.462 -0.1877  0.6360  0.3506
 3733SOL    HW112640   7.579   3.495   1.376 -1.3175 -0.2630  0.0036
 3733SOL    HW212641   7.682   3.434   1.469 -0.3802 -2.0533 -2.1230
 3734SOL     OW12642   1.065   0.478   9.911 -0.3477  0.2097  0.1697
 3734SOL    HW112643   1.077   0.572   9.905  0.0624  0.2265  1.0985
 3734SOL    HW212644   1.117   0.442   9.840 -0.0622  0.6495  0.1532
 3735SOL     OW12645   1.855   2.875  11.975  0.0050  0.1200  0.4845
 3735SOL    HW112646   1.909   2.932  11.920 -1.6349  0.1431 -1.2529
 3735SOL    HW212647   1.839   2.926  12.054 -1.8774  2.4884 -1.2337
 3736SOL     OW12648   5.441   7.317   8.144 -0.4458  0.6250 -0.3255
 3736SOL    HW112649   5.386   7.391   8.118  0.0414  0.3670 -2.2292
 3736SOL    HW212650   5.380   7.244   8.151 -0.8150  1.0226  0.8359
 3737SOL     OW12651   5.397   3.544  11.582 -0.0920 -0.6800  0.4664
 3737SOL    HW112652   5.420   3.571  11.671  1.1410  0.8272 -0.2672
 3737SOL    HW212653   5.301   3.549  11.579 -0.1618  5.8760 -0.0837
 3738SOL     OW12654   4.990   5.526   8.211 -0.5099 -0.0299 -0.0281
 3738SOL    HW112655   4.955   5.595   8.155 -0.9409 -0.8164 -0.7580
 3738SOL    HW212656   5.016   5.457   8.150  1.5387  0.1626  0.5480
 3739SOL     OW12657   7.178   5.786   8.220 -0.0442 -0.7332  0.3638
 3739SOL    HW112658   7.254   5.766   8.274  1.4448  2.1521 -0.4500
 3739SOL    HW212659   7.195   5.742   8.137  0.1804 -1.0078  0.5543
 3740SOL     OW12660   3.340   6.720   1.625  0.0185 -0.4649 -0.1553
 3740SOL    HW112661   3.425   6.737   1.667  0.4559  0.5912 -1.3845
 3740SOL    HW212662   3.297   6.806   1.624  0.1792 -0.3531 -2.1129
 3741SOL     OW12663   7.557   5.488   1.020 -0.2737  0.1994  0.0937
 3741SOL    HW112664   7.485   5.433   1.053  0.2301 -0.8903 -0.5657
 3741SOL    HW212665   7.633   5.430   1.021  0.6863  1.4280  1.0774
 3742SOL     OW12666   2.927   3.830   8.949  0.1958 -0.8102 -0.3330
 3742SOL    HW112667   2.846   3.831   8.897  0.3255  1.3622 -0.5597
 3742SOL    HW212668   2.918   3.904   9.009  1.2960 -1.5741  0.8199
 3743SOL     OW12669   6.856   4.172   4.787 -0.2693 -0.4624 -0.3367
 3743SOL    HW112670   6.900   4.179   4.703  0.1687 -1.9878 -0.2619
 3743SOL    HW212671   6.913   4.218   4.849 -0.4291  0.3727 -0.8035
 3744SOL     OW12672   7.964   6.817   0.454  0.0419 -0.4532  0.0500
 3744SOL    HW112673   7.990   6.756   0.385  1.1600  2.1261 -1.9732
 3744SOL    HW212674   8.018   6.793   0.529  0.4897 -1.8968 -0.7055
 3745SOL     OW12675   5.188   4.246   4.570 -0.5202  0.0934  0.4705
 3745SOL    HW112676   5.186   4.151   4.562  2.3898 -0.0137 -0.1130
 3745SOL    HW212677   5.113   4.277   4.519 -1.4036 -1.8402  0.5300
 3746SOL     OW12678   3.893   5.539  10.712  0.0674  0.1544  0.0406
 3746SOL    HW112679   3.960   5.479  10.679  0.3053  0.1165  0.5837
 3746SOL    HW212680   3.832   5.549  10.639 -1.2059 -2.4762  0.6189
 3747SOL     OW12681   6.801   6.862   4.400  0.3797 -0.5183  0.4530
 3747SOL    HW112682   6.760   6.914   4.469  0.8742  0.6070 -0.0832
 3747SOL    HW212683   6.894   6.881   4.407  0.4214 -0.2655 -0.6113
 3748SOL     OW12684   1.311   7.915  11.859  0.1188  0.0598 -0.1085
 3748SOL    HW112685   1.311   7.824  11.828 -1.2579 -0.3267  0.9293
 3748SOL    HW212686   1.221   7.944  11.848 -0.0496  0.4401  1.9515
 3749SOL     OW12687   3.405   4.969  10.411 -0.1765  0.1888 -0.0854
 3749SOL    HW112688   3.356   4.950  10.331  0.4632  0.2027 -0.4905
 3749SOL    HW212689   3.493   4.990  10.381 -0.1924  1.2155  0.5590
 3750SOL     OW12690   3.814   5.730  10.179  0.2722  0.7530  0.0208
 3750SOL    HW112691   3.836   5.758  10.090 -2.3221  0.0533 -0.9536
 3750SOL    HW212692   3.817   5.634  10.176 -0.5244  0.7002  0.4484
 3751SOL     OW12693   0.795   0.290   1.968 -0.3353 -0.2425  0.0184
 3751SOL    HW112694   0.831   0.350   2.034  0.6175 -1.6986  0.8563
 3751SOL    HW212695   0.709   0.267   2.001 -1.6919  2.3233 -1.4074
 3752SOL     OW12696   0.784   7.068   1.193 -0.1362 -0.1087 -0.0227
 3752SOL    HW112697   0.811   7.149   1.236 -0.9761  0.3884 -0.4138
 3752SOL    HW212698   0.826   7.071   1.108  0.2363 -0.3254  0.1529
 3753SOL     OW12699   4.808   1.109   2.060  0.0197 -0.3216 -0.2950
 3753SOL    HW112700   4.880   1.059   2.098 -0.6909 -0.8767  0.3584
 3753SOL    HW212701   4.732   1.085   2.113 -0.6158  0.3645 -0.8793
 3754SOL     OW12702   7.643   6.882  11.956  0.1102 -0.0089 -0.8937
 3754SOL    HW112703   7.574   6.825  11.990  0.8588 -0.6978 -0.4946
 3754SOL    HW212704   7.611   6.970  11.972 -0.9162 -0.3041 -1.2074
 3755SOL     OW12705   6.739   1.340   0.425 -0.5922  0.3017 -0.6218
 3755SOL    HW112706   6.666   1.304   0.476 -0.7252 -0.6488 -1.4602
 3755SOL    HW212707   6.767   1.417   0.475 -1.7308  0.2967  0.0606
 3756SOL     OW12708   7.506   3.509   6.294 -0.3769 -0.2199  0.3076
 3756SOL    HW112709   7.503   3.430   6.348  2.2276  0.0528  0.9627
 3756SOL    HW212710   7.544   3.480   6.211  0.5008  0.3205  0.5169
 3757SOL     OW12711   2.597   5.065   9.148  0.2525  0.0871 -0.0260
 3757SOL    HW112712   2.646   5.029   9.074 -0.3309 -1.2278  0.1833
 3757SOL    HW212713   2.523   5.111   9.107  0.3861  0.0779 -0.2830
 3758SOL     OW12714   7.817   7.903   0.130 -0.1849 -0.4986  0.6526
 3758SOL    HW112715   7.844   7.970   0.193  0.7554  1.9989 -2.1861
 3758SOL    HW212716   7.899   7.859   0.105  0.0788  1.0406 -1.4190
 3759SOL     OW12717   2.264   4.217   1.393 -0.4362 -0.0193 -0.2966
 3759SOL    HW112718   2.244   4.244   1.304  0.3895 -4.2311 -1.9787
 3759SOL    HW212719   2.342   4.266   1.416  0.7494 -0.5281 -2.9103
 3760SOL     OW12720   6.452   6.753   5.659 -0.3231 -0.7891 -0.2999
 3760SOL    HW112721   6.398   6.712   5.726  0.2239 -0.5965  0.2728
 3760SOL    HW212722   6.420   6.717   5.576 -0.7016 -1.3815  0.0991
 3761SOL     OW12723   7.242   5.181  10.028  0.3516  0.1190 -0.3567
 3761SOL    HW112724   7.175   5.222   9.974 -0.4020  0.2044  0.6186
 3761SOL    HW212725   7.324   5.197   9.982 -0.1148  1.3719 -0.7764
 3762SOL     OW12726   4.868   2.735  11.947  0.0897 -0.4151 -0.0310
 3762SOL    HW112727   4.782   2.772  11.966  0.5363  0.6182 -0.0022
 3762SOL    HW212728   4.898   2.701  12.032 -1.2711 -2.9727 -0.4570
 3763SOL     OW12729   0.331   3.179  11.246 -0.1307 -0.2111 -0.2348
 3763SOL    HW112730   0.316   3.244  11.315  0.8178 -0.0859 -0.1268
 3763SOL    HW212731   0.264   3.113  11.260 -1.0630  0.6982 -0.2904
 3764SOL     OW12732   5.707   7.252   8.612  0.2501 -0.7487  0.2082
 3764SOL    HW112733   5.652   7.236   8.535  1.5098 -1.3769 -0.6042
 3764SOL    HW212734   5.763   7.174   8.618  2.8520  0.9112 -0.6097
 3765SOL     OW12735   6.390   7.731   3.407 -0.3386  0.5033 -0.0056
 3765SOL    HW112736   6.469   7.680   3.425  0.1251  1.5044  0.8578
 3765SOL    HW212737   6.418   7.822   3.413 -1.6409  0.8715  0.6699
 3766SOL     OW12738   6.804   5.179  10.352  0.7570 -0.1455 -0.0721
 3766SOL    HW112739   6.891   5.181  10.311  0.1366  0.2475 -1.4606
 3766SOL    HW212740   6.770   5.092  10.330  0.9998 -0.5160  0.9603
 3767SOL     OW12741   6.315   3.886   2.882  0.5426 -0.7615  0.6290
 3767SOL    HW112742   6.348   3.976   2.881  0.0245 -0.5284  1.8593
 3767SOL    HW212743   6.220   3.896   2.894  0.5290 -1.4674  1.1810
 3768SOL     OW12744   5.543   6.978  11.229  0.6038 -0.0671  0.2860
 3768SOL    HW112745   5.498   7.061  11.241  0.1405 -0.0839 -1.1462
 3768SOL    HW212746   5.508   6.943  11.146  1.6937 -1.0921  0.2257
 3769SOL     OW12747   0.767   1.788   0.421 -0.2067  0.2611  0.3787
 3769SOL    HW112748   0.760   1.854   0.352  3.3540  1.1511  0.6722
 3769SOL    HW212749   0.685   1.795   0.470 -2.2540  0.5998 -2.7914
 3770SOL     OW12750   1.326   6.736   9.814  0.2663 -0.7515 -0.8119
 3770SOL    HW112751   1.399   6.764   9.760  0.2858 -1.1555 -0.9986
 3770SOL    HW212752   1.335   6.641   9.819 -0.5438 -0.8596 -1.2661
 3771SOL     OW12753   7.654   7.248  11.892  0.1038 -0.1127  0.8458
 3771SOL    HW112754   7.592   7.286  11.829  1.4062  0.7198  0.0123
 3771SOL    HW212755   7.599   7.199  11.953 -1.3106  0.0404 -0.2469
 3772SOL     OW12756   1.138   1.550   3.948 -0.2385  1.0212 -0.0068
 3772SOL    HW112757   1.087   1.532   3.868  0.3313  1.4528 -0.4740
 3772SOL    HW212758   1.201   1.478   3.952 -1.8228 -0.4027  1.4165
 3773SOL     OW12759   3.820   4.107   3.310  0.0070 -0.1947 -0.6702
 3773SOL    HW112760   3.883   4.100   3.382 -0.9165 -1.4352  0.0550
 3773SOL    HW212761   3.801   4.016   3.287 -1.0590  0.1746 -1.2709
 3774SOL     OW12762   7.796   5.480  11.184  0.5014  0.1278 -0.7418
 3774SOL    HW112763   7.809   5.452  11.093 -1.1458  1.0832 -1.3228
 3774SOL    HW212764   7.796   5.398  11.234  0.7659 -0.4723 -1.6878
 3775SOL     OW12765   7.813   1.494   9.082 -0.1048  0.1305 -0.2049
 3775SOL    HW112766   7.777   1.451   9.004 -0.9297  1.2137 -0.4465
 3775SOL    HW212767   7.854   1.423   9.131 -0.1316 -0.6818 -1.3085
 3776SOL     OW12768   3.236   5.141   3.850  0.0754  0.6096  0.2504
 3776SOL    HW112769   3.141   5.132   3.839  0.1730 -0.4200  0.1139
 3776SOL    HW212770   3.247   5.224   3.894 -0.7260  1.9715 -1.9491
 3777SOL     OW12771   0.702   0.877   4.746 -0.1464 -0.5282 -0.5737
 3777SOL    HW112772   0.703   0.947   4.680 -0.2112 -0.6886 -0.7460
 3777SOL    HW212773   0.644   0.909   4.814 -2.4151 -1.5620 -1.9079
 3778SOL     OW12774   0.488   6.892   6.505 -0.3616  0.4249  0.1260
 3778SOL    HW112775   0.518   6.801   6.504  1.6692  1.0614  0.3212
 3778SOL    HW212776   0.476   6.912   6.598  0.9754  0.9009  0.2062
 3779SOL     OW12777   2.743   0.772   6.000 -0.5592  0.0179 -0.0563
 3779SOL    HW112778   2.810   0.755   6.066  0.1875  0.3244 -0.7134
 3779SOL    HW212779   2.697   0.689   5.990  0.6304 -0.6019 -0.5865
 3780SOL     OW12780   5.163   1.107   3.460 -0.3595 -0.8648  0.0715
 3780SOL    HW112781   5.069   1.124   3.467 -0.1075  0.4138  0.5365
 3780SOL    HW212782   5.195   1.112   3.550  0.4458  0.5941 -0.2610
 3781SOL     OW12783   7.083   6.079   1.927 -0.5222  0.2634  0.0359
 3781SOL    HW112784   7.146   6.069   1.999 -0.6236 -2.0686 -0.1420
 3781SOL    HW212785   7.133   6.060   1.848 -1.2878 -1.0656 -0.1536
 3782SOL     OW12786   6.296   6.373   6.409 -0.3543  0.8350 -0.2501
 3782SOL    HW112787   6.310   6.462   6.377 -2.3761  1.4575  0.4377
 3782SOL    HW212788   6.372   6.323   6.376  0.8980  2.8119 -0.5225
 3783SOL     OW12789   3.592   1.553   7.571 -0.0926  0.2827  0.0095
 3783SOL    HW112790   3.642   1.628   7.601 -2.8993  1.8635  1.1556
 3783SOL    HW212791   3.556   1.514   7.651 -0.6542 -0.7820 -0.7326
 3784SOL     OW12792   6.711   4.158   2.593 -0.2954 -0.8948 -0.3385
 3784SOL    HW112793   6.804   4.156   2.614 -0.1868 -1.9618 -0.8574
 3784SOL    HW212794   6.692   4.250   2.576  0.5717 -0.6118  0.1673
 3785SOL     OW12795   4.886   5.596  10.619 -0.1738  0.0147  0.4842
 3785SOL    HW112796   4.956   5.624  10.561 -1.1985  0.9885 -0.3277
 3785SOL    HW212797   4.913   5.626  10.706  1.0117 -0.7913  0.4132
 3786SOL     OW12798   3.261   3.925   1.925 -0.1636  0.3867  0.1857
 3786SOL    HW112799   3.210   3.946   2.004  1.1882  0.6701  1.0291
 3786SOL    HW212800   3.347   3.897   1.959  0.6627  1.1182 -1.2031
 3787SOL     OW12801   7.540   5.691  10.840 -0.3110  0.3564 -0.7112
 3787SOL    HW112802   7.549   5.764  10.778  0.8127  0.2019 -0.7638
 3787SOL    HW212803   7.601   5.625  10.807 -0.6243 -0.2283 -0.1313
 3788SOL     OW12804   6.281   5.605   4.955 -0.1207  0.6515  0.5239
 3788SOL    HW112805   6.260   5.684   5.004  1.9254  1.6539 -0.0705
 3788SOL    HW212806   6.258   5.626   4.864  1.7185  1.1762  0.1276
 3789SOL     OW12807   0.601   6.306   6.012  0.4580 -0.3826  0.6506
 3789SOL    HW112808   0.530   6.362   6.046  1.6439  1.8163 -0.2835
 3789SOL    HW212809   0.626   6.347   5.929  2.4659 -1.4156  0.6872
 3790SOL     OW12810   3.011   7.118   5.291 -0.1597 -0.3876 -0.0840
 3790SOL    HW112811   3.012   7.023   5.283 -3.2119 -0.6363  1.2329
 3790SOL    HW212812   2.959   7.148   5.217 -1.2875 -0.0160  0.8232
 3791SOL     OW12813   0.018   2.158   3.348  0.2896  0.6152 -0.3985
 3791SOL    HW112814  -0.049   2.189   3.408  1.4248 -0.0027  1.2794
 3791SOL    HW212815   0.033   2.231   3.288 -0.4791  1.4896  0.4474
 3792SOL     OW12816   3.062   1.198   2.747 -0.5784 -0.3615  0.6756
 3792SOL    HW112817   3.112   1.205   2.666 -1.9474 -0.0938 -0.1841
 3792SOL    HW212818   2.971   1.188   2.718 -1.6557  3.4960  2.1080
 3793SOL     OW12819   3.988   4.032   6.721 -0.2747 -0.3300 -0.1007
 3793SOL    HW112820   4.065   3.980   6.745  0.4469  1.2113  1.0486
 3793SOL    HW212821   3.984   4.026   6.625  0.4812 -1.5076 -0.0738
 3794SOL     OW12822   7.862   4.601   5.987 -0.3015  0.6149  0.8825
 3794SOL    HW112823   7.790   4.572   6.043  1.4260 -0.5267  2.6715
 3794SOL    HW212824   7.886   4.687   6.020 -0.2832  0.6113  0.8791
 3795SOL     OW12825   4.705   4.023  12.167 -0.5220 -0.2430 -0.3945
 3795SOL    HW112826   4.724   3.944  12.217  0.8078 -0.5216 -1.2779
 3795SOL    HW212827   4.678   4.087  12.232  0.5061 -0.7909  0.6012
 3796SOL     OW12828   5.728   0.751   6.145  0.3660  0.2720  0.2248
 3796SOL    HW112829   5.670   0.703   6.204  1.2319 -0.7839  0.2485
 3796SOL    HW212830   5.726   0.700   6.064  2.5374 -0.7693  0.7569
 3797SOL     OW12831   4.767   7.246  11.040  0.1683 -0.5567 -0.0511
 3797SOL    HW112832   4.674   7.230  11.053 -0.0889 -0.3153 -1.4954
 3797SOL    HW212833   4.810   7.173  11.085 -0.6746 -0.4276  1.0120
 3798SOL     OW12834   5.959   0.544   0.919 -0.2646 -0.7285 -0.4986
 3798SOL    HW112835   6.036   0.487   0.921  0.1438 -0.2050 -0.9555
 3798SOL    HW212836   5.908   0.512   0.845  0.1548 -0.2667 -0.9949
 3799SOL     OW12837   3.844   7.327   8.413  1.0024 -0.0644  0.3056
 3799SOL    HW112838   3.874   7.381   8.486  1.3617 -0.6383  0.5819
 3799SOL    HW212839   3.764   7.286   8.446  0.4982  0.6142 -0.0503
 3800SOL     OW12840   1.150   0.737   7.160 -0.1626 -0.3219 -0.0329
 3800SOL    HW112841   1.197   0.819   7.146 -0.1209 -0.1446  1.0286
 3800SOL    HW212842   1.144   0.697   7.074  1.4046 -0.0696 -0.2732
 3801SOL     OW12843   7.194   5.703   2.235  0.2720 -0.0049  0.1803
 3801SOL    HW112844   7.280   5.733   2.205  0.5081  0.7124  1.5048
 3801SOL    HW212845   7.208   5.674   2.325 -0.5581 -1.4563 -0.1152
 3802SOL     OW12846   5.788   4.663   0.226 -0.0449 -0.0992  0.4083
 3802SOL    HW112847   5.848   4.630   0.292 -1.1957 -0.9777  1.0462
 3802SOL    HW212848   5.814   4.755   0.214 -0.4418  0.4065  2.8491
 3803SOL     OW12849   1.640   5.673   9.242  0.1824 -0.3137  1.1197
 3803SOL    HW112850   1.713   5.611   9.242 -0.9239 -1.7737  3.6378
 3803SOL    HW212851   1.676   5.754   9.278  1.0903 -0.1707 -0.0369
 3804SOL     OW12852   3.458   2.008   2.840 -0.2292  0.1854 -0.6693
 3804SOL    HW112853   3.399   1.935   2.820  0.1648  0.0157 -1.2442
 3804SOL    HW212854   3.444   2.070   2.769 -0.1849  0.4282 -0.4635
 3805SOL     OW12855   7.537   2.782   3.284  0.2417 -0.3903  0.1558
 3805SOL    HW112856   7.573   2.714   3.341  0.8467 -1.3314 -1.2883
 3805SOL    HW212857   7.504   2.734   3.208 -0.8420  0.7983 -0.1412
 3806SOL     OW12858   3.398   0.318  12.121 -0.1527 -0.0444 -0.5458
 3806SOL    HW112859   3.355   0.273  12.194 -0.8278  0.5905 -0.5423
 3806SOL    HW212860   3.362   0.406  12.123  2.3485  1.0558  0.4729
 3807SOL     OW12861   4.047   2.618  11.087 -0.2393  0.6092 -0.4093
 3807SOL    HW112862   4.059   2.712  11.098 -0.1125  0.8184 -2.0563
 3807SOL    HW212863   3.953   2.607  11.075 -0.3390  0.4277  0.4797
 3808SOL     OW12864   7.069   3.545   2.112 -0.3355 -0.1867  0.0168
 3808SOL    HW112865   7.061   3.482   2.040 -0.2695  0.6069 -0.6973
 3808SOL    HW212866   7.118   3.497   2.179  0.5371 -0.6110 -0.8729
 3809SOL     OW12867   4.511   7.876   4.426  0.0782  0.2718 -0.5934
 3809SOL    HW112868   4.437   7.937   4.424 -1.7281 -1.7653  0.5714
 3809SOL    HW212869   4.485   7.808   4.487  3.8381  0.5093  1.6274
 3810SOL     OW12870   4.604   5.075   6.442 -0.4909 -0.5344 -0.7976
 3810SOL    HW112871   4.687   5.117   6.464  0.6562 -2.2375 -1.5792
 3810SOL    HW212872   4.563   5.055   6.526  0.6707 -1.0810 -0.3436
 3811SOL     OW12873   7.218   2.128   1.839 -0.0221 -0.2228 -0.1177
 3811SOL    HW112874   7.201   2.131   1.933 -1.0947 -0.1196 -0.3117
 3811SOL    HW212875   7.139   2.163   1.798 -0.5312 -2.4119 -1.1524
 3812SOL     OW12876   2.827   7.959   0.765 -0.0174  0.2310  0.3326
 3812SOL    HW112877   2.907   7.963   0.713  0.5761  3.1203  1.3188
 3812SOL    HW212878   2.854   7.918   0.847  0.0651 -0.1885  0.1030
 3813SOL     OW12879   4.729   0.049   8.346 -0.3086 -0.1206 -0.0180
 3813SOL    HW112880   4.788   0.060   8.272  0.5919 -0.0498  0.6887
 3813SOL    HW212881   4.665   0.120   8.337  2.4472  2.8629  1.7047
 3814SOL     OW12882   5.036   5.333   4.371  0.8620 -0.0401  0.0762
 3814SOL    HW112883   5.107   5.275   4.400  1.1711  0.5531  0.5211
 3814SOL    HW212884   4.957   5.278   4.375  1.0892 -0.3243  0.8821
 3815SOL     OW12885   7.851   2.044   6.353 -0.1562  0.7742  0.3539
 3815SOL    HW112886   7.790   2.026   6.281 -1.5686  0.9770  1.4437
 3815SOL    HW212887   7.913   1.971   6.351  0.3932  1.2429 -1.5943
 3816SOL     OW12888   7.961   1.294   8.098 -0.1830 -0.2339  0.3870
 3816SOL    HW112889   7.887   1.251   8.140  0.3221 -0.8184  0.6989
 3816SOL    HW212890   7.948   1.387   8.118 -1.1732 -0.2497 -0.1244
 3817SOL     OW12891   5.495   7.246  10.794  0.3063  0.2021  0.1132
 3817SOL    HW112892   5.449   7.206  10.867 -1.7096  0.8609 -0.7368
 3817SOL    HW212893   5.508   7.175  10.731  1.0373 -0.1176  0.6122
 3818SOL     OW12894   5.154   0.786   4.875 -0.0317  0.6784 -0.5196
 3818SOL    HW112895   5.161   0.697   4.909 -0.6008  0.6681 -0.4227
 3818SOL    HW212896   5.062   0.796   4.851  0.2653  0.8323 -1.6682
 3819SOL     OW12897   1.616   6.596   9.802  0.3369  0.5229  0.4093
 3819SOL    HW112898   1.552   6.531   9.832 -0.0611  1.0286  0.6621
 3819SOL    HW212899   1.700   6.549   9.802 -0.3403 -0.9075 -2.2652
 3820SOL     OW12900   6.599   2.060   6.945 -0.4177 -0.0119 -0.1167
 3820SOL    HW112901   6.592   2.105   7.029 -0.8667  0.0443 -0.1829
 3820SOL    HW212902   6.511   2.029   6.927 -0.4839  0.5957 -0.9038
 3821SOL     OW12903   7.089   6.858   1.502 -0.0330  1.2818 -0.4518
 3821SOL    HW112904   7.149   6.784   1.490  0.5007  1.0829  2.7550
 3821SOL    HW212905   7.007   6.828   1.464  0.3259 -0.7696  0.2434
 3822SOL     OW12906   5.850   7.603  10.493  0.2810  0.0844  0.7276
 3822SOL    HW112907   5.775   7.629  10.546 -0.5109  0.8156 -0.6917
 3822SOL    HW212908   5.925   7.644  10.536 -0.5777  2.3681  0.2125
 3823SOL     OW12909   6.245   6.195  11.085 -0.2963 -0.1120  0.5455
 3823SOL    HW112910   6.220   6.128  11.021 -0.7860  0.5738  0.0188
 3823SOL    HW212911   6.167   6.248  11.097  1.0042  2.5527 -1.7152
 3824SOL     OW12912   5.694   3.151  10.140 -0.1430  0.4010 -0.4960
 3824SOL    HW112913   5.675   3.110  10.224 -1.6618  0.7063 -0.6590
 3824SOL    HW212914   5.660   3.089  10.075 -2.1114  1.6479 -0.7505
 3825SOL     OW12915   4.813   3.965   2.504 -0.0801 -0.0261 -0.3655
 3825SOL    HW112916   4.784   3.953   2.414  0.4491  1.5924 -0.7827
 3825SOL    HW212917   4.798   4.058   2.522  2.4885  0.3699  0.2085
 3826SOL     OW12918   0.173   7.532   8.832  0.5957 -0.4644  0.0178
 3826SOL    HW112919   0.253   7.507   8.877  1.1556  1.5382  0.2567
 3826SOL    HW212920   0.131   7.449   8.809  1.7062 -1.5507  1.6730
 3827SOL     OW12921   3.433   2.215   6.624 -0.1888 -0.1083 -0.1062
 3827SOL    HW112922   3.490   2.271   6.676 -1.0060 -0.5533  1.3264
 3827SOL    HW212923   3.347   2.221   6.667 -1.2411  0.5140 -2.1770
 3828SOL     OW12924   5.591   4.083  10.748 -0.2887 -0.1343 -0.0796
 3828SOL    HW112925   5.620   4.000  10.711 -1.0879 -1.3906  1.9864
 3828SOL    HW212926   5.583   4.141  10.672  0.0977 -1.9758 -1.5992
 3829SOL     OW12927   7.217   5.225   9.451 -0.5194  0.1541 -0.0050
 3829SOL    HW112928   7.255   5.140   9.472 -1.8191 -0.2556  0.8333
 3829SOL    HW212929   7.139   5.231   9.507 -1.4477  1.1286 -1.3259
 3830SOL     OW12930   7.886   4.794   4.977  0.1389  0.1756 -0.0395
 3830SOL    HW112931   7.876   4.785   5.072 -1.2675 -0.4191 -0.2273
 3830SOL    HW212932   7.882   4.888   4.961  1.8759  0.3983  0.6216
 3831SOL     OW12933   4.020   7.519   8.285 -0.1134 -0.0398 -0.3058
 3831SOL    HW112934   4.090   7.460   8.314  0.6190  0.7061 -0.5066
 3831SOL    HW212935   3.940   7.478   8.316  0.3344 -1.3860 -0.8478
 3832SOL     OW12936   1.144   3.898  10.182 -0.5184  0.4217 -0.3000
 3832SOL    HW112937   1.234   3.928  10.166  0.1097  0.1488  2.2625
 3832SOL    HW212938   1.090   3.975  10.165  0.5671  1.5800  1.2383
 3833SOL     OW12939   1.673   6.056   6.289 -0.3555  0.0366 -0.0740
 3833SOL    HW112940   1.643   6.003   6.215 -0.2901  1.2160 -0.9612
 3833SOL    HW212941   1.616   6.133   6.289  1.6820  1.6138 -0.9049
 3834SOL     OW12942   0.114   3.008   7.011  0.7538  0.9747  0.3697
 3834SOL    HW112943   0.164   3.089   7.012 -0.3801  1.6934  1.0186
 3834SOL    HW212944   0.023   3.036   7.021  0.3518 -0.3823  0.6824
 3835SOL     OW12945   1.966   5.667   6.129  0.0228 -0.1362 -0.4982
 3835SOL    HW112946   1.924   5.752   6.116  0.3594 -0.2721 -3.2297
 3835SOL    HW212947   2.010   5.674   6.214 -1.3524  1.7800  0.1213
 3836SOL     OW12948   5.591   3.301  12.189  0.0275  0.1419 -0.3670
 3836SOL    HW112949   5.587   3.219  12.140  1.1334  0.1935 -0.5712
 3836SOL    HW212950   5.570   3.368  12.124  0.8768  0.1555 -0.6477
 3837SOL     OW12951   0.366   2.878  10.225  0.0686  0.0687 -0.2362
 3837SOL    HW112952   0.362   2.911  10.315 -0.0679  2.2937 -0.9847
 3837SOL    HW212953   0.332   2.950  10.172  2.7786 -0.0225 -2.3312
 3838SOL     OW12954   4.899   0.964  12.302  0.6874 -0.3883 -0.1146
 3838SOL    HW112955   4.990   0.985  12.280  1.1187 -0.9110  1.0565
 3838SOL    HW212956   4.857   0.946  12.218  1.2644  1.3483 -0.8118
 3839SOL     OW12957   3.995   3.963   7.399 -0.5252 -0.2219  0.3565
 3839SOL    HW112958   3.957   3.927   7.479 -0.3468  0.2262  0.6493
 3839SOL    HW212959   4.040   3.890   7.358 -1.9004 -0.8346 -0.1261
 3840SOL     OW12960   4.416   5.148   4.287  0.0370 -0.2285 -0.4424
 3840SOL    HW112961   4.444   5.087   4.219 -0.5353 -0.5768 -0.3704
 3840SOL    HW212962   4.381   5.223   4.239  2.3314  0.8422 -0.5578
 3841SOL     OW12963   7.814   0.063   4.154  0.1106  0.0216 -0.2855
 3841SOL    HW112964   7.763   0.024   4.083  1.4724 -0.6997 -0.9180
 3841SOL    HW212965   7.905   0.059   4.123  0.6500  0.4815  1.1480
 3842SOL     OW12966   0.103   0.966  10.154 -0.1477 -0.1449 -0.1681
 3842SOL    HW112967   0.113   1.060  10.137 -0.2925  0.2339  1.5596
 3842SOL    HW212968   0.191   0.938  10.180 -0.2940 -0.2551  0.2227
 3843SOL     OW12969   6.275   5.132   8.642 -0.1643  0.2876  0.0302
 3843SOL    HW112970   6.354   5.085   8.615  0.0202  1.0848 -0.8674
 3843SOL    HW212971   6.238   5.165   8.560 -1.3632  0.0351  0.4536
 3844SOL     OW12972   5.401   7.057   2.426  0.1928 -0.4071 -0.3563
 3844SOL    HW112973   5.468   6.992   2.402 -0.3171 -0.2991 -2.1631
 3844SOL    HW212974   5.444   7.141   2.414  0.5457 -0.3540  1.0681
 3845SOL     OW12975   2.174   0.578   5.822  0.0329 -0.1559 -0.2151
 3845SOL    HW112976   2.246   0.630   5.787  0.9506 -0.0973  1.6514
 3845SOL    HW212977   2.109   0.577   5.752  1.9998 -0.5832 -2.1690
 3846SOL     OW12978   2.729   3.199   4.525  0.4781 -0.0469  0.1509
 3846SOL    HW112979   2.776   3.257   4.585 -1.5097  0.5811  1.2181
 3846SOL    HW212980   2.710   3.122   4.577  0.0096 -0.1256 -0.1296
 3847SOL     OW12981   3.435   0.740   6.167 -0.2729 -0.1974  0.8593
 3847SOL    HW112982   3.501   0.799   6.132  0.3321 -0.1336  2.0663
 3847SOL    HW212983   3.459   0.654   6.133 -2.0044  0.3654 -2.1348
 3848SOL     OW12984   1.046   7.142   6.442 -0.0562  0.2781 -0.1699
 3848SOL    HW112985   1.136   7.143   6.411 -0.0317 -0.4871 -0.1324
 3848SOL    HW212986   1.005   7.218   6.400  1.1394  1.9241  1.4687
 3849SOL     OW12987   1.934   0.914  10.897  0.3156  0.6512  0.1462
 3849SOL    HW112988   1.911   0.984  10.958 -0.0724  0.4692  0.2148
 3849SOL    HW212989   2.017   0.942  10.858 -0.1103  1.4003 -0.2292
 3850SOL     OW12990   5.811   1.784   7.272  0.4783  0.3457 -0.2915
 3850SOL    HW112991   5.811   1.775   7.176  1.1112 -0.4959 -0.2240
 3850SOL    HW212992   5.732   1.834   7.291  0.2134  0.3116 -1.2362
 3851SOL     OW12993   5.923   2.052   1.259 -0.0653 -0.6485  0.1992
 3851SOL    HW112994   5.843   2.058   1.312 -1.6938 -1.9525 -1.9345
 3851SOL    HW212995   5.994   2.053   1.323 -1.8578 -1.3000  2.3420
 3852SOL     OW12996   1.871   7.427   8.652  0.3716  0.2504 -0.8360
 3852SOL    HW112997   1.957   7.467   8.666  1.5035 -2.2735  0.0074
 3852SOL    HW212998   1.817   7.497   8.616  2.3598  2.3126 -0.0036
 3853SOL     OW12999   7.002   6.845   8.946 -0.5133  0.0625 -0.6753
 3853SOL    HW113000   7.021   6.912   9.012  0.3643 -0.8114  0.0096
 3853SOL    HW213001   6.980   6.894   8.867 -0.9588  1.1418  0.0931
 3854SOL     OW13002   1.217   6.989  10.110  0.3167  0.8769 -0.2233
 3854SOL    HW113003   1.224   6.894  10.120  2.2543  1.2139  3.3704
 3854SOL    HW213004   1.124   7.007  10.117 -0.0790 -0.7269 -0.9172
 3855SOL     OW13005   4.985   6.648   1.459 -0.2785 -0.0596 -0.0899
 3855SOL    HW113006   4.976   6.721   1.398 -0.5326 -1.6899 -2.1132
 3855SOL    HW213007   4.982   6.569   1.404 -1.1494 -1.6750  2.0820
 3856SOL     OW13008   7.154   6.570   2.585  0.0914 -0.0114  0.4773
 3856SOL    HW113009   7.071   6.534   2.615  0.6895 -2.4378 -0.5045
 3856SOL    HW213010   7.219   6.506   2.613  1.2891  0.4682 -1.0520
 3857SOL     OW13011   7.726   6.743   2.776 -0.5845 -0.3759 -0.0043
 3857SOL    HW113012   7.765   6.701   2.853 -1.6036 -0.0512  0.7183
 3857SOL    HW213013   7.800   6.763   2.719  0.2582 -0.0742  1.1637
 3858SOL     OW13014   4.036   0.469   0.312  0.3146  0.0690  0.1923
 3858SOL    HW113015   4.094   0.544   0.301  2.7380 -1.4855  1.3141
 3858SOL    HW213016   4.091   0.402   0.353 -1.8776 -2.1291 -0.1735
 3859SOL     OW13017   7.377   0.179   9.144 -0.3500  0.1484 -0.2440
 3859SOL    HW113018   7.382   0.135   9.059  0.3411 -2.7121  1.1676
 3859SOL    HW213019   7.285   0.201   9.154 -0.3339  1.2746 -2.0157
 3860SOL     OW13020   7.236   1.911   5.507 -0.1545 -0.3766  0.2691
 3860SOL    HW113021   7.158   1.931   5.558  1.8779  2.3359  2.6410
 3860SOL    HW213022   7.259   1.994   5.464  1.4004 -1.1200 -0.4087
 3861SOL     OW13023   2.816   7.502   7.693 -0.0059 -0.3263 -0.3720
 3861SOL    HW113024   2.737   7.552   7.671  0.3361 -0.4403 -1.9508
 3861SOL    HW213025   2.888   7.559   7.667  0.4953  0.1283  1.8276
 3862SOL     OW13026   6.583   5.378  10.991 -0.2537  0.2441  0.3273
 3862SOL    HW113027   6.635   5.301  10.967 -0.9437 -0.3881  0.8089
 3862SOL    HW213028   6.642   5.452  10.978  0.3686 -0.3500 -0.3117
 3863SOL     OW13029   5.830   1.072   2.398 -0.0773  0.5301 -0.0436
 3863SOL    HW113030   5.884   1.105   2.327  0.3179  0.1280  0.0671
 3863SOL    HW213031   5.795   0.989   2.366  0.4052  0.1645  0.3713
 3864SOL     OW13032   3.399   5.502  12.155 -0.2415 -0.1408 -0.5251
 3864SOL    HW113033   3.457   5.568  12.192 -0.8919 -0.0897  0.4320
 3864SOL    HW213034   3.409   5.512  12.060 -0.0560  1.0844 -0.3954
 3865SOL     OW13035   7.328   1.710   8.291 -0.0195 -0.1940 -0.5128
 3865SOL    HW113036   7.352   1.797   8.259  2.4822 -0.3807  0.5496
 3865SOL    HW213037   7.341   1.652   8.216  2.8077 -0.2038 -0.1427
 3866SOL     OW13038   5.018   2.957  11.234  0.3668  0.3195 -0.5342
 3866SOL    HW113039   4.971   2.909  11.302 -1.9516  1.2703 -1.3716
 3866SOL    HW213040   4.995   2.913  11.152  0.0045  1.4648 -1.0770
 3867SOL     OW13041   5.435   7.805   1.300  0.9773 -0.1523  0.5017
 3867SOL    HW113042   5.501   7.736   1.291 -0.0738 -1.2194  0.7490
 3867SOL    HW213043   5.461   7.871   1.236  0.5790 -1.9485 -1.6329
 3868SOL     OW13044   5.023   5.613   7.151  0.3146  0.9927 -0.6684
 3868SOL    HW113045   4.937   5.588   7.185  1.2966 -0.3531  1.0002
 3868SOL    HW213046   5.005   5.685   7.090 -2.0124  0.4818 -0.6801
 3869SOL     OW13047   7.022   5.499   7.019  0.4940 -0.2653  0.3758
 3869SOL    HW113048   6.992   5.487   7.109  0.8586  0.5392  0.6185
 3869SOL    HW213049   6.942   5.500   6.967  0.3912 -3.8614  0.2394
 3870SOL     OW13050   3.951   1.607   8.097  0.3508 -0.0314  0.2102
 3870SOL    HW113051   3.905   1.686   8.069  1.0850 -0.1247 -1.3903
 3870SOL    HW213052   3.883   1.552   8.135 -0.4105  0.8124  0.0964
 3871SOL     OW13053   0.479   3.343   9.905 -0.0245 -0.3517  0.7767
 3871SOL    HW113054   0.435   3.345   9.820  1.2980  1.5314  0.0572
 3871SOL    HW213055   0.520   3.257   9.909  1.3136  0.1236 -1.3228
 3872SOL     OW13056   6.013   3.781   8.456 -0.2913  0.1564  0.0993
 3872SOL    HW113057   6.027   3.818   8.369  1.7985 -1.4390 -0.3066
 3872SOL    HW213058   5.941   3.719   8.445 -0.6949  0.6834 -0.2557
 3873SOL     OW13059   4.636   2.420  10.309  0.1593  0.2040 -0.2758
 3873SOL    HW113060   4.648   2.327  10.326 -0.1251  0.2888  0.4467
 3873SOL    HW213061   4.552   2.441  10.351  0.6226  0.9581  0.3027
 3874SOL     OW13062   1.034   2.265   1.721 -0.1839 -0.1425  0.4866
 3874SOL    HW113063   1.010   2.217   1.642 -1.6275  2.2189 -0.6198
 3874SOL    HW213064   1.119   2.228   1.747  0.6187 -0.6325 -2.4740
 3875SOL     OW13065   6.705   0.153   4.225 -0.0282 -0.1093  0.3024
 3875SOL    HW113066   6.792   0.113   4.227  0.3609  0.7170  2.8941
 3875SOL    HW213067   6.677   0.156   4.317 -1.3401  2.7278 -0.0762
 3876SOL     OW13068   4.257   6.301  10.707 -0.1641 -0.2491  0.8175
 3876SOL    HW113069   4.253   6.319  10.801  0.9221 -1.7450  1.1950
 3876SOL    HW213070   4.244   6.206  10.700  2.1318 -0.5552 -0.2827
 3877SOL     OW13071   4.601   7.921   8.553 -0.2911  0.0610 -0.2439
 3877SOL    HW113072   4.600   7.983   8.625 -0.8152  0.3880 -0.5253
 3877SOL    HW213073   4.657   7.962   8.486  0.5976 -0.4650  0.1592
 3878SOL     OW13074   3.844   2.498   1.785 -0.1600  0.3658  0.4118
 3878SOL    HW113075   3.830   2.545   1.867 -1.1406 -0.5038  0.7726
 3878SOL    HW213076   3.776   2.531   1.726  0.5814  1.0332 -0.0829
 3879SOL     OW13077   5.426   5.167   7.863 -0.1960  0.1937 -0.0771
 3879SOL    HW113078   5.453   5.215   7.784  0.9835 -0.4773 -0.1146
 3879SOL    HW213079   5.332   5.179   7.868 -0.4479 -0.5586 -2.1450
 3880SOL     OW13080   2.396   2.235  12.107  0.0727  0.5621  0.0236
 3880SOL    HW113081   2.348   2.289  12.169  0.6375 -0.2102  1.1545
 3880SOL    HW213082   2.473   2.288  12.084 -0.1114  0.8278  0.0116
 3881SOL     OW13083   0.310   5.699   0.063  0.1206  0.0843  0.0173
 3881SOL    HW113084   0.229   5.703   0.113 -0.8056 -1.2384 -1.3053
 3881SOL    HW213085   0.297   5.759  -0.011  0.2890 -0.2456 -0.2820
 3882SOL     OW13086   0.679   0.600   1.111 -0.1350 -0.0030  0.3999
 3882SOL    HW113087   0.707   0.532   1.172  0.3941 -0.2294 -0.0835
 3882SOL    HW213088   0.761   0.630   1.070 -0.4919  0.0548 -0.2880
 3883SOL     OW13089   1.741   5.186   9.051 -0.4517 -0.4675 -0.5231
 3883SOL    HW113090   1.823   5.215   9.011  1.8320 -1.6982  2.8287
 3883SOL    HW213091   1.746   5.091   9.047 -2.3435 -0.5647 -1.2613
 3884SOL     OW13092   7.473   2.727   5.098  0.5070  0.1883 -0.3233
 3884SOL    HW113093   7.400   2.688   5.048  0.3216 -0.1946  0.2331
 3884SOL    HW213094   7.539   2.658   5.100  0.6136  0.2941 -0.2539
 3885SOL     OW13095   4.995   5.659   9.012  0.5110 -0.4262  0.1034
 3885SOL    HW113096   5.010   5.728   8.947 -1.3162 -0.1111 -0.0214
 3885SOL    HW213097   4.991   5.578   8.961 -1.2409 -0.1429 -0.2662
 3886SOL     OW13098   3.847   7.149   3.584 -0.4116  0.2627  0.7273
 3886SOL    HW113099   3.862   7.063   3.544 -1.2303  0.8798 -0.9736
 3886SOL    HW213100   3.756   7.169   3.565  0.4499  2.6900 -1.3611
 3887SOL     OW13101   0.583   7.755   3.057 -0.4653  0.7087  0.2450
 3887SOL    HW113102   0.665   7.764   3.105  0.0065  1.0676 -0.5952
 3887SOL    HW213103   0.514   7.771   3.122  0.1497  1.2369  0.7766
 3888SOL     OW13104   6.029   0.459   3.178 -0.1828 -0.3065  0.2168
 3888SOL    HW113105   6.024   0.372   3.139 -1.8301  0.1369 -0.6498
 3888SOL    HW213106   6.020   0.443   3.272 -2.8977 -0.9837 -0.0720
 3889SOL     OW13107   0.402   7.752   2.547  0.2932 -0.6093 -0.2368
 3889SOL    HW113108   0.461   7.736   2.474 -1.2888 -2.2956 -1.2190
 3889SOL    HW213109   0.342   7.678   2.546 -2.8968  1.7730 -0.3180
 3890SOL     OW13110   2.762   3.000   4.275  0.3102 -0.2111 -0.0493
 3890SOL    HW113111   2.832   2.945   4.309 -0.1276 -0.4356  0.5061
 3890SOL    HW213112   2.784   3.088   4.304  0.4903 -0.2415 -0.0920
 3891SOL     OW13113   1.258   2.077   9.684  0.6459  0.2999 -0.5361
 3891SOL    HW113114   1.210   2.052   9.763 -1.0577  2.6357 -0.7355
 3891SOL    HW213115   1.319   2.145   9.713  2.0646 -0.8173 -0.7739
 3892SOL     OW13116   5.752   4.831   4.436  0.1077  0.1221  0.5376
 3892SOL    HW113117   5.690   4.757   4.435  1.6107 -1.1868  0.3756
 3892SOL    HW213118   5.772   4.845   4.344 -1.6032  2.0584  0.3872
 3893SOL     OW13119   7.735   0.728   5.361 -0.6131  0.2610  0.3900
 3893SOL    HW113120   7.789   0.786   5.415 -0.7943  0.6423  0.1655
 3893SOL    HW213121   7.653   0.718   5.410 -0.5910  0.2121  0.4170
 3894SOL     OW13122   0.887   6.831   2.520  0.0319 -0.2721  0.1692
 3894SOL    HW113123   0.845   6.786   2.593  1.6901  0.5593  1.7161
 3894SOL    HW213124   0.888   6.923   2.547 -0.9501  0.3526 -1.7501
 3895SOL     OW13125   5.855   7.164   2.779  0.0394 -0.1134 -0.0450
 3895SOL    HW113126   5.784   7.193   2.721  0.3051  1.9644  0.6018
 3895SOL    HW213127   5.923   7.230   2.769  0.8859 -0.7610  1.1901
 3896SOL     OW13128   6.327   3.054   8.975 -0.0465  0.7372 -0.0695
 3896SOL    HW113129   6.244   3.102   8.967 -0.1288  0.5105 -0.6127
 3896SOL    HW213130   6.394   3.122   8.980 -0.2743  0.9276  0.5641
 3897SOL     OW13131   1.693   1.651   3.440 -0.4889 -0.4533 -0.3260
 3897SOL    HW113132   1.608   1.675   3.476  0.1072 -1.3665  1.8446
 3897SOL    HW213133   1.702   1.558   3.459  1.4132 -0.1589  0.4368
 3898SOL     OW13134   7.597   1.783   6.131  0.9327 -0.0607  0.1191
 3898SOL    HW113135   7.579   1.758   6.040  0.7490  1.9321 -0.4194
 3898SOL    HW213136   7.690   1.764   6.143  1.2909  0.9555 -0.9296
 3899SOL     OW13137   3.427   5.855   7.942  0.0503 -0.3682  0.0673
 3899SOL    HW113138   3.445   5.768   7.977 -1.6239 -0.3386  1.1474
 3899SOL    HW213139   3.399   5.840   7.852 -0.8434 -1.0395  0.4390
 3900SOL     OW13140   3.855   1.613   0.265  0.3048 -0.3197 -0.4590
 3900SOL    HW113141   3.950   1.603   0.259  0.4002  0.7490 -0.8283
 3900SOL    HW213142   3.839   1.706   0.248 -0.8596 -0.6153 -1.0604
 3901SOL     OW13143   0.530   0.025  11.791 -0.1865  0.5248  0.0862
 3901SOL    HW113144   0.553   0.082  11.864  1.0935 -0.7658  0.7511
 3901SOL    HW213145   0.614  -0.013  11.763 -1.0018 -1.2406 -0.1364
 3902SOL     OW13146   0.735   6.491   9.509  0.0082  0.0899  0.4127
 3902SOL    HW113147   0.715   6.456   9.595  0.3497  0.2844  0.5743
 3902SOL    HW213148   0.803   6.433   9.474  0.6299  0.6195  0.7128
 3903SOL     OW13149   7.367   4.513   3.526 -0.5220  0.2651 -0.6093
 3903SOL    HW113150   7.427   4.445   3.555 -0.0431 -0.6724 -3.4653
 3903SOL    HW213151   7.280   4.474   3.534 -0.4595  0.2279 -0.0344
 3904SOL     OW13152   2.548   7.847   0.506 -0.4532  0.4732  0.0808
 3904SOL    HW113153   2.595   7.920   0.468  0.4800  0.4587  1.1547
 3904SOL    HW213154   2.481   7.887   0.562 -1.0554  0.4906 -0.6355
 3905SOL     OW13155   2.157   0.012  10.817 -0.1117  0.1484 -0.0733
 3905SOL    HW113156   2.136  -0.076  10.848 -0.9259  0.5055  0.4310
 3905SOL    HW213157   2.159   0.066  10.896 -1.2741  0.8939 -0.5285
 3906SOL     OW13158   0.067   6.652  12.024  0.4443 -0.1299 -0.0349
 3906SOL    HW113159   0.072   6.627  12.117  1.6422 -0.5139 -0.1805
 3906SOL    HW213160   0.081   6.746  12.024 -0.0745 -0.0469  0.2070
 3907SOL     OW13161   7.354   1.974  10.824  0.2364  0.2331 -0.0500
 3907SOL    HW113162   7.409   2.044  10.789  0.8908 -0.6303 -0.7926
 3907SOL    HW213163   7.392   1.894  10.789 -1.1158 -0.4335 -0.0443
 3908SOL     OW13164   2.015   6.800  10.202 -0.0064  0.3767 -0.4414
 3908SOL    HW113165   2.001   6.768  10.113  0.9744 -1.7333  0.0952
 3908SOL    HW213166   1.995   6.725  10.257 -1.2694  1.8309  1.2186
 3909SOL     OW13167   7.827   6.549   9.804 -0.3660  0.3598 -0.5071
 3909SOL    HW113168   7.829   6.639   9.835  1.3929  0.5433 -1.0093
 3909SOL    HW213169   7.919   6.526   9.794 -0.7119 -1.9594  0.9013
 3910SOL     OW13170   7.268   0.016  12.304 -0.1324  0.3196 -0.2501
 3910SOL    HW113171   7.228   0.102  12.288 -0.1863  0.2105 -0.7256
 3910SOL    HW213172   7.261  -0.029  12.220 -1.5027 -0.7211  0.3866
 3911SOL     OW13173   1.793   2.417  10.202 -0.2164 -0.1635 -0.4129
 3911SOL    HW113174   1.747   2.473  10.139  0.7116  0.5784 -0.4504
 3911SOL    HW213175   1.886   2.431  10.184  0.0492 -0.8398  0.3473
 3912SOL     OW13176   6.576   1.210   4.760  0.1484  0.1369 -0.4382
 3912SOL    HW113177   6.663   1.173   4.744  0.6860  0.9906  0.3796
 3912SOL    HW213178   6.584   1.252   4.846 -0.6061  1.5800 -1.0364
 3913SOL     OW13179   0.753   6.392   7.090 -0.2464  0.3872  0.1316
 3913SOL    HW113180   0.808   6.352   7.023 -0.2073 -0.7634  0.8303
 3913SOL    HW213181   0.678   6.333   7.099 -0.7308  1.0239  0.4425
 3914SOL     OW13182   3.474   7.453   0.844 -0.5708  0.4113 -0.2317
 3914SOL    HW113183   3.558   7.491   0.817 -0.7944  0.2017 -1.2517
 3914SOL    HW213184   3.418   7.528   0.862 -0.5752  0.5626 -0.8614
 3915SOL     OW13185   5.089   7.059   6.102 -0.1107 -0.4297  0.3432
 3915SOL    HW113186   5.123   7.133   6.050  0.3571 -1.1112 -0.3455
 3915SOL    HW213187   5.167   7.018   6.139 -0.1745 -1.6806 -0.8081
 3916SOL     OW13188   7.793   7.175   4.178  0.4012 -0.2351 -0.2854
 3916SOL    HW113189   7.796   7.265   4.210 -0.9330 -0.1627 -0.3029
 3916SOL    HW213190   7.747   7.127   4.247 -1.0304 -0.4062 -1.3008
 3917SOL     OW13191   1.097   6.679  11.057  0.1144  0.0632  0.7854
 3917SOL    HW113192   1.113   6.624  10.981  0.7605  0.4793  0.6124
 3917SOL    HW213193   1.067   6.618  11.125  3.6775 -1.0744  1.5686
 3918SOL     OW13194   2.009   1.335   8.836  0.3833  0.4813 -0.0369
 3918SOL    HW113195   2.008   1.350   8.742  2.0155  1.9129  0.1326
 3918SOL    HW213196   2.087   1.381   8.868  0.6792 -1.1402  1.8258
 3919SOL     OW13197   1.460   0.628   2.580  0.0277 -0.0781 -0.2046
 3919SOL    HW113198   1.456   0.535   2.602  0.0333  0.1440  0.7911
 3919SOL    HW213199   1.423   0.634   2.492 -0.8807 -0.8900  0.1085
 3920SOL     OW13200   3.332   4.989   3.326  0.1772 -0.4474  0.3708
 3920SOL    HW113201   3.322   5.021   3.416  1.2948  1.1018 -0.0125
 3920SOL    HW213202   3.411   5.033   3.294 -1.4175  0.8331 -2.1014
 3921SOL     OW13203   5.673   5.677   2.253 -0.1983 -0.5052  0.2245
 3921SOL    HW113204   5.750   5.640   2.210  1.5853  0.5347  2.3199
 3921SOL    HW213205   5.706   5.754   2.299 -2.8333  0.9359 -0.0899
 3922SOL     OW13206   3.129   7.231   6.538  0.2538  0.7679 -0.0922
 3922SOL    HW113207   3.058   7.176   6.505 -0.6382  1.7298  0.1698
 3922SOL    HW213208   3.206   7.204   6.488 -0.3477 -0.1168 -0.5622
 3923SOL     OW13209   2.703   4.556   3.051 -0.1924  0.5792 -0.0063
 3923SOL    HW113210   2.614   4.589   3.037  0.8700  3.0121 -1.7012
 3923SOL    HW213211   2.695   4.461   3.045 -2.5052  0.7914 -1.1508
 3924SOL     OW13212   6.331   4.323   9.882  0.3487 -0.6226  0.2242
 3924SOL    HW113213   6.286   4.264   9.943 -0.4736 -1.6667 -1.3046
 3924SOL    HW213214   6.277   4.320   9.803 -0.1364  2.7905  0.2745
 3925SOL     OW13215   2.892   0.363   1.493  0.0462 -0.1863  0.2672
 3925SOL    HW113216   2.918   0.342   1.403  0.3980 -0.3365  0.4016
 3925SOL    HW213217   2.953   0.431   1.521  1.1746 -1.4565  1.0359
 3926SOL     OW13218   0.525   6.704   8.970  0.2897 -0.3114  0.2108
 3926SOL    HW113219   0.514   6.744   8.884 -1.9294 -1.9380 -0.3611
 3926SOL    HW213220   0.523   6.610   8.953 -0.4925 -0.6798  2.0513
 3927SOL     OW13221   2.155   7.809   3.370  0.4557  1.0005 -0.0659
 3927SOL    HW113222   2.189   7.720   3.387  2.2642  2.0015  2.2660
 3927SOL    HW213223   2.219   7.848   3.311 -0.4832  0.7090 -1.3080
 3928SOL     OW13224   4.591   1.206  11.636 -0.3461  0.4364  0.0747
 3928SOL    HW113225   4.504   1.166  11.633  0.1201 -0.5817 -0.1829
 3928SOL    HW213226   4.634   1.163  11.710  0.5962 -0.4791 -0.9646
 3929SOL     OW13227   0.807   4.151   3.530  0.2619  0.5017 -0.3669
 3929SOL    HW113228   0.874   4.083   3.530 -0.0447  0.1833  0.5764
 3929SOL    HW213229   0.744   4.123   3.596  0.1951  1.7658  0.1412
 3930SOL     OW13230   1.600   2.488   7.363  0.5228 -0.1014 -0.0063
 3930SOL    HW113231   1.635   2.545   7.295  0.4239  0.0829  0.0948
 3930SOL    HW213232   1.507   2.511   7.368  0.8224  0.9916  1.2407
 3931SOL     OW13233   3.427   7.911   3.787 -0.1605  0.5004 -0.2907
 3931SOL    HW113234   3.495   7.954   3.735  0.8013  0.0313  0.5312
 3931SOL    HW213235   3.423   7.822   3.752  0.8292  0.0362  0.6885
 3932SOL     OW13236   0.615   4.916   8.830  0.1429  0.5273 -0.0514
 3932SOL    HW113237   0.618   4.993   8.774 -0.3519  0.3679 -0.3074
 3932SOL    HW213238   0.549   4.938   8.897 -1.8901 -0.5918 -1.5618
 3933SOL     OW13239   0.584   3.959   4.826 -0.0789  0.2686 -0.5748
 3933SOL    HW113240   0.647   3.969   4.898 -1.7762  0.0391  1.0159
 3933SOL    HW213241   0.527   3.887   4.854 -1.5684  1.0165 -1.5726
 3934SOL     OW13242   1.820   1.635  11.650 -0.1990 -0.3225  0.8150
 3934SOL    HW113243   1.781   1.639  11.737 -0.8015  1.9113  0.4980
 3934SOL    HW213244   1.787   1.713  11.605  0.1753 -1.3413 -1.3909
 3935SOL     OW13245   7.914   3.784   2.306 -0.4990 -0.2406  1.2010
 3935SOL    HW113246   7.864   3.828   2.237  0.2618 -1.9289 -0.5330
 3935SOL    HW213247   7.858   3.712   2.335 -0.8385  0.4973  2.4348
 3936SOL     OW13248   0.547   4.379  12.257 -0.0830  0.3853  0.2928
 3936SOL    HW113249   0.625   4.428  12.284  0.7143 -0.9707  0.5518
 3936SOL    HW213250   0.581   4.295  12.225 -1.4362 -0.3244  0.6144
 3937SOL     OW13251   6.743   4.154   4.139 -0.5085  0.4225  0.1224
 3937SOL    HW113252   6.835   4.130   4.139 -0.7323 -1.0275 -3.1309
 3937SOL    HW213253   6.729   4.199   4.222  2.6382 -1.0259  1.5846
 3938SOL     OW13254   5.639   5.859  10.910 -0.0328  0.0037 -0.0007
 3938SOL    HW113255   5.618   5.843  11.002 -0.1188  0.2579  0.0261
 3938SOL    HW213256   5.601   5.785  10.863  0.1163 -0.1900  0.1799
 3939SOL     OW13257   2.663   4.274   8.955  0.2613 -0.4192  0.2326
 3939SOL    HW113258   2.752   4.308   8.956  0.5653 -1.1998 -0.1633
 3939SOL    HW213259   2.648   4.244   9.045  0.2156  0.1573  0.4236
 3940SOL     OW13260   4.744   0.253   2.597 -0.0223 -0.1409 -0.1979
 3940SOL    HW113261   4.658   0.275   2.562  0.3981 -0.2901 -1.4039
 3940SOL    HW213262   4.738   0.271   2.691 -1.4500 -0.4587 -0.2087
 3941SOL     OW13263   0.485   5.094   1.955 -0.2440  0.3320  0.0547
 3941SOL    HW113264   0.483   5.112   1.861  0.8398  0.7133  0.0879
 3941SOL    HW213265   0.477   5.181   1.995 -3.0920  0.0047  0.3974
 3942SOL     OW13266   4.052   7.700  12.208  0.0261  0.2057 -0.1054
 3942SOL    HW113267   4.068   7.635  12.276 -0.2373 -1.1393 -1.2618
 3942SOL    HW213268   4.130   7.697  12.153  0.3182  1.4145  0.2183
 3943SOL     OW13269   4.978   0.319  12.060  0.3412 -0.2276 -0.2024
 3943SOL    HW113270   5.066   0.355  12.069 -0.0750  0.9971 -0.7922
 3943SOL    HW213271   4.942   0.322  12.148  0.3871  0.6390 -0.2041
 3944SOL     OW13272   1.607   7.505   1.484  0.5565  0.2519  0.0069
 3944SOL    HW113273   1.699   7.508   1.511  0.2456  0.8081  1.0684
 3944SOL    HW213274   1.568   7.582   1.525  0.1252  1.3991 -2.3931
 3945SOL     OW13275   2.718   0.884   1.809 -0.6298 -0.3001  0.1240
 3945SOL    HW113276   2.758   0.801   1.782  1.1826  0.3245  0.7301
 3945SOL    HW213277   2.707   0.933   1.727  0.6371 -0.1724  0.0145
 3946SOL     OW13278   3.740   7.880   4.569  0.2406  0.0344 -0.4813
 3946SOL    HW113279   3.710   7.846   4.485 -1.1687  0.9441 -0.3859
 3946SOL    HW213280   3.742   7.804   4.627 -1.1213 -0.2267 -0.7359
 3947SOL     OW13281   2.343   0.560   5.566  0.1796  0.5528 -0.3115
 3947SOL    HW113282   2.356   0.613   5.644  0.7213  0.0109 -0.0200
 3947SOL    HW213283   2.387   0.608   5.496 -0.9592  1.4238 -0.4643
 3948SOL     OW13284   6.181   0.792   2.635  0.0662  0.0906 -0.1102
 3948SOL    HW113285   6.129   0.773   2.556 -0.3005  2.9561 -0.6684
 3948SOL    HW213286   6.272   0.791   2.605 -0.0391  0.6160 -0.4617
 3949SOL     OW13287   1.249   4.884   3.753  0.2670 -0.2743 -0.0972
 3949SOL    HW113288   1.229   4.934   3.831 -1.0248  0.8485 -1.0992
 3949SOL    HW213289   1.226   4.794   3.775 -1.9887  0.3157  0.2175
 3950SOL     OW13290   7.684   1.346   2.254  0.1473  0.1848 -0.0140
 3950SOL    HW113291   7.662   1.289   2.180  2.0547  1.0038 -1.2850
 3950SOL    HW213292   7.747   1.408   2.218  1.7196  0.1645  2.5101
 3951SOL     OW13293   2.112   2.511   4.118 -0.5884  0.1034 -0.6935
 3951SOL    HW113294   2.158   2.594   4.130 -0.2027 -0.2607  0.5327
 3951SOL    HW213295   2.177   2.452   4.080 -0.7041  0.2022 -1.0509
 3952SOL     OW13296   1.518   0.447   3.610 -0.2468  0.1080 -0.3138
 3952SOL    HW113297   1.590   0.449   3.673 -0.2647 -0.2941 -0.2755
 3952SOL    HW213298   1.560   0.457   3.525 -0.1909  0.3441 -0.2572
 3953SOL     OW13299   5.026   1.072   1.675 -0.5386  0.8188  0.3643
 3953SOL    HW113300   5.010   1.163   1.699 -1.8721  0.2461  1.8600
 3953SOL    HW213301   4.947   1.046   1.628 -0.6157  0.1600  0.8451
 3954SOL     OW13302   1.018   6.204  10.341 -0.3808  0.0356 -0.6622
 3954SOL    HW113303   0.991   6.116  10.314 -0.0372  0.1079 -1.2461
 3954SOL    HW213304   0.976   6.263  10.278  0.1820  0.2219 -0.8705
 3955SOL     OW13305   2.227   3.801   4.093  0.2400  0.2283 -0.3949
 3955SOL    HW113306   2.281   3.845   4.159  0.7706 -1.0931  0.0812
 3955SOL    HW213307   2.245   3.708   4.105 -1.0256 -0.1515 -1.2251
 3956SOL     OW13308   6.646   0.407  12.239  0.1123 -0.0556  0.1968
 3956SOL    HW113309   6.563   0.413  12.287  1.1441 -1.8220  2.4175
 3956SOL    HW213310   6.689   0.491  12.253 -0.4296  0.1324  0.7546
 3957SOL     OW13311   2.265   0.282   1.502 -1.3892  0.4479  0.1031
 3957SOL    HW113312   2.297   0.370   1.520 -1.1387  0.4785 -0.4832
 3957SOL    HW213313   2.294   0.263   1.413 -0.5002 -0.6563  0.6080
 3958SOL     OW13314   2.274   6.803   1.448  0.1507  0.0586 -0.3977
 3958SOL    HW113315   2.369   6.813   1.439  0.4964 -2.5168 -0.2141
 3958SOL    HW213316   2.243   6.782   1.360 -0.1255 -0.0461 -0.2775
 3959SOL     OW13317   6.681   5.593   9.387 -0.2628  0.7479  0.1629
 3959SOL    HW113318   6.692   5.581   9.293 -0.3749  2.4803 -0.1019
 3959SOL    HW213319   6.587   5.589   9.402 -0.2310  0.2363  0.2527
 3960SOL     OW13320   7.241   1.236   8.983  0.1548 -0.5093 -0.0889
 3960SOL    HW113321   7.324   1.189   8.990  0.0181 -0.9124 -1.0302
 3960SOL    HW213322   7.194   1.213   9.064  0.9993 -0.1727  0.5129
 3961SOL     OW13323   3.977   1.000   6.777 -0.8048 -0.0168 -0.1690
 3961SOL    HW113324   3.981   1.034   6.687  2.2233  0.2301 -0.0472
 3961SOL    HW213325   3.960   1.077   6.831  1.9538  0.7378 -0.2346
 3962SOL     OW13326   2.582   7.406   6.643 -0.3372 -0.3903  0.2075
 3962SOL    HW113327   2.664   7.421   6.595 -0.5017 -0.3864 -0.0768
 3962SOL    HW213328   2.597   7.445   6.729 -0.2776  0.2054 -0.0676
 3963SOL     OW13329   1.471   3.893   2.873 -0.2408 -0.0819 -0.2498
 3963SOL    HW113330   1.536   3.888   2.803 -0.0680 -0.0353 -0.0954
 3963SOL    HW213331   1.417   3.969   2.851 -0.7436 -0.5931 -0.8019
 3964SOL     OW13332   7.103   3.969   3.086  0.2014 -0.2018  0.0345
 3964SOL    HW113333   7.029   3.923   3.047  0.7734 -0.5496 -0.6771
 3964SOL    HW213334   7.071   4.001   3.170 -1.1911  0.8696 -0.8596
 3965SOL     OW13335   3.814   3.807   7.581  0.3313  0.0081 -0.3411
 3965SOL    HW113336   3.722   3.830   7.568  0.4709  0.8166  0.0484
 3965SOL    HW213337   3.845   3.870   7.646  1.7898  1.3481 -2.2093
 3966SOL     OW13338   6.483   2.457  10.313 -0.2274 -0.2199  0.5397
 3966SOL    HW113339   6.556   2.395  10.312  0.0485  0.0577  1.7892
 3966SOL    HW213340   6.524   2.543  10.325 -0.6450  0.1538 -0.5997
 3967SOL     OW13341   2.961   5.473  10.110  0.3128  0.5880 -0.0691
 3967SOL    HW113342   2.879   5.441  10.074 -0.0333 -1.4244  2.2398
 3967SOL    HW213343   3.027   5.444  10.047 -0.6913  2.9461 -2.3787
 3968SOL     OW13344   0.004   4.963   4.330  0.2429  0.0110 -0.1345
 3968SOL    HW113345  -0.037   4.912   4.260  1.0877 -1.5304  0.4567
 3968SOL    HW213346   0.068   5.018   4.285  0.9691 -1.1546 -0.5674
 3969SOL     OW13347   3.409   0.606   8.330  0.1314 -0.1071  0.2411
 3969SOL    HW113348   3.424   0.543   8.400  0.4714 -0.7435 -0.3856
 3969SOL    HW213349   3.491   0.656   8.325 -0.5705  1.2363  1.5507
 3970SOL     OW13350   5.896   1.981  10.214 -0.0290 -0.0613  0.6073
 3970SOL    HW113351   5.973   1.932  10.242 -0.5823 -0.9445  0.6346
 3970SOL    HW213352   5.823   1.940  10.262 -0.8002 -0.6621 -1.0126
 3971SOL     OW13353   7.767   6.324  11.878 -0.0581 -0.0573 -0.1684
 3971SOL    HW113354   7.814   6.342  11.796  1.4357 -0.0160  0.6631
 3971SOL    HW213355   7.729   6.408  11.903 -0.3840 -0.0343 -0.7207
 3972SOL     OW13356   0.328   4.914   6.257  0.5409  0.9220  0.2079
 3972SOL    HW113357   0.303   4.847   6.194  0.2167 -0.3364  1.6201
 3972SOL    HW213358   0.254   4.975   6.259 -1.1389 -1.0560  2.0464
 3973SOL     OW13359   2.091   4.568   9.125  0.0049 -0.2436 -0.1655
 3973SOL    HW113360   2.010   4.619   9.124 -0.6165 -1.2090 -1.2644
 3973SOL    HW213361   2.067   4.485   9.165  0.5224 -0.4225 -0.2192
 3974SOL     OW13362   3.561   7.209  12.102 -0.6977  0.3401 -0.0829
 3974SOL    HW113363   3.650   7.175  12.091 -0.7338  0.4867 -0.9044
 3974SOL    HW213364   3.536   7.237  12.014 -1.9020 -0.5158 -0.0294
 3975SOL     OW13365   6.933   3.427   6.305  0.6065 -0.0721  0.0707
 3975SOL    HW113366   6.953   3.390   6.391  0.3886 -0.3041  0.0218
 3975SOL    HW213367   6.838   3.421   6.298  0.5762  0.4103  0.0222
 3976SOL     OW13368   0.100   2.680  10.917 -0.2869 -0.0649  0.0085
 3976SOL    HW113369   0.157   2.670  10.840  0.2217 -0.2013  0.3950
 3976SOL    HW213370   0.081   2.591  10.944  1.0121 -0.0498  1.0998
 3977SOL     OW13371   4.179   5.355  10.872 -0.6626  0.2688 -0.4690
 3977SOL    HW113372   4.237   5.322  10.940 -1.6049 -0.7176 -0.1235
 3977SOL    HW213373   4.183   5.450  10.882 -0.5804  0.1546  0.7956
 3978SOL     OW13374   5.958   6.721   1.727 -0.3417 -0.3390  0.0508
 3978SOL    HW113375   6.032   6.661   1.728 -1.1270 -1.3383  0.9648
 3978SOL    HW213376   5.888   6.673   1.682 -0.8356  0.0723  0.3603
 3979SOL     OW13377   2.014   1.240  11.825  0.5943  0.6198 -0.1708
 3979SOL    HW113378   1.949   1.281  11.768  2.0199  1.1612 -1.4721
 3979SOL    HW213379   1.966   1.170  11.869 -1.4295  2.3773  0.6288
 3980SOL     OW13380   2.436   6.912  12.147  0.5323  0.5411 -0.2399
 3980SOL    HW113381   2.489   6.989  12.168  2.2029 -0.8198  0.7363
 3980SOL    HW213382   2.450   6.852  12.220 -1.2478 -0.4624 -0.6694
 3981SOL     OW13383   6.908   2.824  11.607  0.5978 -0.0049 -0.1069
 3981SOL    HW113384   6.898   2.909  11.563  1.7151 -0.6790 -1.7569
 3981SOL    HW213385   6.838   2.770  11.571  0.8884 -0.2602 -0.2895
 3982SOL     OW13386   2.983   7.730   3.241  0.2153  0.0655 -0.5689
 3982SOL    HW113387   2.972   7.808   3.296 -0.6691 -0.0188 -0.6166
 3982SOL    HW213388   3.013   7.764   3.157  0.5238  0.2869 -0.3751
 3983SOL     OW13389   0.922   3.757  11.379  0.2731  0.0891  0.2524
 3983SOL    HW113390   0.884   3.792  11.299  0.3385 -0.7115 -0.1469
 3983SOL    HW213391   0.886   3.668  11.385 -0.7362  0.5575  1.7947
 3984SOL     OW13392   6.384   6.445  10.739 -0.0139 -0.0909  0.0659
 3984SOL    HW113393   6.420   6.472  10.655 -0.3089 -1.0728 -0.3929
 3984SOL    HW213394   6.434   6.495  10.804 -0.3936  1.3521 -0.7164
 3985SOL     OW13395   5.555   7.890   0.709  0.0383 -0.0113  0.0696
 3985SOL    HW113396   5.471   7.847   0.691 -0.8332  0.9912  1.5056
 3985SOL    HW213397   5.621   7.825   0.685 -1.1594 -1.0734 -0.4656
 3986SOL     OW13398   2.465   0.814   8.315  0.1550  0.6353  0.5230
 3986SOL    HW113399   2.372   0.801   8.298  0.4316 -1.6424  0.3844
 3986SOL    HW213400   2.507   0.805   8.229  0.7156 -1.4838  0.9480
 3987SOL     OW13401   4.040   1.800  11.399 -0.1436 -0.3083 -0.2377
 3987SOL    HW113402   4.097   1.727  11.377  1.4498  0.8976 -0.2587
 3987SOL    HW213403   3.960   1.784  11.349 -0.7196 -3.1116  1.3352
 3988SOL     OW13404   2.205   4.065  12.452 -0.3448 -0.3122 -0.5000
 3988SOL    HW113405   2.160   4.082  12.369  0.2033  3.9914 -0.1367
 3988SOL    HW213406   2.297   4.085  12.434  0.0042 -0.5912  0.8538
 3989SOL     OW13407   0.502   0.400  11.649  0.1022 -0.2599  0.5337
 3989SOL    HW113408   0.573   0.456  11.681  1.8945 -1.9008 -0.3432
 3989SOL    HW213409   0.451   0.378  11.727  0.9133  0.4826  1.2954
 3990SOL     OW13410   7.759   1.496   0.733 -0.0867 -0.3689 -0.5965
 3990SOL    HW113411   7.761   1.497   0.637  1.7745  0.3664 -0.5838
 3990SOL    HW213412   7.674   1.456   0.754  0.7809 -3.6469 -2.5604
 3991SOL     OW13413   1.635   5.667   2.855 -0.5819  0.4105 -0.4132
 3991SOL    HW113414   1.638   5.715   2.772 -0.1931 -0.3044 -0.8244
 3991SOL    HW213415   1.551   5.622   2.853 -0.8188  0.8377 -0.1600
 3992SOL     OW13416   2.407   0.417   3.706 -0.0920  0.1462  0.1078
 3992SOL    HW113417   2.468   0.377   3.767  2.8997  1.6375 -1.6796
 3992SOL    HW213418   2.408   0.359   3.630 -1.9620 -0.4673  0.5075
 3993SOL     OW13419   2.916   1.714   0.443 -0.1385  0.4308 -0.6261
 3993SOL    HW113420   2.872   1.798   0.457 -0.0864  0.2977  0.4183
 3993SOL    HW213421   3.001   1.724   0.484  0.1899  0.1427 -1.2302
 3994SOL     OW13422   5.255   4.428   2.525  0.3654  0.0095  0.1286
 3994SOL    HW113423   5.227   4.479   2.449 -3.5490 -0.0029  1.3424
 3994SOL    HW213424   5.214   4.342   2.512  1.3832 -0.6752  1.2445
 3995SOL     OW13425   7.603   6.473  12.466  0.3617 -0.1209 -0.0101
 3995SOL    HW113426   7.523   6.422  12.453  0.8946 -0.8948 -0.3047
 3995SOL    HW213427   7.674   6.415  12.439  0.9634  0.9219 -0.7490
 3996SOL     OW13428   7.965   5.380   8.420  0.0310  0.2581  0.0810
 3996SOL    HW113429   8.009   5.464   8.432  0.4520  0.1191 -0.4639
 3996SOL    HW213430   7.907   5.393   8.345  0.5533 -0.1104 -0.3965
 3997SOL     OW13431   5.657   3.168   4.985  0.1985  0.3395  0.3949
 3997SOL    HW113432   5.580   3.193   5.035 -1.7640 -1.0015 -1.7307
 3997SOL    HW213433   5.690   3.090   5.030 -1.5726 -0.8883 -0.2898
 3998SOL     OW13434   5.094   5.428   9.274 -0.2974  0.0120 -0.0213
 3998SOL    HW113435   5.159   5.363   9.302  0.8088  0.0550 -2.2604
 3998SOL    HW213436   5.142   5.511   9.272 -0.6756  0.2210 -0.7292
 3999SOL     OW13437   6.221   3.755  11.921  0.3867 -0.0319 -0.4390
 3999SOL    HW113438   6.183   3.793  12.000  0.8511  0.0303 -0.2418
 3999SOL    HW213439   6.168   3.791  11.849 -0.2172 -0.3092 -0.1444
 4000SOL     OW13440   0.359   0.733   1.401 -0.2992 -0.3442 -0.2489
 4000SOL    HW113441   0.427   0.786   1.360  0.0783  0.9737  1.9256
 4000SOL    HW213442   0.279   0.754   1.353  0.4137 -0.2986 -1.4674
 4001SOL     OW13443   4.055   0.521   2.194  0.2831  0.3716 -0.1875
 4001SOL    HW113444   3.983   0.553   2.139  0.8765  0.4913 -0.8939
 4001SOL    HW213445   4.130   0.574   2.169  1.1208 -1.0846 -0.8881
 4002SOL     OW13446   2.303   0.150   0.291  0.0266 -0.4269  0.5215
 4002SOL    HW113447   2.226   0.138   0.346 -3.9808 -0.6410 -4.3529
 4002SOL    HW213448   2.331   0.062   0.269 -0.4422 -0.4199 -0.1474
 4003SOL     OW13449   2.195   6.638  12.008 -0.1382 -0.2164 -0.1088
 4003SOL    HW113450   2.220   6.588  11.930  1.3721 -1.0601  0.8667
 4003SOL    HW213451   2.173   6.571  12.073  1.1325  0.3627  0.9684
 4004SOL     OW13452   4.414   0.156   7.788  0.6015  0.1527  0.1823
 4004SOL    HW113453   4.459   0.178   7.870  1.7526  2.2038 -0.9056
 4004SOL    HW213454   4.322   0.173   7.806  1.0882  3.1714  0.4095
 4005SOL     OW13455   5.519   5.322  10.494  0.3058  0.0346  0.2506
 4005SOL    HW113456   5.552   5.265  10.424 -0.5754  0.9034 -0.8959
 4005SOL    HW213457   5.488   5.261  10.561  1.5473 -0.8123  0.0977
 4006SOL     OW13458   4.959   1.808   1.901  0.0929  0.0417  0.4799
 4006SOL    HW113459   5.031   1.779   1.844  0.0530  1.3764 -0.2984
 4006SOL    HW213460   4.969   1.756   1.981  1.3880 -0.4184  0.0444
 4007SOL     OW13461   4.129   3.032  11.243  1.1068  0.5963  0.1858
 4007SOL    HW113462   4.115   3.077  11.327 -0.1393  3.2653 -1.3127
 4007SOL    HW213463   4.212   3.066  11.211  0.6822  1.0272 -0.4753
 4008SOL     OW13464   6.316   2.345  11.857  0.6216 -0.0840  0.7071
 4008SOL    HW113465   6.221   2.351  11.842  0.6487  0.0934  0.6021
 4008SOL    HW213466   6.330   2.254  11.886  0.3549  0.0301  1.2007
 4009SOL     OW13467   3.193   7.237  12.386  0.1830 -0.5840  0.3520
 4009SOL    HW113468   3.143   7.201  12.460  1.2543  0.0613  1.4145
 4009SOL    HW213469   3.279   7.196  12.393 -0.1601 -1.7464 -1.5150
 4010SOL     OW13470   6.009   1.942   0.551 -0.3620 -0.2022  0.0728
 4010SOL    HW113471   6.030   2.033   0.532 -0.4578 -0.3101 -0.6020
 4010SOL    HW213472   6.069   1.916   0.620 -0.2898  0.3544  0.2165
 4011SOL     OW13473   2.696   1.091   0.865  0.5692 -0.1440  0.5156
 4011SOL    HW113474   2.713   1.184   0.850  1.8971 -0.4527 -0.0777
 4011SOL    HW213475   2.769   1.046   0.822 -0.7820 -1.5395 -0.4061
 4012SOL     OW13476   7.831   1.020   0.107 -0.0841 -0.0529 -0.2540
 4012SOL    HW113477   7.856   1.110   0.089 -0.3512  0.0657 -0.0540
 4012SOL    HW213478   7.835   1.013   0.203 -0.6609 -0.0655 -0.2231
 4013SOL     OW13479   1.018   0.875   3.101  0.2183 -0.6698  0.1316
 4013SOL    HW113480   0.931   0.916   3.105 -0.3758 -1.8327 -0.3682
 4013SOL    HW213481   1.049   0.877   3.191 -0.1193  0.1884  0.2377
 4014SOL     OW13482   1.408   3.977   8.713 -0.5317  0.4020  0.2419
 4014SOL    HW113483   1.375   3.905   8.766  0.6195 -0.5792 -0.3414
 4014SOL    HW213484   1.502   3.963   8.708  0.1126  3.2689  2.0700
 4015SOL     OW13485   3.236   5.215  10.849  0.5792 -0.4205  0.1679
 4015SOL    HW113486   3.315   5.161  10.846 -0.1829 -1.5614 -0.1328
 4015SOL    HW213487   3.195   5.200  10.764  0.1808  0.4043  0.2060
 4016SOL     OW13488   0.181   6.073   6.792 -0.1063 -0.3454 -0.0215
 4016SOL    HW113489   0.187   6.045   6.701 -2.5667 -2.1214  0.2724
 4016SOL    HW213490   0.176   6.168   6.788  0.5221 -0.3474 -1.6688
 4017SOL     OW13491   4.904   1.681   9.577  0.8029 -0.6383  0.5158
 4017SOL    HW113492   4.874   1.759   9.623 -1.1275 -0.4787 -0.9000
 4017SOL    HW213493   4.996   1.698   9.558 -0.0420  2.2532 -1.5606
 4018SOL     OW13494   4.420   2.789  11.295 -0.1422 -0.2870 -0.5169
 4018SOL    HW113495   4.325   2.803  11.295 -0.5865 -2.8732 -1.0425
 4018SOL    HW213496   4.437   2.740  11.376  0.8521  0.5141 -0.2072
 4019SOL     OW13497   6.922   3.677  12.466  0.3187  0.4751 -0.3485
 4019SOL    HW113498   6.934   3.598  12.518 -0.1246  1.2648  0.9954
 4019SOL    HW213499   6.996   3.677  12.405  0.7785 -0.5498  0.1875
 4020SOL     OW13500   5.537   5.097   8.933 -0.4744 -0.6622  0.2289
 4020SOL    HW113501   5.557   5.181   8.892 -1.3679 -0.4249  0.2457
 4020SOL    HW213502   5.469   5.059   8.877 -1.2593 -0.6231  1.1231
 4021SOL     OW13503   4.163   1.785   8.622 -0.0679 -0.1344  0.1629
 4021SOL    HW113504   4.161   1.802   8.528 -2.5930  0.3903  0.2266
 4021SOL    HW213505   4.245   1.824   8.652 -0.3920  2.0139 -1.4630
 4022SOL     OW13506   4.839   2.096   5.702 -0.0851 -0.3740 -0.4488
 4022SOL    HW113507   4.896   2.135   5.636  0.4254 -0.3980 -0.0209
 4022SOL    HW213508   4.881   2.013   5.724  0.0447 -0.1145  0.3129
 4023SOL     OW13509   1.504   1.781   4.929  0.5113  0.2138  0.2602
 4023SOL    HW113510   1.493   1.732   4.848 -0.4080 -0.5594  0.8270
 4023SOL    HW213511   1.442   1.853   4.923 -0.5789 -0.6501  0.8558
 4024SOL     OW13512   3.004   4.243   6.686  0.4316 -0.5261 -0.2034
 4024SOL    HW113513   3.013   4.187   6.609  1.0000 -1.7350  0.7171
 4024SOL    HW213514   3.012   4.184   6.761  0.3920  0.6917  0.8060
 4025SOL     OW13515   3.188   4.514   1.316  0.0206  0.6015 -0.1240
 4025SOL    HW113516   3.236   4.432   1.324 -0.8079  0.1947  0.9993
 4025SOL    HW213517   3.161   4.518   1.224  2.1354  0.8462 -0.7901
 4026SOL     OW13518   1.470   1.229  12.074 -0.1286 -0.3618  0.1795
 4026SOL    HW113519   1.472   1.188  12.160 -1.1406 -0.1816  0.3024
 4026SOL    HW213520   1.558   1.217  12.039 -0.1666 -1.8873  0.5531
 4027SOL     OW13521   7.121   3.246   9.960  0.0989 -0.6808  0.3828
 4027SOL    HW113522   7.167   3.168   9.927  0.0108 -0.9175  0.8099
 4027SOL    HW213523   7.043   3.211  10.003  1.0483 -0.5415  2.3361
 4028SOL     OW13524   6.425   2.738   8.047 -0.5498 -0.1528  0.4763
 4028SOL    HW113525   6.335   2.738   8.081 -0.3689  3.0131  1.2805
 4028SOL    HW213526   6.471   2.801   8.102  1.6341 -0.0908 -1.2813
 4029SOL     OW13527   4.390   7.164   3.435  0.2879  0.1557  0.4574
 4029SOL    HW113528   4.417   7.241   3.385 -3.5606  1.0697 -0.5509
 4029SOL    HW213529   4.303   7.142   3.401  0.5535 -3.7685  1.7678
 4030SOL     OW13530   4.001   4.511  11.040 -0.0469 -0.2662 -0.0371
 4030SOL    HW113531   3.935   4.539  10.977 -0.0972 -0.5511 -0.1115
 4030SOL    HW213532   3.952   4.468  11.110  0.1006 -1.0180 -0.3810
 4031SOL     OW13533   1.109   7.178   5.523 -0.3163 -0.5546  0.1846
 4031SOL    HW113534   1.160   7.097   5.520 -0.5996 -0.7084 -1.3364
 4031SOL    HW213535   1.042   7.161   5.589 -0.3951 -1.6005 -0.1353
 4032SOL     OW13536   3.892   4.608   0.152 -0.0216 -0.1134  0.2439
 4032SOL    HW113537   3.863   4.520   0.173 -1.6413  0.1267 -0.8039
 4032SOL    HW213538   3.842   4.632   0.074  0.7122  1.5666  0.2372
 4033SOL     OW13539   1.353   7.697   4.716  0.1753 -0.1134 -0.0871
 4033SOL    HW113540   1.298   7.681   4.793  1.9544  0.0911  1.2826
 4033SOL    HW213541   1.327   7.784   4.686 -0.4372 -0.1357  0.3566
 4034SOL     OW13542   1.626   7.142   6.872  0.1059  0.1330  0.5614
 4034SOL    HW113543   1.566   7.077   6.833 -2.2459  1.7392  1.2722
 4034SOL    HW213544   1.636   7.209   6.804  0.0475  0.4929  0.9046
 4035SOL     OW13545   1.708   3.265   2.888 -0.1780  0.0559 -0.0038
 4035SOL    HW113546   1.618   3.235   2.874 -0.1276  0.2665 -0.8119
 4035SOL    HW213547   1.716   3.343   2.833  0.7905 -0.5070 -0.6947
 4036SOL     OW13548   4.312   3.130   7.774  0.1088 -0.2097  0.3887
 4036SOL    HW113549   4.354   3.181   7.705  1.5940  0.2580  1.5760
 4036SOL    HW213550   4.362   3.049   7.778  0.8567  0.2888  1.7186
 4037SOL     OW13551   3.365   4.298   3.782  0.1664 -0.0591 -0.2578
 4037SOL    HW113552   3.372   4.243   3.859  0.1630 -1.1452 -1.0097
 4037SOL    HW213553   3.340   4.238   3.712 -0.4283  1.0033 -0.9811
 4038SOL     OW13554   2.414   0.849   6.030  0.0193  0.1734 -0.2513
 4038SOL    HW113555   2.493   0.887   6.068  1.1905 -0.8204 -1.5732
 4038SOL    HW213556   2.362   0.924   6.004 -0.1398  0.8647  1.8567
 4039SOL     OW13557   5.706   4.778   2.845  0.4760 -0.3813  0.8230
 4039SOL    HW113558   5.624   4.740   2.878  0.2503 -0.4211  0.2233
 4039SOL    HW213559   5.681   4.826   2.766  1.0774 -0.6642  0.4521
 4040SOL     OW13560   5.017   0.361   3.388 -0.3743 -0.0705  0.0874
 4040SOL    HW113561   4.975   0.432   3.437 -1.8888 -0.8488 -0.0198
 4040SOL    HW213562   4.981   0.369   3.299  1.0240  0.2565 -0.4868
 4041SOL     OW13563   4.119   1.524   7.055  0.7608  0.8461  0.7580
 4041SOL    HW113564   4.147   1.574   6.979  0.4034 -0.3069 -0.1650
 4041SOL    HW213565   4.038   1.480   7.027 -0.2329  1.5897  2.3076
 4042SOL     OW13566   1.640   5.588   2.212 -0.1725  0.1022 -0.0167
 4042SOL    HW113567   1.657   5.668   2.263 -1.8881  0.4422  0.0890
 4042SOL    HW213568   1.609   5.525   2.277  1.2670 -0.7156 -0.0845
 4043SOL     OW13569   0.600   4.285  11.242  0.0205 -0.1787  0.6602
 4043SOL    HW113570   0.507   4.309  11.243 -0.0102 -0.1938  2.8447
 4043SOL    HW213571   0.611   4.230  11.320  1.0164 -3.7302 -1.7367
 4044SOL     OW13572   0.907   6.757   1.237 -0.2675 -0.2929  1.0209
 4044SOL    HW113573   0.939   6.667   1.247  1.9038 -0.0036 -1.8821
 4044SOL    HW213574   0.986   6.811   1.245 -1.2990  1.2486  1.1674
 4045SOL     OW13575   5.507   1.592   0.316  0.2076 -0.3314  0.2080
 4045SOL    HW113576   5.593   1.553   0.333  0.7611  0.7809  0.0156
 4045SOL    HW213577   5.501   1.595   0.220  0.7069  1.1559  0.1972
 4046SOL     OW13578   1.787   1.500   9.127 -0.0748  0.5438  0.3764
 4046SOL    HW113579   1.824   1.560   9.193 -1.4168  0.6683  1.0455
 4046SOL    HW213580   1.780   1.553   9.048  1.8430  0.3101 -0.0163
 4047SOL     OW13581   5.085   0.699   6.213  0.1982  0.5197 -1.0644
 4047SOL    HW113582   5.160   0.753   6.240  0.1944 -1.1495  3.0275
 4047SOL    HW213583   5.009   0.742   6.252 -0.2853 -0.4523 -0.9066
 4048SOL     OW13584   4.185   0.168   0.868 -0.0162  0.0716  0.1200
 4048SOL    HW113585   4.210   0.231   0.935 -2.3618 -0.0570  1.2124
 4048SOL    HW213586   4.151   0.093   0.917  2.1870 -1.8843 -1.1592
 4049SOL     OW13587   1.638   4.173   8.910 -0.4411 -0.1560  0.2494
 4049SOL    HW113588   1.670   4.222   8.834 -3.4236 -0.7782 -1.5911
 4049SOL    HW213589   1.646   4.081   8.884 -0.7648 -0.4102  1.0329
 4050SOL     OW13590   2.318   5.976  10.860  0.1772 -0.5745  0.6705
 4050SOL    HW113591   2.329   6.060  10.905 -1.2952 -0.6424  1.2363
 4050SOL    HW213592   2.360   5.912  10.918 -0.7701 -0.5190  1.4554
 4051SOL     OW13593   4.300   4.257   9.268  0.7050  0.3512  0.0350
 4051SOL    HW113594   4.237   4.185   9.261 -0.7251  1.5487 -0.1566
 4051SOL    HW213595   4.365   4.240   9.200  0.3124 -0.6731 -0.0938
 4052SOL     OW13596   5.765   3.611   2.182  0.3678 -0.1850 -0.2244
 4052SOL    HW113597   5.700   3.558   2.228  0.7356 -1.8912 -1.5719
 4052SOL    HW213598   5.749   3.701   2.213  0.0232 -1.0995  2.4752
 4053SOL     OW13599   5.776   4.635   0.671  0.1269  0.0491 -0.4273
 4053SOL    HW113600   5.684   4.652   0.651 -0.3143  1.1502  2.1911
 4053SOL    HW213601   5.774   4.587   0.754  1.9299  1.6017  0.5769
 4054SOL     OW13602   0.722   7.715   9.710  0.1825  0.5392  0.9352
 4054SOL    HW113603   0.758   7.634   9.746 -0.6966  0.0200  0.6611
 4054SOL    HW213604   0.766   7.725   9.626 -0.1632  0.0085  0.6874
 4055SOL     OW13605   3.724   2.560   0.947 -0.1101  0.2082  0.3425
 4055SOL    HW113606   3.792   2.616   0.985 -0.5470  1.1653 -0.2632
 4055SOL    HW213607   3.665   2.540   1.020 -0.5342  1.4187  0.3481
 4056SOL     OW13608   6.160   2.044   2.868 -0.6738 -0.2796  0.1578
 4056SOL    HW113609   6.187   2.070   2.957 -0.6785  0.3124 -0.0055
 4056SOL    HW213610   6.073   2.082   2.858 -0.2759  0.5042 -0.4497
 4057SOL     OW13611   7.196   5.580   7.602  0.1379 -0.1639 -0.1486
 4057SOL    HW113612   7.219   5.644   7.534  0.5853  1.4069  1.4279
 4057SOL    HW213613   7.271   5.522   7.607 -1.0556 -2.2293 -3.0180
 4058SOL     OW13614   2.012   3.973   3.356 -0.4031 -0.0999 -0.0668
 4058SOL    HW113615   1.962   3.999   3.434  1.0716 -0.2710  0.9868
 4058SOL    HW213616   2.003   3.878   3.352 -1.2347 -0.0088 -0.6719
 4059SOL     OW13617   5.453   4.831   2.184  0.1609  0.0109 -0.5903
 4059SOL    HW113618   5.473   4.766   2.116  0.0979 -1.1573  0.4784
 4059SOL    HW213619   5.363   4.858   2.165 -0.5742 -1.7653  0.1279
 4060SOL     OW13620   1.530   0.865   6.233  0.2204 -0.0238  0.3082
 4060SOL    HW113621   1.486   0.780   6.226 -0.2616  0.1841  0.7390
 4060SOL    HW213622   1.620   0.844   6.256  0.1742 -0.4290  0.1316
 4061SOL     OW13623   1.395   4.338   7.735  0.0358  0.4975  0.5184
 4061SOL    HW113624   1.479   4.298   7.713  0.1247  1.2286 -0.5374
 4061SOL    HW213625   1.363   4.288   7.810  0.0948 -1.5887 -0.7955
 4062SOL     OW13626   1.645   2.761   0.077  0.1081  0.0407 -0.0760
 4062SOL    HW113627   1.645   2.841   0.024 -0.1708  0.4005  0.4436
 4062SOL    HW213628   1.588   2.783   0.151  0.1862 -0.5784  0.1702
 4063SOL     OW13629   1.332   3.864   6.955  0.3439  0.6025  0.4299
 4063SOL    HW113630   1.260   3.868   6.892  0.1996  0.9140  0.6132
 4063SOL    HW213631   1.289   3.857   7.040  0.5443 -0.4434  0.4550
 4064SOL     OW13632   0.377   6.690   7.517  0.3340 -0.3283  0.3013
 4064SOL    HW113633   0.334   6.747   7.581  1.9296  0.6360  0.5518
 4064SOL    HW213634   0.346   6.723   7.433 -1.8068 -1.6274  0.4949
 4065SOL     OW13635   0.494   2.265   9.637  0.0411 -0.4342 -0.0061
 4065SOL    HW113636   0.496   2.201   9.566 -0.3165  0.0283 -0.4355
 4065SOL    HW213637   0.583   2.264   9.672  0.4269 -0.1553 -0.9299
 4066SOL     OW13638   1.000   5.532  10.715  0.2422  0.3076 -0.2580
 4066SOL    HW113639   0.975   5.441  10.696 -0.5897  0.3513  0.5855
 4066SOL    HW213640   0.939   5.585  10.664  0.7307  0.4025 -0.7528
 4067SOL     OW13641   6.944   0.324   2.983  0.2867  0.3617  0.1092
 4067SOL    HW113642   6.890   0.249   3.008  0.3450  0.1308 -0.4576
 4067SOL    HW213643   6.940   0.382   3.059  2.1141 -1.2484  1.5607
 4068SOL     OW13644   4.667   7.557   1.578 -0.0610 -0.6957  0.0662
 4068SOL    HW113645   4.613   7.479   1.564  2.0113 -2.0921 -0.6880
 4068SOL    HW213646   4.624   7.625   1.526  0.7498 -2.6838 -3.5281
 4069SOL     OW13647   0.566   6.725  10.937 -0.6404 -0.2015  0.6110
 4069SOL    HW113648   0.491   6.734  10.877  0.2236 -0.5615 -0.5458
 4069SOL    HW213649   0.551   6.793  11.003 -1.3433  0.5778 -0.3125
 4070SOL     OW13650   1.042   3.149   9.747 -0.3019  0.2088  0.0160
 4070SOL    HW113651   1.113   3.087   9.764 -0.9355 -0.1139  1.6373
 4070SOL    HW213652   0.970   3.094   9.713 -1.7904 -0.5106  3.8708
 4071SOL     OW13653   0.365   6.578   4.161  0.1587 -0.3677  0.3863
 4071SOL    HW113654   0.457   6.579   4.186 -0.4038  0.1605  2.7073
 4071SOL    HW213655   0.361   6.633   4.083  1.8207 -0.4938  0.1810
 4072SOL     OW13656   3.699   4.058   7.305 -0.4049  0.2750 -0.5291
 4072SOL    HW113657   3.660   4.016   7.382 -0.1514  1.1291  0.0706
 4072SOL    HW213658   3.706   3.987   7.241  0.8068 -0.8286  0.7582
 4073SOL     OW13659   3.630   0.540  11.796 -0.5291  0.2797  0.0131
 4073SOL    HW113660   3.673   0.456  11.814  1.4945  1.1630 -0.4877
 4073SOL    HW213661   3.596   0.531  11.707  4.0861  1.5705 -2.1705
 4074SOL     OW13662   4.142   5.131  10.408  0.1637  0.3718 -0.5970
 4074SOL    HW113663   4.104   5.162  10.491  1.0168 -0.6624  0.2112
 4074SOL    HW213664   4.167   5.211  10.362 -0.5175  0.9783  0.0505
 4075SOL     OW13665   1.045   7.882   4.941  0.5294 -0.2632  0.1156
 4075SOL    HW113666   0.982   7.880   4.869  0.5581 -0.6511  0.1000
 4075SOL    HW213667   1.003   7.936   5.008 -0.7542 -2.2078  0.9493
 4076SOL     OW13668   0.459   1.989  10.760  0.5116 -0.0550  0.3780
 4076SOL    HW113669   0.438   2.041  10.837 -0.6042 -1.0748  0.7835
 4076SOL    HW213670   0.495   2.052  10.698 -0.9288  1.2268  0.7927
 4077SOL     OW13671   7.856   1.019   5.086 -0.0723 -0.4898  0.6641
 4077SOL    HW113672   7.871   1.078   5.012 -1.1298  1.5087  1.9536
 4077SOL    HW213673   7.940   1.014   5.131  0.3710 -1.0837 -0.2143
 4078SOL     OW13674   6.951   5.478  11.620  0.0383  0.0049 -0.1859
 4078SOL    HW113675   6.923   5.390  11.595  2.7053 -1.4144  1.3901
 4078SOL    HW213676   6.918   5.489  11.710 -0.0726  0.5423 -0.2857
 4079SOL     OW13677   4.331   5.602   4.198  0.3309  0.3028 -0.3048
 4079SOL    HW113678   4.358   5.628   4.286 -0.8182 -2.7154  1.0818
 4079SOL    HW213679   4.287   5.679   4.163  0.1972  1.3939  2.0344
 4080SOL     OW13680   2.237   3.925   5.913  0.1721  0.7405 -0.1707
 4080SOL    HW113681   2.296   4.000   5.906 -1.2287  1.8813 -0.2665
 4080SOL    HW213682   2.238   3.902   6.006  1.5128  0.0637 -0.3126
 4081SOL     OW13683   4.866   4.225  12.085 -0.3069  0.2635  0.2666
 4081SOL    HW113684   4.810   4.148  12.089 -0.0912 -0.0620 -1.8811
 4081SOL    HW213685   4.817   4.293  12.132  0.3859 -1.5908  4.0290
 4082SOL     OW13686   4.308   1.364  10.883  0.2470  0.1038  0.0189
 4082SOL    HW113687   4.216   1.338  10.875  0.1705  0.1680  0.6511
 4082SOL    HW213688   4.346   1.344  10.797 -0.5834  0.9887 -0.5764
 4083SOL     OW13689   4.617   2.139   3.740  0.6823 -0.0229  0.2442
 4083SOL    HW113690   4.654   2.052   3.759  1.8422 -0.3251 -2.8446
 4083SOL    HW213691   4.522   2.125   3.740  0.8668 -1.7931 -1.9556
 4084SOL     OW13692   4.489   0.160   4.767  0.1495  0.0786  0.4269
 4084SOL    HW113693   4.474   0.236   4.824 -0.4835 -0.1947  0.6334
 4084SOL    HW213694   4.584   0.149   4.767  0.2276  0.7157  0.6024
 4085SOL     OW13695   5.781   0.919   0.688 -0.1798  0.4499  0.1718
 4085SOL    HW113696   5.851   0.934   0.624  0.6502 -2.4663  0.2458
 4085SOL    HW213697   5.827   0.896   0.769 -1.2288  0.3903  0.7624
 4086SOL     OW13698   4.447   6.515   0.189  0.0696 -0.4328  0.1570
 4086SOL    HW113699   4.521   6.498   0.131  1.2963 -1.5358  1.9234
 4086SOL    HW213700   4.471   6.596   0.234 -1.2381  0.8486 -1.3407
 4087SOL     OW13701   3.180   1.489   7.254  0.1008 -0.2586 -0.6634
 4087SOL    HW113702   3.273   1.503   7.272 -0.3138  0.7692  0.8800
 4087SOL    HW213703   3.169   1.394   7.259  1.4315 -0.6300 -3.0410
 4088SOL     OW13704   4.661   7.946   9.236 -0.4335 -0.0598  0.0512
 4088SOL    HW113705   4.693   7.966   9.148  0.0967  1.7283  0.6141
 4088SOL    HW213706   4.569   7.921   9.222 -0.4232  0.4183 -0.9891
 4089SOL     OW13707   1.134   4.362   7.573 -0.1181  0.4836  0.4828
 4089SOL    HW113708   1.193   4.316   7.632 -1.1300 -0.3617  0.8575
 4089SOL    HW213709   1.121   4.447   7.614 -0.6900 -0.0385  1.4144
 4090SOL     OW13710   4.797   4.080  10.213  0.2660  0.4930 -0.3451
 4090SOL    HW113711   4.714   4.051  10.251  0.6157  0.5674  0.4891
 4090SOL    HW213712   4.815   4.016  10.144 -0.4439  0.4306 -0.4811
 4091SOL     OW13713   5.038   7.646   3.523 -0.0136  0.1195  0.2516
 4091SOL    HW113714   4.962   7.705   3.522 -0.0712  0.0601  0.6621
 4091SOL    HW213715   5.113   7.705   3.532  0.0883  0.2572 -1.2510
 4092SOL     OW13716   6.782   0.182  12.288  0.1396  0.0204  0.4314
 4092SOL    HW113717   6.712   0.246  12.282  0.0156 -0.0973  0.6331
 4092SOL    HW213718   6.742   0.105  12.328  0.5070  0.1281  1.0152
 4093SOL     OW13719   7.870   7.961   7.901  0.4351 -0.0842 -0.5345
 4093SOL    HW113720   7.877   7.971   7.996  0.3319 -1.8992 -0.2904
 4093SOL    HW213721   7.843   7.870   7.889 -2.2696  0.8163 -2.2235
 4094SOL     OW13722   5.895   5.864   0.808 -0.3341 -0.1563  0.5241
 4094SOL    HW113723   5.984   5.896   0.792 -1.0305  1.4140 -0.5025
 4094SOL    HW213724   5.880   5.880   0.901  0.6217 -0.9239  0.8227
 4095SOL     OW13725   4.251   5.724   5.309 -0.0501 -0.7627  0.2733
 4095SOL    HW113726   4.225   5.632   5.306 -0.6893 -0.6354  1.2703
 4095SOL    HW213727   4.186   5.769   5.254  0.1436 -0.8808 -0.0531
 4096SOL     OW13728   4.694   1.783  11.958 -0.1269  0.1230 -0.2640
 4096SOL    HW113729   4.744   1.788  11.877  0.6704 -0.5317  0.1756
 4096SOL    HW213730   4.608   1.751  11.931 -0.0300  0.4112 -0.9159
 4097SOL     OW13731   2.669   6.829   8.740  0.1726  0.5671 -0.4176
 4097SOL    HW113732   2.738   6.829   8.806 -1.0602  1.6873  0.9334
 4097SOL    HW213733   2.651   6.921   8.724 -0.5233  0.2938 -1.2934
 4098SOL     OW13734   7.676   7.980   9.863  0.5514 -0.3795 -0.0805
 4098SOL    HW113735   7.759   7.957   9.903  1.1113 -1.2232 -1.6506
 4098SOL    HW213736   7.650   8.061   9.907  2.5428  0.2881 -0.0241
 4099SOL     OW13737   3.285   2.771   3.406  0.1299 -0.5388  0.1419
 4099SOL    HW113738   3.235   2.755   3.326  1.7417 -0.5403 -0.8898
 4099SOL    HW213739   3.283   2.866   3.417  1.1567 -0.3881 -0.7689
 4100SOL     OW13740   4.465   4.344   0.047  0.2864 -0.2213  0.6106
 4100SOL    HW113741   4.382   4.382   0.017 -0.6722 -2.7384 -0.2532
 4100SOL    HW213742   4.468   4.364   0.140 -1.1164  0.2763  0.5763
 4101SOL     OW13743   2.396   4.542   2.921  0.2068 -0.5270 -0.0802
 4101SOL    HW113744   2.343   4.580   2.851  0.0187 -0.7669 -0.0684
 4101SOL    HW213745   2.452   4.478   2.876 -0.1813 -0.9561  0.0397
 4102SOL     OW13746   7.550   1.655   2.528 -0.0819  0.3281 -0.0808
 4102SOL    HW113747   7.540   1.562   2.510 -0.6094  0.2313  0.7090
 4102SOL    HW213748   7.644   1.671   2.516  0.1776 -0.5053  0.7276
 4103SOL     OW13749   2.658   2.209   5.422  0.2559  0.4403  0.2132
 4103SOL    HW113750   2.631   2.118   5.434 -1.3987  0.9078  0.3169
 4103SOL    HW213751   2.753   2.204   5.409  0.0187 -1.4287 -1.2650
 4104SOL     OW13752   3.027   4.080   7.148  0.1224 -0.0483  0.0917
 4104SOL    HW113753   3.027   4.100   7.054  0.9283  0.0598  0.1092
 4104SOL    HW213754   3.024   4.166   7.190 -1.0662 -0.1194  0.1710
 4105SOL     OW13755   1.641   2.380   4.816  0.5582 -0.4349  0.0431
 4105SOL    HW113756   1.591   2.353   4.893  0.7661 -0.3401  0.2133
 4105SOL    HW213757   1.621   2.314   4.750  0.8986 -0.8997  0.3918
 4106SOL     OW13758   4.426   3.691   5.311 -0.3290 -0.3774  0.2171
 4106SOL    HW113759   4.332   3.702   5.326 -0.4670 -0.0568 -0.8287
 4106SOL    HW213760   4.467   3.756   5.368 -0.7907  0.0821  0.0287
 4107SOL     OW13761   5.987   2.768   1.906 -0.6622  0.7548 -0.3242
 4107SOL    HW113762   6.050   2.805   1.844 -1.0733  0.7768 -0.7355
 4107SOL    HW213763   6.011   2.675   1.912 -0.8937  0.6578 -0.8597
 4108SOL     OW13764   0.382   6.086   3.456 -0.4821 -0.5407  0.1834
 4108SOL    HW113765   0.474   6.065   3.466 -0.2340  0.6423  0.4766
 4108SOL    HW213766   0.338   6.001   3.453  0.4574 -1.1064  1.4906
 4109SOL     OW13767   6.831   0.884   4.559  0.0739  0.1080  0.2964
 4109SOL    HW113768   6.759   0.883   4.622  1.6263  1.7344  2.2317
 4109SOL    HW213769   6.835   0.974   4.528  1.5926  0.2043  0.6683
 4110SOL     OW13770   2.673   3.270   3.999  0.1491  0.1469  0.3020
 4110SOL    HW113771   2.706   3.242   4.084  3.7730 -1.8768 -1.5290
 4110SOL    HW213772   2.734   3.338   3.971 -0.2147 -0.1012 -1.1574
 4111SOL     OW13773   3.140   1.391   6.137  0.2690  0.3695  0.3100
 4111SOL    HW113774   3.194   1.344   6.073 -0.0526  0.5322 -0.0805
 4111SOL    HW213775   3.064   1.334   6.150 -0.1924  0.8477 -0.2731
 4112SOL     OW13776   0.535   5.146  12.379  0.0569  0.3343  0.0840
 4112SOL    HW113777   0.574   5.155  12.292  0.0490  0.2346  0.0697
 4112SOL    HW213778   0.520   5.236  12.409 -1.3790  0.3730 -0.6617
 4113SOL     OW13779   3.539   3.939   4.830  0.0927 -0.1732  0.2487
 4113SOL    HW113780   3.548   3.958   4.924  0.7304  0.9949 -0.0379
 4113SOL    HW213781   3.445   3.936   4.816 -0.0171 -0.9034  1.0257
 4114SOL     OW13782   0.086   2.120   7.288 -0.2653 -0.1206 -0.1791
 4114SOL    HW113783   0.179   2.110   7.264 -0.2995  0.4995 -0.5772
 4114SOL    HW213784   0.046   2.159   7.211 -0.8874 -0.4814 -0.0442
 4115SOL     OW13785   7.760   5.144   8.828  0.1602  0.1069  0.0305
 4115SOL    HW113786   7.707   5.224   8.820  1.5250  1.2300  1.5492
 4115SOL    HW213787   7.833   5.157   8.768 -0.7473 -1.0382 -1.3854
 4116SOL     OW13788   3.516   5.142   3.770  0.3030  0.2569 -0.0817
 4116SOL    HW113789   3.585   5.129   3.835 -0.4708 -2.4810  0.3372
 4116SOL    HW213790   3.451   5.197   3.814  0.8522  0.3327  0.6379
 4117SOL     OW13791   0.495   1.172   3.720  0.5467  0.2193  0.3035
 4117SOL    HW113792   0.576   1.221   3.704  0.8608  0.3261  1.9659
 4117SOL    HW213793   0.486   1.172   3.816 -0.4355 -1.3877  0.2548
 4118SOL     OW13794   2.002   3.441   6.675  0.4631 -0.1075  0.5120
 4118SOL    HW113795   1.942   3.370   6.651  2.2048 -2.3377  2.4032
 4118SOL    HW213796   1.952   3.494   6.738 -0.4007 -0.3780  0.0784
 4119SOL     OW13797   5.444   5.058   6.261  0.4713  0.6807 -0.4261
 4119SOL    HW113798   5.494   5.104   6.194  0.9300  0.8794  0.0520
 4119SOL    HW213799   5.510   5.021   6.320  0.1308 -0.7456 -0.8834
 4120SOL     OW13800   7.544   6.688   5.337 -0.1731 -0.3467  0.2835
 4120SOL    HW113801   7.538   6.782   5.355  0.5439 -0.0675 -0.8171
 4120SOL    HW213802   7.632   6.676   5.300 -0.6975 -1.2409 -0.7464
 4121SOL     OW13803   0.153   3.352  10.037 -0.3313  0.2299 -0.1106
 4121SOL    HW113804   0.213   3.284  10.067 -1.3755 -0.6914 -0.0318
 4121SOL    HW213805   0.207   3.431  10.030  0.8391 -0.5304  0.0925
 4122SOL     OW13806   2.807   7.905   7.284 -0.7453  0.1424  0.2887
 4122SOL    HW113807   2.897   7.914   7.313 -0.3223  1.1228 -1.2103
 4122SOL    HW213808   2.809   7.835   7.219 -1.1233 -0.0222  0.4489
 4123SOL     OW13809   5.278   1.413   3.095  0.6608 -0.0204 -0.4374
 4123SOL    HW113810   5.189   1.415   3.060  0.2080 -2.1723  0.4872
 4123SOL    HW213811   5.302   1.506   3.102 -0.7441  0.5823 -2.4925
 4124SOL     OW13812   1.141   6.494  10.855 -0.3546 -0.6143 -0.3089
 4124SOL    HW113813   1.232   6.480  10.830 -0.4257  0.1049 -1.0162
 4124SOL    HW213814   1.099   6.526  10.776 -0.7765  0.9802  0.5098
 4125SOL     OW13815   4.150   1.844   1.084 -0.2265  0.3284  0.0436
 4125SOL    HW113816   4.220   1.854   1.148 -1.4877  0.8838  1.4170
 4125SOL    HW213817   4.119   1.933   1.068 -2.5703 -0.0417  1.8476
 4126SOL     OW13818   4.772   3.127  11.234  0.5759 -0.3226 -0.0440
 4126SOL    HW113819   4.855   3.084  11.250 -0.2327 -0.8958  3.2262
 4126SOL    HW213820   4.782   3.214  11.273  0.0596  0.1153 -0.8473
 4127SOL     OW13821   5.810   0.548  12.424  0.4185 -0.2231 -0.0293
 4127SOL    HW113822   5.865   0.541  12.346  1.3721  0.5951  0.5517
 4127SOL    HW213823   5.843   0.625  12.470 -0.4638 -0.3985  0.9305
 4128SOL     OW13824   1.875   0.715   7.016 -1.0168  0.4700 -0.3516
 4128SOL    HW113825   1.949   0.697   6.958  0.1081  1.2264  0.7782
 4128SOL    HW213826   1.805   0.657   6.985  0.2659 -0.7895 -1.0375
 4129SOL     OW13827   2.255   7.024   8.234 -0.0929  0.2810  0.2766
 4129SOL    HW113828   2.198   7.101   8.230 -0.4170  0.1509  1.6753
 4129SOL    HW213829   2.301   7.033   8.318  1.3660 -0.0361 -0.4575
 4130SOL     OW13830   3.446   3.972  10.379 -0.0625  0.6738  0.0117
 4130SOL    HW113831   3.454   3.880  10.357 -1.6949  0.3777  0.5142
 4130SOL    HW213832   3.391   4.009  10.309  1.3980  1.5135 -0.7442
 4131SOL     OW13833   2.693   3.822   8.799 -0.4227  0.5929  0.4650
 4131SOL    HW113834   2.722   3.775   8.721 -1.0379  2.8575 -1.2448
 4131SOL    HW213835   2.687   3.755   8.867 -0.5101 -1.6049 -1.5839
 4132SOL     OW13836   5.071   5.162   7.420  0.2086  0.4061 -0.1854
 4132SOL    HW113837   5.134   5.096   7.392 -1.0156  0.0589 -2.3730
 4132SOL    HW213838   5.022   5.120   7.490  0.4842 -0.4393 -0.4844
 4133SOL     OW13839   2.771   2.771  10.241  0.2481 -0.2364 -0.1189
 4133SOL    HW113840   2.847   2.771  10.300  0.4583 -2.3650 -0.3440
 4133SOL    HW213841   2.803   2.729  10.161 -1.2082 -1.3765 -0.1350
 4134SOL     OW13842   2.236   1.438   6.442 -0.8358 -0.0751  0.4659
 4134SOL    HW113843   2.228   1.347   6.413 -2.9756  0.0148  0.6596
 4134SOL    HW213844   2.275   1.432   6.529  0.8388 -0.6541 -0.2828
 4135SOL     OW13845   0.656   7.864   6.017  0.5030  0.0641 -1.0006
 4135SOL    HW113846   0.711   7.836   5.944  0.2256  0.3327 -1.3175
 4135SOL    HW213847   0.577   7.811   6.010  0.2592  0.4431 -1.2063
 4136SOL     OW13848   6.143   3.310   2.571 -0.0870 -0.0385  0.0048
 4136SOL    HW113849   6.101   3.376   2.517 -0.4087 -1.5855 -1.7148
 4136SOL    HW213850   6.104   3.322   2.658  0.1458  2.2222 -0.1382
 4137SOL     OW13851   0.178   0.164  12.167 -0.0360  0.4582 -0.0761
 4137SOL    HW113852   0.246   0.101  12.191 -0.1429  0.8612  1.3423
 4137SOL    HW213853   0.103   0.110  12.142  0.5350  0.0215 -0.8854
 4138SOL     OW13854   6.637   0.781   9.631 -0.4719 -0.1474  0.4315
 4138SOL    HW113855   6.721   0.820   9.654 -0.0901 -0.9976  0.4991
 4138SOL    HW213856   6.638   0.694   9.671 -0.8209 -0.6849 -0.6755
 4139SOL     OW13857   1.811   4.726  11.201 -0.5544  1.0156 -0.0007
 4139SOL    HW113858   1.857   4.683  11.129 -1.3105  2.2506 -1.2894
 4139SOL    HW213859   1.838   4.679  11.279 -1.7440 -2.1605 -1.3291
 4140SOL     OW13860   4.800   0.040   7.208 -0.7451  0.4038  0.0349
 4140SOL    HW113861   4.878   0.024   7.261 -0.0404 -0.2950 -1.1453
 4140SOL    HW213862   4.831   0.097   7.137 -1.6507  1.3056  0.3540
 4141SOL     OW13863   0.862   4.779   8.484 -0.6292  0.4898  0.2694
 4141SOL    HW113864   0.945   4.764   8.530 -0.1882 -0.3486 -0.7615
 4141SOL    HW213865   0.795   4.767   8.551  0.0396  0.1626  0.8945
 4142SOL     OW13866   2.065   1.068  11.236 -0.2508  0.6015  0.2000
 4142SOL    HW113867   2.015   1.098  11.160 -0.4795  0.4134  0.2750
 4142SOL    HW213868   2.022   0.987  11.263  0.0727  0.4579  0.2895
 4143SOL     OW13869   4.547   6.250   9.762 -0.1537  0.7844  0.4311
 4143SOL    HW113870   4.574   6.330   9.716  0.5451  0.4148  0.1808
 4143SOL    HW213871   4.618   6.233   9.824 -0.1321  0.1698  0.2441
 4144SOL     OW13872   2.048   5.354   0.837 -1.1492  0.2826  0.9150
 4144SOL    HW113873   2.035   5.273   0.789  2.9019  0.5072 -0.9217
 4144SOL    HW213874   2.079   5.326   0.924 -3.0145 -0.0556  1.5199
 4145SOL     OW13875   7.628   4.859   1.618 -0.1819 -0.2418  0.5137
 4145SOL    HW113876   7.653   4.916   1.546 -1.1170 -0.5344 -0.0669
 4145SOL    HW213877   7.705   4.805   1.635 -0.0458 -0.3606 -0.4658
 4146SOL     OW13878   1.020   6.847   2.946 -0.2602 -0.4576  0.3864
 4146SOL    HW113879   1.086   6.779   2.935  0.2274  0.2641 -1.5138
 4146SOL    HW213880   0.937   6.800   2.944  0.0628 -1.0329 -1.0086
 4147SOL     OW13881   3.171   2.834   0.819  0.0908 -0.1495  0.2676
 4147SOL    HW113882   3.176   2.852   0.913  1.1157  1.1709 -0.0059
 4147SOL    HW213883   3.249   2.781   0.800 -0.4889 -1.0251  0.2646
 4148SOL     OW13884   7.615   0.697  11.638 -0.3236  0.7908  0.2247
 4148SOL    HW113885   7.654   0.759  11.699 -0.6476  1.3221 -0.1020
 4148SOL    HW213886   7.531   0.673  11.677 -1.3964  2.5631 -0.8760
 4149SOL     OW13887   3.854   3.377   4.480  0.0373 -0.3163 -0.1492
 4149SOL    HW113888   3.901   3.401   4.560 -1.7839 -1.4134  1.3085
 4149SOL    HW213889   3.909   3.310   4.439  1.7729  1.3662 -0.7257
 4150SOL     OW13890   3.628   2.369   2.777  0.1138  0.0578 -0.3633
 4150SOL    HW113891   3.556   2.333   2.724 -0.1397  0.4844 -0.3140
 4150SOL    HW213892   3.591   2.378   2.865  0.3592 -0.1132 -0.2412
 4151SOL     OW13893   5.316   1.593   7.666 -0.0881 -0.2346 -0.4159
 4151SOL    HW113894   5.323   1.528   7.736 -1.3628 -0.3532 -0.3753
 4151SOL    HW213895   5.381   1.566   7.601 -0.8513 -1.7571 -0.5660
 4152SOL     OW13896   4.575   7.569   7.619  1.0602  0.0881  0.0517
 4152SOL    HW113897   4.606   7.642   7.566 -0.7997  1.0328  0.2004
 4152SOL    HW213898   4.639   7.500   7.603  2.2586  1.3637 -0.9663
 4153SOL     OW13899   2.680   3.984  10.074 -0.4751  0.2132  0.5242
 4153SOL    HW113900   2.722   4.070  10.079  0.0047  0.0086  0.1493
 4153SOL    HW213901   2.742   3.930  10.024 -0.7261 -0.3770  0.8420
 4154SOL     OW13902   0.265   6.307   2.882 -0.0051 -0.2367  0.0569
 4154SOL    HW113903   0.266   6.360   2.962 -1.9950 -2.0294  1.3888
 4154SOL    HW213904   0.347   6.259   2.884  1.8672  2.6445 -1.2033
 4155SOL     OW13905   6.405   4.228   6.067 -0.6870  0.4852 -0.2127
 4155SOL    HW113906   6.475   4.194   6.011  0.9428  1.3054  1.2027
 4155SOL    HW213907   6.349   4.153   6.085  0.0385 -0.2840 -1.0929
 4156SOL     OW13908   5.282   4.925   4.321 -0.3777 -0.6747  0.4751
 4156SOL    HW113909   5.356   4.936   4.381 -0.1792  0.5164  0.0467
 4156SOL    HW213910   5.205   4.944   4.374 -0.1631  1.0197  0.2451
 4157SOL     OW13911   2.020   3.701   4.367 -0.4580  1.0398  0.3115
 4157SOL    HW113912   2.031   3.752   4.287 -0.5999  3.4324  1.7429
 4157SOL    HW213913   1.953   3.748   4.417 -0.3785 -0.3879  1.8670
 4158SOL     OW13914   1.311   1.115   8.252  0.1825  0.2455  0.1456
 4158SOL    HW113915   1.289   1.052   8.321 -0.3968  1.5778  1.2252
 4158SOL    HW213916   1.235   1.114   8.194  0.7363 -0.9931 -0.5910
 4159SOL     OW13917   6.512   3.342  11.374 -0.0260  0.2056  0.2067
 4159SOL    HW113918   6.560   3.291  11.309 -0.1563 -0.0335  0.2979
 4159SOL    HW213919   6.552   3.429  11.370  2.3010 -0.6527  2.2236
 4160SOL     OW13920   2.321   4.983   3.875 -0.1604 -0.9739 -0.5565
 4160SOL    HW113921   2.321   4.967   3.969 -1.2783  0.3170 -0.2909
 4160SOL    HW213922   2.403   5.029   3.858  0.0967 -1.3113 -0.2215
 4161SOL     OW13923   0.146   1.063   7.768 -0.3950 -0.4421 -0.4616
 4161SOL    HW113924   0.192   1.147   7.758  0.2634 -0.8602 -0.9935
 4161SOL    HW213925   0.201   1.000   7.722 -0.2578 -1.4054  0.9665
 4162SOL     OW13926   7.857   6.509  10.403 -0.2176  0.1957  0.1073
 4162SOL    HW113927   7.835   6.416  10.407  0.6894  0.0152  1.7188
 4162SOL    HW213928   7.808   6.542  10.328  1.6888 -2.1884 -2.4221
 4163SOL     OW13929   5.547   4.092   6.236  0.4495 -0.2377 -0.1167
 4163SOL    HW113930   5.581   4.015   6.281  0.1712 -0.6680 -0.6269
 4163SOL    HW213931   5.462   4.064   6.201  0.2286  0.3801 -0.0867
 4164SOL     OW13932   7.946   5.811  11.826  0.2545  0.0377 -0.1483
 4164SOL    HW113933   7.891   5.733  11.833  0.3693 -0.2885 -2.1538
 4164SOL    HW213934   8.026   5.779  11.783  1.3934  0.7963  1.3157
 4165SOL     OW13935   0.609   3.890   5.806  0.2671 -0.1136 -0.4863
 4165SOL    HW113936   0.705   3.896   5.808  0.4048 -1.5901 -1.1003
 4165SOL    HW213937   0.588   3.876   5.713 -0.4011 -1.4096 -0.1658
 4166SOL     OW13938   0.290   4.432   3.263  0.0160  0.2510  0.0166
 4166SOL    HW113939   0.220   4.479   3.308 -0.6215 -0.7164  0.0645
 4166SOL    HW213940   0.371   4.475   3.292 -0.5181  1.0022  0.4136
 4167SOL     OW13941   7.110   4.330  12.448  0.7444  0.3962 -0.2973
 4167SOL    HW113942   7.092   4.238  12.428 -0.7268  0.8704 -1.3023
 4167SOL    HW213943   7.142   4.367  12.366 -0.0875  1.1149 -0.3095
 4168SOL     OW13944   6.724   4.143   8.437 -0.1713 -0.3603 -0.2276
 4168SOL    HW113945   6.630   4.150   8.452 -0.2434 -0.6588 -0.5404
 4168SOL    HW213946   6.739   4.049   8.424 -0.0540 -0.1550 -1.6655
 4169SOL     OW13947   6.227   2.895   0.116 -0.1991 -0.0851  0.0230
 4169SOL    HW113948   6.227   2.893   0.020 -1.5857  1.5958 -0.0589
 4169SOL    HW213949   6.247   2.986   0.138  0.3752 -0.5106  1.3559
 4170SOL     OW13950   4.149   0.798   9.777 -0.4471  0.2856 -0.0561
 4170SOL    HW113951   4.136   0.867   9.712  0.7887  1.8217  1.2238
 4170SOL    HW213952   4.122   0.838   9.860  1.7903 -0.1425  0.9760
 4171SOL     OW13953   0.588   1.419   5.269 -0.5089 -0.2167  0.1285
 4171SOL    HW113954   0.578   1.349   5.204  0.0598  0.2714 -0.4976
 4171SOL    HW213955   0.512   1.409   5.326 -1.0960 -0.5699 -0.6961
 4172SOL     OW13956   0.804   6.738   0.936  0.6077  0.2301  0.2480
 4172SOL    HW113957   0.825   6.820   0.891  0.2537  0.3754  0.3391
 4172SOL    HW213958   0.836   6.749   1.025  3.4614 -0.9542 -0.5160
 4173SOL     OW13959   0.733   4.622   7.071 -0.1383  0.2448 -0.4990
 4173SOL    HW113960   0.699   4.545   7.025  0.4154 -0.3705  0.1167
 4173SOL    HW213961   0.710   4.608   7.163  1.0706  0.2095 -0.1918
 4174SOL     OW13962   2.189   4.127   8.306 -0.3321 -0.2725  0.0649
 4174SOL    HW113963   2.166   4.132   8.213 -0.1516 -2.2301 -0.1101
 4174SOL    HW213964   2.104   4.121   8.351 -0.3816 -0.8958 -0.1021
 4175SOL     OW13965   2.956   5.669   4.213  0.1911 -0.3658 -0.2131
 4175SOL    HW113966   2.984   5.608   4.145 -1.2007  0.8746 -1.9699
 4175SOL    HW213967   2.968   5.620   4.295  0.2326 -2.5487 -1.4511
 4176SOL     OW13968   4.947   4.771   7.606 -0.2202 -0.0176  0.3007
 4176SOL    HW113969   4.990   4.811   7.530  1.2735 -2.8668 -0.4981
 4176SOL    HW213970   4.858   4.750   7.576  0.0513 -0.2412 -0.3567
 4177SOL     OW13971   0.634   2.027  12.426  0.8875  0.2625 -0.5863
 4177SOL    HW113972   0.582   2.105  12.444  0.2356 -0.1207 -0.7263
 4177SOL    HW213973   0.674   2.043  12.341  0.2341  0.1902 -0.9143
 4178SOL     OW13974   5.333   3.434   7.870  0.0404 -0.0136  0.2121
 4178SOL    HW113975   5.295   3.436   7.958 -0.1812 -1.3574  0.1619
 4178SOL    HW213976   5.388   3.512   7.866 -1.1244  0.8981  1.0036
 4179SOL     OW13977   1.583   0.001   0.367 -0.0177  0.0484  0.2698
 4179SOL    HW113978   1.574   0.035   0.456 -2.5140 -1.2069  0.5765
 4179SOL    HW213979   1.605   0.078   0.314  0.9516  0.9122  1.8408
 4180SOL     OW13980   1.231   0.916  11.169  0.1141  0.5229  0.0503
 4180SOL    HW113981   1.285   0.953  11.239  1.4986 -0.3185 -0.5372
 4180SOL    HW213982   1.245   0.821  11.176 -1.5720  0.2349  0.0843
 4181SOL     OW13983   5.857   7.911  12.266  0.3800  0.4024 -0.1276
 4181SOL    HW113984   5.917   7.847  12.304 -0.2683 -1.9515 -2.7346
 4181SOL    HW213985   5.910   7.958  12.201  0.0365  0.1393 -0.6001
 4182SOL     OW13986   5.275   1.542  11.210 -0.2380  0.3403 -0.1244
 4182SOL    HW113987   5.330   1.465  11.220  0.9268  1.0401 -0.9240
 4182SOL    HW213988   5.207   1.533  11.277  1.0564 -0.3667  1.1206
 4183SOL     OW13989   3.755   0.127   4.107  0.5847  0.0244  0.1540
 4183SOL    HW113990   3.694   0.115   4.180 -0.4125  1.3013 -0.4333
 4183SOL    HW213991   3.784   0.038   4.086 -1.3992 -0.6852  0.2072
 4184SOL     OW13992   3.101   7.306   2.637  0.3904 -0.3318  0.3568
 4184SOL    HW113993   3.051   7.291   2.717 -0.3076 -0.5256 -0.1084
 4184SOL    HW213994   3.043   7.358   2.582  1.0509  0.2063  0.1591
 4185SOL     OW13995   7.457   3.103   3.970 -0.5863 -0.7976  0.1315
 4185SOL    HW113996   7.412   3.019   3.971  1.0977 -1.7741 -0.8341
 4185SOL    HW213997   7.512   3.100   3.892 -0.6179  1.2939 -0.0256
 4186SOL     OW13998   0.761   4.175   6.474 -0.0835  0.0828 -0.0744
 4186SOL    HW113999   0.771   4.102   6.412  1.5476 -0.5737  0.8811
 4186SOL    HW214000   0.812   4.246   6.435  3.0389 -1.0775  1.4976
 4187SOL     OW14001   4.976   4.039   1.381 -0.2093  0.2437 -0.6372
 4187SOL    HW114002   4.900   3.999   1.424 -0.4910  1.8157  0.4225
 4187SOL    HW214003   5.051   3.990   1.416 -0.6676 -1.0421 -1.3671
 4188SOL     OW14004   4.202   1.195   6.470 -0.1962  0.1856  0.0278
 4188SOL    HW114005   4.259   1.119   6.481 -2.0725 -1.0857  1.6521
 4188SOL    HW214006   4.181   1.196   6.377  2.0206  0.4193 -0.5306
 4189SOL     OW14007   6.120   6.545  10.778 -0.0690 -0.2618 -0.5072
 4189SOL    HW114008   6.193   6.487  10.752  0.4513 -0.1369  0.6233
 4189SOL    HW214009   6.051   6.485  10.806  0.8671 -0.3749  1.7261
 4190SOL     OW14010   7.823   6.413  12.192  0.0471 -0.2578 -0.0137
 4190SOL    HW114011   7.818   6.378  12.281 -0.8771 -0.0460  0.0316
 4190SOL    HW214012   7.916   6.407  12.169 -0.0237 -2.5194  0.0810
 4191SOL     OW14013   5.469   2.099  10.054 -0.0045 -0.2804 -0.6049
 4191SOL    HW114014   5.395   2.127  10.108  0.9613 -0.4190  0.8398
 4191SOL    HW214015   5.467   2.004  10.058 -0.2385 -0.3109 -1.2800
 4192SOL     OW14016   4.024   5.949   2.732 -0.2074 -0.4774 -0.0505
 4192SOL    HW114017   4.064   5.876   2.684  0.3824  0.5616 -1.2004
 4192SOL    HW214018   3.954   5.909   2.783  0.7077 -1.9854  0.0818
 4193SOL     OW14019   3.050   7.886   6.180 -0.3633  0.6092  0.3992
 4193SOL    HW114020   2.959   7.918   6.182 -0.8204 -0.3121 -2.1516
 4193SOL    HW214021   3.042   7.791   6.184  0.6219  0.5764  1.8840
 4194SOL     OW14022   5.170   0.513   0.469 -0.4976  0.5105  0.5884
 4194SOL    HW114023   5.107   0.467   0.414 -0.2271  1.0921 -0.2416
 4194SOL    HW214024   5.147   0.489   0.559 -1.7027  0.4912  0.2838
 4195SOL     OW14025   3.268   4.578   8.143  0.3334  0.3990 -0.3311
 4195SOL    HW114026   3.353   4.536   8.155 -0.0708 -0.0515  1.2535
 4195SOL    HW214027   3.231   4.537   8.065  0.9730 -0.4331 -0.2041
 4196SOL     OW14028   4.111   2.571  10.802  0.8151  0.0082 -0.3706
 4196SOL    HW114029   4.074   2.579  10.890 -1.6043 -2.3599 -1.0391
 4196SOL    HW214030   4.102   2.479  10.780  1.4408  0.5013 -3.0891
 4197SOL     OW14031   0.887   2.695   1.786 -0.2473 -0.6280  0.2398
 4197SOL    HW114032   0.830   2.619   1.796 -0.0295 -0.6832  1.0746
 4197SOL    HW214033   0.960   2.663   1.732 -0.5164 -0.8111 -0.0198
 4198SOL     OW14034   1.507   0.916   7.750  0.1670 -0.0454 -0.1973
 4198SOL    HW114035   1.571   0.983   7.727  1.1286 -1.0856 -0.6737
 4198SOL    HW214036   1.448   0.913   7.674  0.4182 -0.0721 -0.3948
 4199SOL     OW14037   0.941   4.454   8.652 -0.2823 -0.3634 -0.0652
 4199SOL    HW114038   0.989   4.536   8.639 -0.5469 -0.1702  0.1816
 4199SOL    HW214039   1.006   4.394   8.689 -0.3745  0.0682  0.8180
 4200SOL     OW14040   2.045   4.970   6.759 -0.1762 -0.6340  0.2060
 4200SOL    HW114041   2.009   4.888   6.726  1.9233 -1.4118 -0.3260
 4200SOL    HW214042   2.126   4.945   6.802  0.2757  1.1129  0.4401
 4201SOL     OW14043   6.858   7.705   6.050  0.0276 -0.4463 -0.0653
 4201SOL    HW114044   6.922   7.758   6.001  1.0892 -1.1149  0.5549
 4201SOL    HW214045   6.816   7.767   6.109  1.3892 -0.2985  0.7906
 4202SOL     OW14046   3.259   4.788   2.079  0.3302  0.6392  0.1735
 4202SOL    HW114047   3.294   4.712   2.125  0.7849  0.9740  0.3976
 4202SOL    HW214048   3.197   4.828   2.141 -0.4682  0.0372 -0.2290
 4203SOL     OW14049   0.233   2.327   1.893  0.3453  0.3687 -0.3432
 4203SOL    HW114050   0.170   2.337   1.964  0.7190 -2.1862  0.4913
 4203SOL    HW214051   0.230   2.409   1.845 -3.2505  0.5273 -0.0833
 4204SOL     OW14052   6.887   3.233   9.483 -0.0621 -0.3678  0.2250
 4204SOL    HW114053   6.842   3.236   9.398 -0.8174 -3.9170  0.3116
 4204SOL    HW214054   6.915   3.142   9.491  0.9501  0.1145  3.3369
 4205SOL     OW14055   6.009   6.349   1.567  0.2103 -0.8172 -0.1013
 4205SOL    HW114056   5.952   6.289   1.614 -2.1415  2.7676  2.0990
 4205SOL    HW214057   5.961   6.369   1.486 -1.1728  1.1535  1.1224
 4206SOL     OW14058   2.704   7.713   3.152  0.0117 -0.0860 -0.2428
 4206SOL    HW114059   2.797   7.688   3.148 -0.2531 -1.4023  0.9565
 4206SOL    HW214060   2.675   7.682   3.238 -0.6548  3.6259  1.0305
 4207SOL     OW14061   0.606   4.779   3.946 -0.1790 -0.5231  0.2733
 4207SOL    HW114062   0.695   4.809   3.932 -0.4323 -0.1952 -0.7243
 4207SOL    HW214063   0.590   4.793   4.039  0.7457 -0.4185  0.4190
 4208SOL     OW14064   4.810   4.102   8.117  0.5816  0.1198 -0.5497
 4208SOL    HW114065   4.884   4.045   8.136 -0.2321 -0.3093  1.5464
 4208SOL    HW214066   4.848   4.189   8.106  1.5665 -0.3961 -1.3302
 4209SOL     OW14067   6.269   7.005   7.851 -0.6795 -0.4266  0.1348
 4209SOL    HW114068   6.224   6.921   7.856  1.2738 -1.4688  1.7951
 4209SOL    HW214069   6.213   7.060   7.796 -1.8169 -2.9167 -1.3370
 4210SOL     OW14070   6.347   0.567   2.694  0.4577  0.2048  0.0720
 4210SOL    HW114071   6.273   0.614   2.657  0.3671  0.4046  0.5126
 4210SOL    HW214072   6.382   0.517   2.620 -0.9403 -0.9687  0.1570
 4211SOL     OW14073   2.688   5.801   2.658 -0.2019 -0.1653  0.0419
 4211SOL    HW114074   2.668   5.729   2.717  1.0175 -0.2342  0.4092
 4211SOL    HW214075   2.660   5.880   2.705 -0.2808 -0.3068  0.2315
 4212SOL     OW14076   0.330   4.365   9.223  0.2030 -0.1262  0.1650
 4212SOL    HW114077   0.350   4.272   9.236  1.1502  0.0575  0.1162
 4212SOL    HW214078   0.248   4.366   9.174  0.3889 -0.9496 -0.1779
 4213SOL     OW14079   6.071   3.747   7.001  0.3568 -1.0088  0.6508
 4213SOL    HW114080   6.156   3.777   7.034  0.9702 -2.2928  0.2912
 4213SOL    HW214081   6.044   3.814   6.938  0.3172  0.2363  1.9417
 4214SOL     OW14082   4.908   2.378   7.097  0.3175 -0.1079 -0.8645
 4214SOL    HW114083   4.907   2.463   7.141  0.0016 -0.0517 -0.9752
 4214SOL    HW214084   4.898   2.398   7.004  1.8358 -0.1799 -1.0693
 4215SOL     OW14085   2.656   1.774   3.101  0.4653  0.8220  0.0203
 4215SOL    HW114086   2.743   1.737   3.083  0.5179  0.7613  0.3915
 4215SOL    HW214087   2.673   1.852   3.153  0.3130  0.9586 -0.1372
 4216SOL     OW14088   2.074   7.792   2.723  0.0488 -0.3203 -0.2835
 4216SOL    HW114089   2.135   7.718   2.721 -0.6112 -0.8741 -0.0921
 4216SOL    HW214090   2.073   7.823   2.632 -0.7265 -1.4327 -0.6837
 4217SOL     OW14091   2.466   4.603   2.555 -0.0448  0.4535  0.0033
 4217SOL    HW114092   2.393   4.656   2.588 -0.1897 -0.9247  2.0603
 4217SOL    HW214093   2.544   4.641   2.595  0.3533  1.5381 -1.7049
 4218SOL     OW14094   1.517   6.478  10.302  0.2910 -0.3695  0.0737
 4218SOL    HW114095   1.442   6.419  10.307  0.2970 -0.3827  0.0097
 4218SOL    HW214096   1.594   6.421  10.312  0.2790 -0.2934  0.6542
 4219SOL     OW14097   2.818   1.288   1.492  0.0648 -0.2986 -0.7479
 4219SOL    HW114098   2.857   1.247   1.415  0.3647 -1.2544 -0.1064
 4219SOL    HW214099   2.837   1.228   1.563 -1.7731 -0.3318 -0.2398
 4220SOL     OW14100   2.446   4.933   3.465  0.7373  0.3085  0.3389
 4220SOL    HW114101   2.481   4.910   3.379  0.4851 -0.0855  0.3383
 4220SOL    HW214102   2.513   4.990   3.503  0.7593  0.6448 -0.1934
 4221SOL     OW14103   1.653   3.872   8.416 -0.3587  0.0245  0.5550
 4221SOL    HW114104   1.645   3.885   8.321  0.4294 -0.5104  0.4101
 4221SOL    HW214105   1.624   3.782   8.430 -0.8123  0.2177  0.8743
 4222SOL     OW14106   1.928   0.336  12.375 -0.4485 -0.5141  0.3923
 4222SOL    HW114107   1.995   0.403  12.386  0.1305 -1.1982  1.1777
 4222SOL    HW214108   1.846   0.385  12.364  0.0566  0.3204  0.2851
 4223SOL     OW14109   4.819   4.622  12.031 -0.0658 -0.3225 -0.0021
 4223SOL    HW114110   4.729   4.654  12.022 -0.1504 -0.3064  0.8371
 4223SOL    HW214111   4.818   4.535  11.991 -0.9283 -1.1230  1.6373
 4224SOL     OW14112   0.204   7.921   0.823  0.3519  0.0865 -0.3593
 4224SOL    HW114113   0.157   7.981   0.881  0.2962  1.0231 -1.3405
 4224SOL    HW214114   0.135   7.878   0.772  0.1094 -3.1677  2.3775
 4225SOL     OW14115   6.808   6.664   7.355 -0.3330  0.4845  0.1646
 4225SOL    HW114116   6.807   6.577   7.316 -2.2494 -0.1516  1.4867
 4225SOL    HW214117   6.720   6.698   7.340  0.7959  2.9056 -1.6954
 4226SOL     OW14118   2.483   5.502   2.189 -0.0751 -0.4897  0.1394
 4226SOL    HW114119   2.486   5.594   2.214  0.7203 -0.6020  0.4708
 4226SOL    HW214120   2.401   5.494   2.140  0.5182  0.7105 -1.1364
 4227SOL     OW14121   0.114   1.112   4.135 -0.0554 -0.0769  0.4458
 4227SOL    HW114122   0.081   1.087   4.049  1.3308 -0.3456 -0.0323
 4227SOL    HW214123   0.209   1.112   4.126  0.1686 -1.0473  2.2243
 4228SOL     OW14124   4.147   3.254  10.524  0.2106  0.4727  0.3970
 4228SOL    HW114125   4.077   3.267  10.460 -0.0614  0.7960  0.7494
 4228SOL    HW214126   4.132   3.167  10.559 -1.2427  1.2681  1.9066
 4229SOL     OW14127   5.504   2.554   4.430 -0.5715  0.0700 -0.4501
 4229SOL    HW114128   5.427   2.585   4.382 -0.8738 -0.1962 -0.1448
 4229SOL    HW214129   5.469   2.487   4.489 -0.2759  0.6879  0.4412
 4230SOL     OW14130   7.602   1.450   1.259 -0.2391  0.1965 -0.0122
 4230SOL    HW114131   7.610   1.525   1.319  0.3666 -0.0368  0.2064
 4230SOL    HW214132   7.656   1.474   1.184 -0.4225  0.1774 -0.1510
 4231SOL     OW14133   4.009   4.406   6.327  0.0044 -0.2603 -0.4575
 4231SOL    HW114134   4.083   4.466   6.326 -0.9901  1.0163  0.0693
 4231SOL    HW214135   3.959   4.429   6.405 -1.1000 -0.9016 -0.9327
 4232SOL     OW14136   1.503   4.530   1.470  0.0618  0.0810 -0.2808
 4232SOL    HW114137   1.540   4.486   1.547  0.8124  0.1116 -0.6161
 4232SOL    HW214138   1.550   4.613   1.466 -1.5908  1.1131  0.5599
 4233SOL     OW14139   3.343   5.950   5.972  0.0906  0.5707  0.0556
 4233SOL    HW114140   3.299   5.880   6.021 -0.9654 -0.3427 -2.0357
 4233SOL    HW214141   3.309   5.941   5.883  0.8950  2.9896 -0.5657
 4234SOL     OW14142   4.593   1.878   3.800  0.2131  0.5518 -0.1175
 4234SOL    HW114143   4.536   1.868   3.876  1.1899  0.7683  0.6525
 4234SOL    HW214144   4.557   1.817   3.735  0.3577 -0.8992  1.1053
 4235SOL     OW14145   0.867   2.363   5.673  0.3097 -0.6810 -0.0198
 4235SOL    HW114146   0.892   2.453   5.697 -1.4337 -0.5276  1.4316
 4235SOL    HW214147   0.907   2.350   5.587  2.0648  0.8449  0.4811
 4236SOL     OW14148   1.492   1.162   3.786 -0.1975  0.7037 -0.2201
 4236SOL    HW114149   1.531   1.241   3.748 -0.7270  0.6228 -0.9622
 4236SOL    HW214150   1.519   1.091   3.728  0.9295  0.1955  0.8817
 4237SOL     OW14151   0.668   5.338   0.353  0.0548 -0.4480  0.2890
 4237SOL    HW114152   0.754   5.341   0.311  0.3431 -1.0966  0.7917
 4237SOL    HW214153   0.670   5.410   0.417  0.1396 -0.3213  0.1437
 4238SOL     OW14154   4.202   0.077   4.787 -0.0160 -0.2342 -0.3042
 4238SOL    HW114155   4.167   0.130   4.859 -0.9362  0.9383 -1.5554
 4238SOL    HW214156   4.294   0.101   4.782 -0.3897  1.2223 -0.7749
 4239SOL     OW14157   5.274   4.946   7.341 -0.0831  0.0602 -0.8322
 4239SOL    HW114158   5.342   4.926   7.277  1.1769 -1.0426  0.7594
 4239SOL    HW214159   5.315   4.929   7.426 -2.2652 -0.3513  0.2152
 4240SOL     OW14160   7.590   2.062  11.148 -0.1394  0.5948 -0.3072
 4240SOL    HW114161   7.548   2.014  11.220 -0.2973 -1.2096 -1.5297
 4240SOL    HW214162   7.565   2.153  11.162 -1.5405  0.0556  0.9858
 4241SOL     OW14163   1.115   3.299   8.216 -0.0879  0.0129 -0.0062
 4241SOL    HW114164   1.193   3.346   8.187  0.3860  0.1627  1.4472
 4241SOL    HW214165   1.100   3.234   8.148  1.9320 -0.7136  0.1625
 4242SOL     OW14166   4.840   2.354   7.648  0.6686  0.2567 -0.2384
 4242SOL    HW114167   4.780   2.284   7.673  0.7534 -0.3201 -1.5518
 4242SOL    HW214168   4.927   2.314   7.655  0.7128  0.2050 -1.0520
 4243SOL     OW14169   1.274   4.788  11.423 -0.6846 -0.0036 -0.6735
 4243SOL    HW114170   1.267   4.881  11.402 -2.1151  0.2631  0.7044
 4243SOL    HW214171   1.360   4.779  11.464 -0.9082  0.9403  0.0609
 4244SOL     OW14172   6.765   1.503   4.851  0.3961 -0.2866  0.4914
 4244SOL    HW114173   6.758   1.595   4.826  0.7172 -0.4851 -0.3752
 4244SOL    HW214174   6.844   1.472   4.807 -1.7864 -2.0135 -2.6947
 4245SOL     OW14175   1.044   4.257   2.705  0.0118  0.2740 -0.0757
 4245SOL    HW114176   0.974   4.270   2.769  0.6679  0.3987  0.6193
 4245SOL    HW214177   1.015   4.181   2.654 -1.2107  1.0716 -0.6002
 4246SOL     OW14178   5.895   6.389  12.115 -0.6527  0.7588 -0.1640
 4246SOL    HW114179   5.835   6.323  12.150  0.7169 -0.4699 -0.0394
 4246SOL    HW214180   5.903   6.367  12.022  0.7391 -0.0303  0.1211
 4247SOL     OW14181   0.312   0.562   5.508 -0.7207  0.4050  0.2391
 4247SOL    HW114182   0.233   0.591   5.554 -0.8762 -0.3722  0.4738
 4247SOL    HW214183   0.337   0.637   5.454 -2.2567  0.3016 -0.6945
 4248SOL     OW14184   5.794   5.926   9.300  0.0109  0.2796 -0.4207
 4248SOL    HW114185   5.760   5.838   9.287  1.5544 -0.5192  0.5598
 4248SOL    HW214186   5.717   5.980   9.313 -1.0214 -1.7774  3.8141
 4249SOL     OW14187   3.994   5.165   8.067  0.9273  0.4481  0.5778
 4249SOL    HW114188   3.904   5.165   8.098  0.5447 -1.1083 -0.4662
 4249SOL    HW214189   3.999   5.239   8.007  0.9675  1.8594  2.2323
 4250SOL     OW14190   4.440   3.324   3.754 -0.2771  0.1055 -0.2402
 4250SOL    HW114191   4.371   3.387   3.772 -0.3336 -0.0637  0.1505
 4250SOL    HW214192   4.500   3.332   3.827  0.2189  0.3787 -0.6692
 4251SOL     OW14193   1.027   4.861   0.543 -0.3268  0.0269  0.5887
 4251SOL    HW114194   1.088   4.801   0.587 -0.4987 -1.7969 -1.4803
 4251SOL    HW214195   1.082   4.931   0.510  0.7482 -1.6007 -1.2638
 4252SOL     OW14196   1.459   7.428   4.726 -0.1309 -0.3516  0.3115
 4252SOL    HW114197   1.452   7.522   4.706 -0.9602 -0.6407 -0.8054
 4252SOL    HW214198   1.380   7.408   4.775 -0.9588 -0.8680 -1.1735
 4253SOL     OW14199   0.189   4.574   9.812 -0.6988 -0.2213  0.0840
 4253SOL    HW114200   0.273   4.555   9.856  0.6175 -0.5970 -2.3738
 4253SOL    HW214201   0.156   4.487   9.787 -1.7195 -0.0541  0.8286
 4254SOL     OW14202   5.296   6.256   7.353 -0.4264  0.3549 -0.3734
 4254SOL    HW114203   5.256   6.275   7.438  0.4565  0.0042  0.1421
 4254SOL    HW214204   5.232   6.286   7.288 -1.8048 -0.7685  0.3915
 4255SOL     OW14205   2.940   1.905  11.983 -0.2635 -0.2467  0.4007
 4255SOL    HW114206   2.932   1.843  11.910 -0.6288 -0.7498  0.8602
 4255SOL    HW214207   2.852   1.909  12.020 -0.4179  1.1007 -0.0500
 4256SOL     OW14208   2.582   0.895   5.658  0.1511  0.5047 -0.3226
 4256SOL    HW114209   2.592   0.891   5.563  0.1552  1.4411 -0.3625
 4256SOL    HW214210   2.526   0.971   5.674 -0.0327  0.2261  0.4138
 4257SOL     OW14211   0.951   0.698   5.688 -0.1211  0.1246  0.1627
 4257SOL    HW114212   0.945   0.723   5.595 -0.3078 -0.0016  0.1398
 4257SOL    HW214213   0.860   0.682   5.714 -0.2181  1.4584  0.7291
 4258SOL     OW14214   6.250   2.077   3.480 -0.0594 -0.2459  0.0382
 4258SOL    HW114215   6.282   2.012   3.418  0.6992  0.1107  0.0519
 4258SOL    HW214216   6.247   2.158   3.430  2.7220  0.5492  1.0077
 4259SOL     OW14217   4.571   0.028   2.816 -0.8220 -0.1226 -0.2405
 4259SOL    HW114218   4.596  -0.027   2.742  0.5387  0.9473 -0.6034
 4259SOL    HW214219   4.654   0.059   2.852 -1.5574  2.1696 -0.4038
 4260SOL     OW14220   2.130   1.258   5.708 -0.3894 -0.0733 -0.6479
 4260SOL    HW114221   2.079   1.219   5.637 -0.8235  0.3577 -0.5761
 4260SOL    HW214222   2.066   1.307   5.760 -0.4520 -2.0037  1.2301
 4261SOL     OW14223   2.313   3.313   9.259 -0.1322  0.0324  0.5116
 4261SOL    HW114224   2.264   3.230   9.262 -0.7697  0.4186  0.9109
 4261SOL    HW214225   2.352   3.320   9.346 -1.2878  0.8633  0.9848
 4262SOL     OW14226   5.045   1.803   2.878 -0.2690 -0.0571 -0.1065
 4262SOL    HW114227   5.083   1.844   2.801 -0.1186  1.0695  0.5497
 4262SOL    HW214228   5.112   1.742   2.908  0.7790  1.4142  0.6427
 4263SOL     OW14229   5.478   7.463   8.400 -0.8838  0.8537 -0.3431
 4263SOL    HW114230   5.472   7.423   8.313 -1.3332  1.7067 -0.7068
 4263SOL    HW214231   5.396   7.510   8.411 -0.2295  1.9645 -0.0596
 4264SOL     OW14232   2.282   0.564   4.367 -0.5663  0.3242 -0.3824
 4264SOL    HW114233   2.195   0.573   4.407 -0.2258  0.3612  0.3595
 4264SOL    HW214234   2.328   0.503   4.424 -0.6570 -1.0516 -1.7201
 4265SOL     OW14235   7.488   6.824   6.555 -0.3358 -0.0056 -0.8551
 4265SOL    HW114236   7.458   6.842   6.644 -0.1205  0.4187 -0.8631
 4265SOL    HW214237   7.457   6.736   6.536  2.6936 -1.6522  0.9802
 4266SOL     OW14238   3.707   4.584   9.559 -0.3574 -0.5642 -0.1931
 4266SOL    HW114239   3.787   4.533   9.550 -0.6442 -0.7066 -2.3463
 4266SOL    HW214240   3.641   4.521   9.587  0.0728 -0.6155  0.7427
 4267SOL     OW14241   6.486   4.909   5.590 -0.2480  0.4334  0.1125
 4267SOL    HW114242   6.430   4.955   5.652 -0.7530  0.0840 -0.0784
 4267SOL    HW214243   6.553   4.973   5.566 -0.9225  1.0631 -0.1339
 4268SOL     OW14244   2.251   0.211   4.041  0.1256 -0.0814  0.2296
 4268SOL    HW114245   2.261   0.140   4.104  2.4688  0.4835  0.5981
 4268SOL    HW214246   2.320   0.273   4.064 -2.1892  2.6971  0.3309
 4269SOL     OW14247   1.165   4.763  11.158  0.1404 -0.5481  0.3491
 4269SOL    HW114248   1.197   4.732  11.242  0.4522 -1.2082 -0.0064
 4269SOL    HW214249   1.243   4.771  11.104 -0.1200 -0.6993 -0.0577
 4270SOL     OW14250   7.234   7.428  10.284 -0.3508 -0.6664  0.0184
 4270SOL    HW114251   7.206   7.368  10.353  0.9829 -3.0948 -1.4189
 4270SOL    HW214252   7.157   7.437  10.228 -1.4247  1.2723  1.6620
 4271SOL     OW14253   3.709   7.310   4.817 -0.6381  0.8248 -0.0424
 4271SOL    HW114254   3.764   7.385   4.840  1.8000 -0.6931 -0.6148
 4271SOL    HW214255   3.681   7.328   4.727  1.3154  0.3440 -0.7922
 4272SOL     OW14256   4.298   7.004  11.125 -0.3992 -0.3006  0.7621
 4272SOL    HW114257   4.239   7.024  11.198 -1.4302 -1.5972  0.3292
 4272SOL    HW214258   4.245   7.018  11.047  0.0037 -1.0428  0.3430
 4273SOL     OW14259   1.602   6.619   5.364 -0.3293 -0.1305 -0.5060
 4273SOL    HW114260   1.608   6.534   5.320  0.7821 -0.0875 -0.4739
 4273SOL    HW214261   1.692   6.638   5.391 -0.4329  1.3698 -1.1024
 4274SOL     OW14262   7.317   0.773   6.028 -0.6469  0.2169 -0.1734
 4274SOL    HW114263   7.289   0.776   6.119  0.2861  0.2195  0.1151
 4274SOL    HW214264   7.244   0.731   5.983 -0.9751 -0.0881  0.6232
 4275SOL     OW14265   7.524   6.003  12.018  0.2423 -0.0974  0.1148
 4275SOL    HW114266   7.562   6.045  11.941  0.9426 -0.0954  0.4578
 4275SOL    HW214267   7.549   6.060  12.091 -3.6469  2.1150  0.0148
 4276SOL     OW14268   3.951   6.746  10.117  0.3782 -0.0130  0.3841
 4276SOL    HW114269   3.903   6.814  10.163  1.9959 -0.1120  2.3709
 4276SOL    HW214270   3.953   6.672  10.178  1.6507 -0.5603 -0.2794
 4277SOL     OW14271   5.773   1.573   3.243 -0.2648  0.2678 -0.3182
 4277SOL    HW114272   5.761   1.513   3.169 -0.9703 -0.9172  0.7294
 4277SOL    HW214273   5.828   1.524   3.304 -2.3595 -0.1036  1.3809
 4278SOL     OW14274   5.536   0.277   4.634  0.3364  0.1309  0.3596
 4278SOL    HW114275   5.543   0.281   4.538  1.0844 -0.0613  0.3953
 4278SOL    HW214276   5.488   0.356   4.658 -1.9069 -0.9413 -0.3401
 4279SOL     OW14277   3.870   1.424   2.907 -0.0788 -0.0952  0.8251
 4279SOL    HW114278   3.931   1.427   2.833  0.9150 -1.5849  1.5301
 4279SOL    HW214279   3.784   1.420   2.866  0.4048  0.0151 -0.2365
 4280SOL     OW14280   0.637   1.593   9.827  0.1914 -0.5063 -0.3450
 4280SOL    HW114281   0.602   1.647   9.757  1.1872 -1.2427 -1.4556
 4280SOL    HW214282   0.579   1.608   9.901  0.1910  1.7333 -0.7499
 4281SOL     OW14283   1.802   2.005   0.079 -0.1816  0.1413  0.6943
 4281SOL    HW114284   1.866   1.956   0.027  0.0337  0.3443  0.7651
 4281SOL    HW214285   1.827   2.097   0.067 -0.7126  0.2476  0.3920
 4282SOL     OW14286   1.305   2.567  11.716  0.1430  0.1166 -0.3699
 4282SOL    HW114287   1.328   2.492  11.772  1.1486  0.0192 -0.9068
 4282SOL    HW214288   1.259   2.627  11.775 -1.0759 -1.0983 -0.0226
 4283SOL     OW14289   1.824   7.287   5.933  0.6608 -0.6892 -0.1821
 4283SOL    HW114290   1.736   7.308   5.964  1.1150  3.3133 -1.0573
 4283SOL    HW214291   1.813   7.266   5.840  0.7074  2.6489 -1.0877
 4284SOL     OW14292   4.473   5.155  11.486  0.0286 -0.5997  0.2564
 4284SOL    HW114293   4.540   5.197  11.540 -0.4557  2.1646 -1.1181
 4284SOL    HW214294   4.516   5.136  11.403 -0.6046  0.4077 -0.3317
 4285SOL     OW14295   6.754   7.881  12.291 -0.2227  0.0160  0.3015
 4285SOL    HW114296   6.722   7.877  12.381  0.5339  0.5817  0.6068
 4285SOL    HW214297   6.839   7.836  12.295 -0.2017  0.0212 -0.1344
 4286SOL     OW14298   5.309   4.693   3.922 -0.7286  0.1510 -0.3359
 4286SOL    HW114299   5.288   4.629   3.989  0.4202  1.0553  0.9415
 4286SOL    HW214300   5.345   4.767   3.970 -1.6909  1.6362 -1.7967
 4287SOL     OW14301   4.834   1.625  10.798  0.3898 -0.2776 -0.1700
 4287SOL    HW114302   4.755   1.608  10.747 -0.1658 -1.5545  1.0277
 4287SOL    HW214303   4.802   1.635  10.888  1.4860  0.3149  0.1661
 4288SOL     OW14304   7.712   1.874   2.208 -0.3256  0.0602 -0.4161
 4288SOL    HW114305   7.655   1.850   2.281  0.2815  0.4256  0.1905
 4288SOL    HW214306   7.654   1.918   2.145 -0.5822  1.0743  0.5088
 4289SOL     OW14307   5.654   7.415   0.170  0.0547  0.5140 -0.3162
 4289SOL    HW114308   5.672   7.500   0.212  0.4169  0.9134 -1.2557
 4289SOL    HW214309   5.639   7.437   0.078  0.7320 -0.5153 -0.6816
 4290SOL     OW14310   7.873   1.790   0.523 -0.4072 -0.0191  0.5745
 4290SOL    HW114311   7.782   1.767   0.504  0.0810 -0.5916 -1.3324
 4290SOL    HW214312   7.868   1.858   0.590 -2.3758  1.7053 -1.1852
 4291SOL     OW14313   2.593   1.983   5.057 -0.5669  0.3174 -0.3109
 4291SOL    HW114314   2.556   1.974   5.145 -1.0517  0.9325 -0.4437
 4291SOL    HW214315   2.669   2.038   5.068 -1.7083  2.0098 -0.5300
 4292SOL     OW14316   5.662   2.274   2.222 -0.1169  0.1997  0.3663
 4292SOL    HW114317   5.570   2.268   2.196  0.2415  0.9236 -1.1787
 4292SOL    HW214318   5.704   2.201   2.177  0.1741  0.2161  0.6111
 4293SOL     OW14319   7.582   6.390  10.271 -0.0936 -0.0519 -0.1007
 4293SOL    HW114320   7.542   6.393  10.357 -0.6045  0.1374 -0.3412
 4293SOL    HW214321   7.606   6.298  10.258  0.9179  0.0829  0.6565
 4294SOL     OW14322   3.157   3.231   9.649  0.2931  0.3186 -0.1248
 4294SOL    HW114323   3.240   3.275   9.667  1.1345  0.5673 -3.9238
 4294SOL    HW214324   3.175   3.173   9.575 -2.2079 -2.1316  0.9831
 4295SOL     OW14325   1.908   7.162   4.712 -0.1042  0.4131  0.7573
 4295SOL    HW114326   1.831   7.219   4.711 -0.4282  0.1308 -2.2710
 4295SOL    HW214327   1.982   7.222   4.697 -0.1779  0.3512  0.0763
 4296SOL     OW14328   1.879   4.148   6.289  0.1069 -0.3713 -0.0998
 4296SOL    HW114329   1.896   4.061   6.325  0.5549 -0.3950 -0.3606
 4296SOL    HW214330   1.892   4.208   6.362  0.9264 -0.4251 -0.1888
 4297SOL     OW14331   1.799   3.613  12.101 -0.1044 -0.0235 -0.2586
 4297SOL    HW114332   1.706   3.632  12.094  0.2588  1.8546 -0.4694
 4297SOL    HW214333   1.807   3.558  12.179 -1.2502  0.7957  0.4545
 4298SOL     OW14334   3.044   6.577   4.679 -0.1351  0.1029  0.7507
 4298SOL    HW114335   2.963   6.547   4.638  0.8525 -1.6060 -0.0655
 4298SOL    HW214336   3.063   6.660   4.637 -0.6344 -0.2668 -0.2282
 4299SOL     OW14337   2.597   0.550  12.223 -0.0444  0.1193  0.5162
 4299SOL    HW114338   2.666   0.563  12.158  1.4546 -3.8576  1.0052
 4299SOL    HW214339   2.516   0.555  12.173  0.8552  0.6640 -0.9654
 4300SOL     OW14340   3.980   7.097   9.247 -0.3607  0.4951  0.2964
 4300SOL    HW114341   3.947   7.062   9.330 -0.3048  1.4228  0.7197
 4300SOL    HW214342   4.032   7.026   9.210  0.6618  0.4849  1.6660
 4301SOL     OW14343   3.879   1.032   6.504 -0.5366  0.3407  0.0450
 4301SOL    HW114344   3.950   0.979   6.467 -0.8469 -0.7149  0.9065
 4301SOL    HW214345   3.800   0.979   6.490 -0.8821  0.6430  0.7879
 4302SOL     OW14346   5.789   1.929  12.365 -0.1018  0.0118  0.2038
 4302SOL    HW114347   5.709   1.960  12.323 -1.2010 -0.6840  1.7027
 4302SOL    HW214348   5.787   1.968  12.453  1.3677  0.2257  0.1613
 4303SOL     OW14349   6.910   2.024   9.045 -0.3028 -0.2159 -0.3351
 4303SOL    HW114350   6.843   1.957   9.054 -0.7891  0.0056 -2.1015
 4303SOL    HW214351   6.991   1.976   9.027  0.1995 -0.5142  2.2585
 4304SOL     OW14352   3.757   5.904   3.806 -0.2594 -0.5070  0.0317
 4304SOL    HW114353   3.828   5.925   3.745 -0.9188  1.6292 -0.0746
 4304SOL    HW214354   3.712   5.830   3.765  0.9813 -0.9297 -0.6385
 4305SOL     OW14355   5.764   5.537   8.004  0.1507 -0.1094  0.2330
 4305SOL    HW114356   5.708   5.614   8.009 -1.7184 -1.4780  2.5236
 4305SOL    HW214357   5.729   5.487   7.931 -0.7229 -0.2754  0.7553
 4306SOL     OW14358   0.899   5.835  10.034  0.0545  1.0789 -0.1121
 4306SOL    HW114359   0.851   5.771   9.981  0.4205  0.2240  0.5686
 4306SOL    HW214360   0.832   5.879  10.085 -0.0548  0.1615  0.5483
 4307SOL     OW14361   0.558   4.062  10.221  0.4047 -0.2626  0.1324
 4307SOL    HW114362   0.641   4.103  10.247  0.2587  0.8821 -1.0916
 4307SOL    HW214363   0.514   4.129  10.168 -0.8825 -1.2052 -0.0379
 4308SOL     OW14364   2.238   2.841   9.601  0.2679 -0.5168  0.1231
 4308SOL    HW114365   2.252   2.747   9.616 -0.2819 -0.4463  1.2156
 4308SOL    HW214366   2.170   2.865   9.664  1.1863  0.8455  0.6457
 4309SOL     OW14367   4.644   7.058   6.844 -0.0157 -0.3748  0.0765
 4309SOL    HW114368   4.559   7.070   6.888  0.9490  0.1282  1.9035
 4309SOL    HW214369   4.665   7.143   6.807  0.1321 -0.2306  0.4823
 4310SOL     OW14370   7.361   0.006   8.903  0.1202  0.4121  0.8858
 4310SOL    HW114371   7.428  -0.044   8.856 -0.2752  0.2037  0.5436
 4310SOL    HW214372   7.317   0.057   8.834 -0.1794  0.4266  1.0886
 4311SOL     OW14373   2.286   5.541   5.791 -0.3069 -0.2392 -0.0629
 4311SOL    HW114374   2.205   5.570   5.833 -0.3006 -1.2558  0.7022
 4311SOL    HW214375   2.257   5.475   5.727 -0.0941 -0.5704  0.1795
 4312SOL     OW14376   0.970   7.322  11.775 -0.0417 -0.2343 -0.2316
 4312SOL    HW114377   0.917   7.255  11.817 -1.1853  0.4588 -0.5380
 4312SOL    HW214378   0.986   7.288  11.687 -0.1601 -0.3432 -0.2122
 4313SOL     OW14379   7.726   1.487  11.727 -0.6341 -0.5975 -0.2054
 4313SOL    HW114380   7.636   1.458  11.739 -0.6455 -1.0795 -1.3474
 4313SOL    HW214381   7.720   1.582  11.717 -0.8057 -0.3905  1.5335
 4314SOL     OW14382   6.310   2.003   6.637  0.6236  0.3160 -0.3123
 4314SOL    HW114383   6.311   2.098   6.653 -0.3420  0.3889 -0.6079
 4314SOL    HW214384   6.223   1.986   6.599 -0.1320 -1.0431  1.8339
 4315SOL     OW14385   5.713   7.643   0.937 -0.3682  0.1329 -0.0384
 4315SOL    HW114386   5.756   7.682   1.013  0.0971 -0.9661  0.2920
 4315SOL    HW214387   5.758   7.559   0.926 -0.1025  0.4760 -1.8228
 4316SOL     OW14388   2.758   2.692  10.653  0.5653 -0.3510  0.3014
 4316SOL    HW114389   2.742   2.760  10.587 -0.6283 -0.9163 -0.0250
 4316SOL    HW214390   2.752   2.739  10.737  2.9687  0.5455  0.0558
 4317SOL     OW14391   4.056   7.095   1.289 -0.1790  0.0493  0.2253
 4317SOL    HW114392   4.057   7.084   1.194 -0.7151 -0.6567  0.2857
 4317SOL    HW214393   4.008   7.176   1.303  0.6062  0.5887 -0.1274
 4318SOL     OW14394   3.983   1.486  12.324 -0.5881  0.7200 -0.2769
 4318SOL    HW114395   3.994   1.455  12.234 -1.2931 -0.6282  0.0792
 4318SOL    HW214396   3.960   1.408  12.374  2.1865  0.9373  1.5811
 4319SOL     OW14397   3.920   3.733   0.806  0.0349  0.3200  0.1827
 4319SOL    HW114398   3.919   3.637   0.798 -2.1674  0.4067 -2.4871
 4319SOL    HW214399   3.848   3.752   0.865 -0.0184  0.3284  0.1158
 4320SOL     OW14400   3.749   4.674  10.135 -0.7288  0.1001  0.2442
 4320SOL    HW114401   3.811   4.603  10.153 -1.5066 -0.2755  1.6111
 4320SOL    HW214402   3.732   4.667  10.041  3.0985  1.7585 -0.7693
 4321SOL     OW14403   5.230   0.469   4.730  0.3534  0.0940 -0.3511
 4321SOL    HW114404   5.204   0.378   4.714 -0.4351  0.2863 -0.1871
 4321SOL    HW214405   5.305   0.483   4.672  0.7631 -0.7911 -0.0517
 4322SOL     OW14406   7.663   5.851   0.428 -0.3742 -0.2586  0.3889
 4322SOL    HW114407   7.745   5.858   0.379 -1.0519 -0.9031 -0.8968
 4322SOL    HW214408   7.603   5.911   0.383 -1.3616 -1.7459 -0.3589
 4323SOL     OW14409   7.200   7.635   3.996 -0.1669  0.8418 -0.0600
 4323SOL    HW114410   7.121   7.682   3.970  0.4101  1.2678 -1.1148
 4323SOL    HW214411   7.226   7.588   3.918  1.6639  2.1988 -0.3271
 4324SOL     OW14412   2.901   5.712   1.630 -0.2995  0.2790 -0.5214
 4324SOL    HW114413   2.991   5.744   1.622 -0.7671  1.6616 -0.5211
 4324SOL    HW214414   2.855   5.780   1.678 -1.6344  0.1971 -1.6012
 4325SOL     OW14415   6.406   7.256   4.289 -0.1743  0.7648 -0.1397
 4325SOL    HW114416   6.389   7.347   4.313 -1.9832  1.1104 -2.3470
 4325SOL    HW214417   6.331   7.231   4.236  0.7738 -1.7069 -0.4502
 4326SOL     OW14418   4.782   1.046   0.871 -0.0658 -0.4909 -0.0619
 4326SOL    HW114419   4.770   0.977   0.806  0.5666 -0.1231 -0.5872
 4326SOL    HW214420   4.709   1.106   0.855 -0.4223 -0.8596  0.1683
 4327SOL     OW14421   1.782   0.407  11.661  0.4583  0.2307 -0.1671
 4327SOL    HW114422   1.725   0.366  11.727  0.2267 -0.6936 -0.9103
 4327SOL    HW214423   1.870   0.376  11.683  0.2372 -1.0389 -0.9553
 4328SOL     OW14424   4.260   4.077  11.644 -0.7126 -0.0283  0.0421
 4328SOL    HW114425   4.289   3.988  11.622  0.7647 -0.5212  3.2614
 4328SOL    HW214426   4.342   4.127  11.654 -1.4674  1.3654 -0.4902
 4329SOL     OW14427   7.970   2.445   9.474  0.0512  0.2102  0.1714
 4329SOL    HW114428   7.982   2.384   9.548  0.5741  0.3780  0.2322
 4329SOL    HW214429   8.037   2.512   9.488 -0.3199  0.6324 -0.0678
 4330SOL     OW14430   2.873   3.613   7.058  0.1273 -0.0625  0.2255
 4330SOL    HW114431   2.854   3.521   7.041 -0.2348  0.0409  0.0663
 4330SOL    HW214432   2.949   3.632   7.003 -0.4803  0.0241 -0.6034
 4331SOL     OW14433   6.601   7.939   3.046  0.0905  0.0277  0.2251
 4331SOL    HW114434   6.664   7.868   3.043 -0.4958 -0.4897 -0.0857
 4331SOL    HW214435   6.518   7.899   3.018 -0.2388  0.8357  0.0151
 4332SOL     OW14436   2.253   5.922   7.747 -0.0847  0.1650 -0.2243
 4332SOL    HW114437   2.203   5.973   7.684 -1.1657  0.7128  1.0146
 4332SOL    HW214438   2.320   5.983   7.779 -1.4979  0.9597  1.3993
 4333SOL     OW14439   1.036   1.832   8.968  0.1733  0.0913 -0.1711
 4333SOL    HW114440   1.032   1.742   8.935 -2.5898 -0.1750  0.6508
 4333SOL    HW214441   1.001   1.885   8.897 -0.3756  0.2294  0.2038
 4334SOL     OW14442   4.317   3.994   5.870 -0.1392 -0.2678  0.3130
 4334SOL    HW114443   4.387   3.993   5.936  0.0388  1.1443  0.1752
 4334SOL    HW214444   4.350   4.053   5.802 -1.3828  0.2611  0.1503
 4335SOL     OW14445   7.464   6.167   6.833 -0.3483  0.2587 -0.5053
 4335SOL    HW114446   7.554   6.137   6.847  0.4099  1.1872 -2.8243
 4335SOL    HW214447   7.414   6.086   6.820 -0.4328 -0.4321  3.0690
 4336SOL     OW14448   0.093   2.768   8.984 -0.1971  0.3529  0.0361
 4336SOL    HW114449   0.047   2.843   8.946  0.4142  0.6144 -0.2106
 4336SOL    HW214450   0.172   2.807   9.024  0.5969 -0.2538 -0.8978
 4337SOL     OW14451   3.722   7.492   2.812  0.5275 -0.2819 -0.0193
 4337SOL    HW114452   3.657   7.442   2.861 -0.5968  0.8003 -0.3555
 4337SOL    HW214453   3.716   7.457   2.723 -0.4989  0.6438 -0.3314
 4338SOL     OW14454   0.490   5.433   7.472  0.6624  0.6339 -0.2241
 4338SOL    HW114455   0.575   5.418   7.430  0.8815 -0.7868  0.6432
 4338SOL    HW214456   0.440   5.353   7.454  1.0871 -0.4674  2.8514
 4339SOL     OW14457   2.525   6.558  11.973 -0.1407  0.2255 -0.2466
 4339SOL    HW114458   2.592   6.571  11.906  0.3896 -1.6748 -0.1372
 4339SOL    HW214459   2.477   6.481  11.945 -0.3246 -0.2306  1.2157
 4340SOL     OW14460   5.243   0.602   3.149  0.3135  0.8176  0.1331
 4340SOL    HW114461   5.263   0.584   3.241  0.4698  1.1829  0.1748
 4340SOL    HW214462   5.172   0.666   3.151  0.5852  1.1318  0.0101
 4341SOL     OW14463   1.512   5.842  10.761  0.1235  0.2207 -0.1263
 4341SOL    HW114464   1.584   5.779  10.761  0.9545  1.1124  1.1796
 4341SOL    HW214465   1.530   5.900  10.687  0.1723 -0.1876 -0.4337
 4342SOL     OW14466   1.342   3.495  11.739 -0.3365  0.4889 -0.0319
 4342SOL    HW114467   1.336   3.513  11.833 -0.5862  0.9438 -0.1323
 4342SOL    HW214468   1.263   3.535  11.702  0.5196  1.6573 -0.6453
 4343SOL     OW14469   6.732   1.938   0.787 -0.0520  0.0421 -0.0295
 4343SOL    HW114470   6.767   1.893   0.864  1.3639 -0.3574 -0.8634
 4343SOL    HW214471   6.674   1.873   0.746  0.9690 -0.5960 -0.5162
 4344SOL     OW14472   3.296   4.395   6.727 -0.0817  0.8648 -0.2337
 4344SOL    HW114473   3.307   4.309   6.768  0.6641  1.7034  1.4344
 4344SOL    HW214474   3.312   4.380   6.634 -1.5367 -1.0739 -0.2175
 4345SOL     OW14475   3.561   2.557   3.224  0.2643 -0.7975 -0.1269
 4345SOL    HW114476   3.505   2.623   3.184  0.0171 -1.6858 -1.3011
 4345SOL    HW214477   3.535   2.556   3.316 -0.7702 -0.3192 -0.4020
 4346SOL     OW14478   4.452   7.971   5.240 -0.2012  0.2381 -0.1669
 4346SOL    HW114479   4.431   7.897   5.184  0.4342 -1.1932  1.3997
 4346SOL    HW214480   4.544   7.958   5.264  0.1750  1.9896 -0.4768
 4347SOL     OW14481   1.770   3.990   4.656  0.0314  0.0681  0.1504
 4347SOL    HW114482   1.843   4.050   4.673  0.3881 -0.3802  0.1986
 4347SOL    HW214483   1.791   3.912   4.707 -0.4640 -0.0766  0.1330
 4348SOL     OW14484   4.855   2.776   9.369  0.2160  0.5643  0.3013
 4348SOL    HW114485   4.859   2.704   9.432  0.7134  0.8417  0.5959
 4348SOL    HW214486   4.883   2.738   9.286 -0.3614  0.2159  0.2650
 4349SOL     OW14487   2.529   2.810  12.348 -0.3766 -0.0925  0.2906
 4349SOL    HW114488   2.437   2.836  12.351  0.0856  1.8900 -0.8266
 4349SOL    HW214489   2.529   2.723  12.309 -1.7053  0.5609 -1.2631
 4350SOL     OW14490   5.279   5.764   6.705  0.0234 -0.3166  0.1161
 4350SOL    HW114491   5.240   5.688   6.747 -0.4089  0.4677  1.1621
 4350SOL    HW214492   5.208   5.804   6.655 -0.0959  0.1406  0.6391
 4351SOL     OW14493   6.821   7.784   3.110 -0.6722 -0.0692  0.9989
 4351SOL    HW114494   6.828   7.696   3.147 -0.5233 -1.0959 -1.3113
 4351SOL    HW214495   6.908   7.821   3.122 -0.3635 -0.7279  0.8615
 4352SOL     OW14496   6.101   3.638   4.733  0.2897  0.1327 -0.3831
 4352SOL    HW114497   6.048   3.706   4.691  0.9083  0.2468 -0.9778
 4352SOL    HW214498   6.169   3.686   4.779 -0.1607 -0.0125  0.4600
 4353SOL     OW14499   2.927   1.520   2.389 -0.2070 -0.5178 -0.5649
 4353SOL    HW114500   2.907   1.551   2.301  0.2728  0.8658 -0.1995
 4353SOL    HW214501   2.842   1.496   2.426 -0.8788  2.0968 -0.2216
 4354SOL     OW14502   0.600   0.512  10.399 -0.1073  0.1445 -0.8229
 4354SOL    HW114503   0.652   0.533  10.477 -0.0338  1.7116 -1.2635
 4354SOL    HW214504   0.547   0.436  10.426 -1.2824  1.6089  1.3266
 4355SOL     OW14505   1.402   3.271   4.759  0.2558 -0.3633  0.1133
 4355SOL    HW114506   1.379   3.190   4.713  0.6931 -0.6177  0.3398
 4355SOL    HW214507   1.393   3.249   4.852  1.2688 -0.4205  0.2017
 4356SOL     OW14508   6.782   5.502   7.490 -0.2913 -0.2261  0.0265
 4356SOL    HW114509   6.806   5.417   7.527 -0.4447  0.2823  1.3271
 4356SOL    HW214510   6.718   5.538   7.551  0.5142  1.2662  0.0320
 4357SOL     OW14511   5.729   1.442   8.410 -0.2135  0.0537  0.3003
 4357SOL    HW114512   5.803   1.394   8.448  0.0480  1.2460  1.3810
 4357SOL    HW214513   5.765   1.529   8.391 -1.3282  0.6479  0.8505
 4358SOL     OW14514   5.428   5.245  11.216  0.5988 -0.5282 -0.5206
 4358SOL    HW114515   5.423   5.303  11.292  1.7245 -0.8083 -0.2261
 4358SOL    HW214516   5.395   5.161  11.248 -0.9289 -0.1161 -0.9193
 4359SOL     OW14517   2.361   1.394  10.201  0.1111  0.3729  0.1466
 4359SOL    HW114518   2.316   1.310  10.206 -2.7812  1.8798  2.5798
 4359SOL    HW214519   2.327   1.435  10.122  1.3073 -0.5368 -0.8839
 4360SOL     OW14520   4.534   5.348  11.722 -0.0869  0.0387  0.1008
 4360SOL    HW114521   4.541   5.371  11.815  0.3919 -2.2626  0.7002
 4360SOL    HW214522   4.461   5.286  11.719 -0.0320  0.0177 -1.0569
 4361SOL     OW14523   3.997   0.614   7.067 -0.4224  0.4150 -0.5256
 4361SOL    HW114524   4.072   0.632   7.123  0.0506  0.1452 -1.0543
 4361SOL    HW214525   3.927   0.670   7.100 -0.5182 -0.5698  1.0515
 4362SOL     OW14526   1.407   7.126   4.574 -0.1892 -0.8862  0.2430
 4362SOL    HW114527   1.387   7.140   4.667  1.1580 -0.7361  0.5453
 4362SOL    HW214528   1.368   7.042   4.553  0.7037 -1.6322  1.3713
 4363SOL     OW14529   6.753   4.369  12.162  0.2577  0.4801 -0.1962
 4363SOL    HW114530   6.660   4.348  12.170  0.4042  0.2864  1.3748
 4363SOL    HW214531   6.770   4.367  12.068 -1.4399  1.0857 -0.5559
 4364SOL     OW14532   0.354   4.082   8.847 -0.5077 -0.3400 -0.0182
 4364SOL    HW114533   0.334   4.094   8.940  1.9413  1.2954  0.3904
 4364SOL    HW214534   0.400   3.998   8.843  0.8760  0.3554  0.5736
 4365SOL     OW14535   6.283   3.230  10.372  0.5707  0.6373  0.6414
 4365SOL    HW114536   6.243   3.312  10.343 -1.5298 -0.7109 -0.5227
 4365SOL    HW214537   6.374   3.237  10.347  0.2904  2.3501 -0.0041
 4366SOL     OW14538   6.099   6.756   0.089 -0.1611  0.0105 -0.5267
 4366SOL    HW114539   6.008   6.777   0.109 -0.1769  1.2101 -1.7432
 4366SOL    HW214540   6.150   6.813   0.147 -0.1750 -0.0781 -0.4256
 4367SOL     OW14541   6.024   3.641   6.297 -0.0038 -0.0089 -0.1942
 4367SOL    HW114542   6.070   3.657   6.380  0.0933 -1.1606 -0.0051
 4367SOL    HW214543   5.954   3.580   6.320  0.1884 -0.5462 -1.0057
 4368SOL     OW14544   3.966   7.622   6.651 -0.1580 -0.1500  0.0730
 4368SOL    HW114545   3.973   7.717   6.643 -1.3721  0.2141  2.3274
 4368SOL    HW214546   3.872   7.604   6.645  0.0544 -1.2189 -0.3230
 4369SOL     OW14547   3.899   4.445   3.995 -0.0769 -0.2627 -0.2502
 4369SOL    HW114548   3.844   4.372   4.025 -0.9072  0.3648 -0.1969
 4369SOL    HW214549   3.924   4.490   4.076 -0.4469  0.1230 -0.3479
 4370SOL     OW14550   3.498   4.690   9.284  0.7745 -0.2917 -0.4411
 4370SOL    HW114551   3.465   4.715   9.198  0.9466 -1.6403 -0.9250
 4370SOL    HW214552   3.447   4.612   9.307  0.7953  0.0035  0.6484
 4371SOL     OW14553   0.967   1.989   3.356  0.4919 -0.0574 -0.1609
 4371SOL    HW114554   1.038   2.048   3.330 -0.7129  1.3702 -0.3361
 4371SOL    HW214555   0.889   2.024   3.313 -0.1896 -2.1618 -0.7822
 4372SOL     OW14556   7.014   6.663   9.280 -0.4745 -0.5463  0.2845
 4372SOL    HW114557   7.003   6.645   9.187 -2.2812 -0.0551  0.3552
 4372SOL    HW214558   6.990   6.582   9.323 -0.2166 -0.5953  0.3334
 4373SOL     OW14559   6.697   4.410   9.061 -0.0307 -0.4237  0.3118
 4373SOL    HW114560   6.729   4.395   8.973 -1.5047 -0.0325 -0.3285
 4373SOL    HW214561   6.740   4.343   9.114  1.0862 -0.4851 -0.6426
 4374SOL     OW14562   1.765   4.229  10.344 -0.2389 -0.6044 -0.1259
 4374SOL    HW114563   1.710   4.216  10.421 -1.6012 -0.4737 -1.0523
 4374SOL    HW214564   1.770   4.143  10.303  1.4223 -0.9364  0.6692
 4375SOL     OW14565   7.037   4.703   2.072  0.0179 -0.0899  0.7726
 4375SOL    HW114566   6.946   4.712   2.043  0.2198 -0.8969 -0.1843
 4375SOL    HW214567   7.067   4.792   2.088  0.1746  0.6084 -2.5453
 4376SOL     OW14568   7.432   6.678   9.212 -0.2894  0.3120  0.3852
 4376SOL    HW114569   7.363   6.684   9.146 -1.1113  0.9799  1.2712
 4376SOL    HW214570   7.512   6.665   9.162 -1.0120 -0.1245 -0.6899
 4377SOL     OW14571   6.141   6.777   9.752 -0.0542  0.4553  0.0609
 4377SOL    HW114572   6.206   6.847   9.764 -0.2923  0.5789  0.7151
 4377SOL    HW214573   6.112   6.757   9.841  0.1681 -0.6348 -0.1045
 4378SOL     OW14574   1.474   4.264   2.627  0.0736  0.3363 -0.1847
 4378SOL    HW114575   1.526   4.335   2.591  1.3023 -0.5921 -0.3082
 4378SOL    HW214576   1.385   4.281   2.597  0.6744  0.8115 -1.7818
 4379SOL     OW14577   7.574   1.391   8.321  0.1701  0.2387 -0.1969
 4379SOL    HW114578   7.564   1.455   8.391 -0.2075  1.3598 -1.2274
 4379SOL    HW214579   7.663   1.403   8.290  0.2264 -0.0163 -0.1412
 4380SOL     OW14580   5.315   2.111   7.511  0.4585  0.4107  0.0730
 4380SOL    HW114581   5.404   2.128   7.541  0.9445 -1.0692 -0.4484
 4380SOL    HW214582   5.319   2.121   7.416 -0.1542  1.1885  0.1130
 4381SOL     OW14583   7.254   1.667   4.638 -0.0725  0.5065 -0.2125
 4381SOL    HW114584   7.202   1.742   4.609 -2.2351 -0.6738  0.4319
 4381SOL    HW214585   7.247   1.604   4.567  1.0420  0.5724 -0.3906
 4382SOL     OW14586   7.434   2.843   6.878  0.4750  0.4845  0.1292
 4382SOL    HW114587   7.397   2.864   6.792  0.4660  0.4924  0.1349
 4382SOL    HW214588   7.358   2.824   6.933  0.4798  0.4960  0.1398
 4383SOL     OW14589   1.379   5.423   4.173  0.3805  0.6784 -0.4493
 4383SOL    HW114590   1.352   5.381   4.255  2.7316  0.2558  0.1859
 4383SOL    HW214591   1.330   5.505   4.171 -3.5956 -1.4569 -1.2178
 4384SOL     OW14592   7.805   6.343  10.008 -0.2180 -0.0956  0.5408
 4384SOL    HW114593   7.722   6.296  10.015 -0.6951  0.6357 -0.1351
 4384SOL    HW214594   7.783   6.425   9.964  0.6592  0.6203  1.3861
 4385SOL     OW14595   1.367   4.299  12.306  0.4167  0.0612  0.0984
 4385SOL    HW114596   1.407   4.379  12.274 -1.1130  1.2300  0.9693
 4385SOL    HW214597   1.346   4.317  12.398  1.5953 -1.9690  0.8236
 4386SOL     OW14598   4.920   2.769   2.078 -0.0376 -0.2118  0.0384
 4386SOL    HW114599   4.897   2.851   2.035  0.1868 -1.1578 -1.9959
 4386SOL    HW214600   5.009   2.751   2.049 -0.0819 -1.1769  0.4557
 4387SOL     OW14601   5.234   7.397   2.918  0.1295  0.1549  0.2610
 4387SOL    HW114602   5.249   7.385   2.824 -0.8678  1.1042 -0.0376
 4387SOL    HW214603   5.300   7.342   2.960 -0.7717 -1.9839 -0.9881
 4388SOL     OW14604   2.224   0.794   1.586  0.3504 -0.1651 -0.2326
 4388SOL    HW114605   2.251   0.885   1.586  0.7626 -0.2809  0.0247
 4388SOL    HW214606   2.302   0.746   1.617  0.1066 -0.5878 -0.2622
 4389SOL     OW14607   5.053   2.240   5.980 -0.2514 -0.0723 -0.1554
 4389SOL    HW114608   5.087   2.264   5.894  1.0037  1.7997  0.7844
 4389SOL    HW214609   5.063   2.145   5.984  1.3053 -0.0125 -1.4229
 4390SOL     OW14610   6.121   1.732   3.936  0.2750  0.2429  0.2580
 4390SOL    HW114611   6.095   1.731   3.844  0.3225  0.4444  0.2404
 4390SOL    HW214612   6.078   1.810   3.972  2.5073  1.8375 -0.2809
 4391SOL     OW14613   6.957   2.771   6.975 -0.4109  0.0977 -0.2646
 4391SOL    HW114614   7.034   2.758   6.920  0.0051 -1.1964  0.5883
 4391SOL    HW214615   6.936   2.864   6.965 -0.2231 -0.0398 -2.4172
 4392SOL     OW14616   2.092   2.478   0.918 -0.4889  0.6757 -1.1752
 4392SOL    HW114617   2.173   2.428   0.920 -1.5000 -1.1020  0.8851
 4392SOL    HW214618   2.104   2.547   0.983 -0.5572  0.4846 -0.9563
 4393SOL     OW14619   2.459   0.381  10.416  0.1805 -0.0715  0.1850
 4393SOL    HW114620   2.480   0.294  10.383  0.2299  0.2647 -0.7109
 4393SOL    HW214621   2.377   0.404  10.373  1.3906  1.3128 -1.6025
 4394SOL     OW14622   2.891   0.923   2.024 -0.2685  0.3511  0.4380
 4394SOL    HW114623   2.854   0.916   1.936  0.2645 -0.4363  0.2680
 4394SOL    HW214624   2.965   0.863   2.024 -0.2937  0.2987  1.4425
 4395SOL     OW14625   0.140   2.443   7.247  0.3081  0.5675  0.3769
 4395SOL    HW114626   0.187   2.457   7.329 -0.3700  0.7940  0.7384
 4395SOL    HW214627   0.190   2.492   7.181  0.7287  0.5693  0.6959
 4396SOL     OW14628   2.847   4.731   6.496  0.3266 -0.5213  0.4603
 4396SOL    HW114629   2.874   4.658   6.441 -1.0821  0.1745 -1.2175
 4396SOL    HW214630   2.819   4.799   6.435 -0.1951  0.7329  2.0161
 4397SOL     OW14631   2.219   0.591   3.800  0.0579 -0.2673  0.2185
 4397SOL    HW114632   2.286   0.531   3.766  2.0031  2.6381 -1.4954
 4397SOL    HW214633   2.240   0.600   3.893  3.8218  2.3272 -0.6355
 4398SOL     OW14634   1.767   2.339   3.550 -0.4447 -0.7304 -0.3786
 4398SOL    HW114635   1.712   2.264   3.575 -1.5144 -0.0061 -0.4828
 4398SOL    HW214636   1.781   2.386   3.632  1.6402 -1.9107 -0.0003
 4399SOL     OW14637   4.295   6.345  11.831 -0.3866  0.0975 -0.1043
 4399SOL    HW114638   4.285   6.410  11.901 -0.0848  0.3471 -0.2934
 4399SOL    HW214639   4.253   6.266  11.866  0.3971  0.0046  0.6508
 4400SOL     OW14640   3.195   1.008  10.987 -0.0736 -0.2763 -0.0922
 4400SOL    HW114641   3.132   1.036  10.921  0.6437  1.7947  0.0537
 4400SOL    HW214642   3.211   1.085  11.041  0.7939 -1.3991  1.3594
 4401SOL     OW14643   3.640   1.133   2.113  0.2227 -0.2035  0.1477
 4401SOL    HW114644   3.558   1.180   2.123  0.0476 -0.4936  0.0701
 4401SOL    HW214645   3.668   1.151   2.023 -0.3473 -1.0572 -0.2061
 4402SOL     OW14646   1.538   1.980   9.766  0.2652 -0.5146 -0.0582
 4402SOL    HW114647   1.482   2.056   9.751  1.3670  0.4425  0.5204
 4402SOL    HW214648   1.595   1.977   9.689  0.6016 -0.4147  0.1865
 4403SOL     OW14649   5.915   6.136   8.028 -0.3936 -0.1595 -0.0938
 4403SOL    HW114650   5.907   6.124   8.123 -1.2495  1.1690  0.0194
 4403SOL    HW214651   5.874   6.220   8.011 -0.2301 -0.3747 -1.6571
 4404SOL     OW14652   7.073   2.128   4.042  0.0554  0.4844 -0.4693
 4404SOL    HW114653   7.068   2.063   4.112 -0.6664  1.5173  0.4765
 4404SOL    HW214654   7.041   2.083   3.964 -0.3040 -0.3382  0.1435
 4405SOL     OW14655   3.375   0.856   7.250  0.3442 -0.2909 -0.0122
 4405SOL    HW114656   3.317   0.784   7.277  0.7689 -0.8785 -0.6502
 4405SOL    HW214657   3.396   0.901   7.332 -0.1934 -0.6914  0.3548
 4406SOL     OW14658   2.546   1.792   5.295 -0.1560 -0.0088  0.0822
 4406SOL    HW114659   2.455   1.786   5.268 -0.1559  1.5277 -0.3361
 4406SOL    HW214660   2.547   1.759   5.385 -1.5370  1.9131  0.8723
 4407SOL     OW14661   2.706   6.561   0.176  0.2780  0.2663  0.3868
 4407SOL    HW114662   2.626   6.511   0.157  0.6259 -0.6888  1.3711
 4407SOL    HW214663   2.744   6.517   0.252  1.8848  0.5454 -0.2315
 4408SOL     OW14664   2.469   5.121   4.994 -0.3085 -0.5816  0.0644
 4408SOL    HW114665   2.419   5.153   4.919  1.6746  0.4574 -0.9191
 4408SOL    HW214666   2.447   5.181   5.065 -2.0838 -1.4777  0.3086
 4409SOL     OW14667   2.054   0.500   2.197 -0.2676  0.2127 -0.1491
 4409SOL    HW114668   1.959   0.504   2.185 -0.6312  0.4859  2.3601
 4409SOL    HW214669   2.089   0.487   2.109 -2.6420 -0.2406 -1.0838
 4410SOL     OW14670   6.903   4.199   2.099 -0.1439  0.1510 -0.0230
 4410SOL    HW114671   6.821   4.160   2.128 -0.1478  0.0299 -0.2007
 4410SOL    HW214672   6.971   4.142   2.134 -0.1169  0.4988  0.5105
 4411SOL     OW14673   7.535   7.484   4.047 -0.1067 -0.0067 -0.4440
 4411SOL    HW114674   7.576   7.455   4.128  0.3902 -0.7194 -0.9352
 4411SOL    HW214675   7.609   7.505   3.989 -0.4558  0.8428 -0.5976
 4412SOL     OW14676   1.654   5.528   4.745 -0.2166 -0.0101  0.6245
 4412SOL    HW114677   1.679   5.436   4.738  1.8375  0.4744  0.8229
 4412SOL    HW214678   1.661   5.547   4.838 -0.5173  0.3705  0.5693
 4413SOL     OW14679   1.373   5.296   2.853  0.2758 -0.3118  0.4535
 4413SOL    HW114680   1.394   5.238   2.926  2.6053 -2.0900 -1.4680
 4413SOL    HW214681   1.312   5.246   2.799  0.9907 -0.3216 -0.3657
 4414SOL     OW14682   2.000   4.100   8.816 -0.0844  0.3395  0.3106
 4414SOL    HW114683   2.089   4.135   8.810 -0.0167 -0.0248 -1.0944
 4414SOL    HW214684   1.947   4.161   8.764 -0.2609 -0.6454 -0.7061
 4415SOL     OW14685   2.120   5.237   1.109 -0.6813 -0.2883 -0.6935
 4415SOL    HW114686   2.031   5.260   1.137  0.5231  0.9245  2.5910
 4415SOL    HW214687   2.139   5.156   1.156  1.4616  1.8802  2.5963
 4416SOL     OW14688   1.595   4.764   2.691  0.3341 -0.0488 -0.1412
 4416SOL    HW114689   1.536   4.756   2.615  1.2932  0.9040 -1.0117
 4416SOL    HW214690   1.683   4.768   2.654  0.8998 -0.4565  1.0884
 4417SOL     OW14691   6.853   2.986  10.070 -0.2306 -0.3511  0.3860
 4417SOL    HW114692   6.834   3.019   9.982  0.9152 -1.2041 -0.2082
 4417SOL    HW214693   6.776   2.933  10.092  0.8546 -2.9958 -1.5944
 4418SOL     OW14694   7.491   0.987  10.404 -0.2398  0.0700  0.2040
 4418SOL    HW114695   7.532   1.073  10.417 -0.6471  0.4516 -0.8974
 4418SOL    HW214696   7.564   0.930  10.378 -0.0823  0.2596  0.2223
 4419SOL     OW14697   4.919   1.811   7.208  0.5963 -0.4679  0.3189
 4419SOL    HW114698   4.885   1.900   7.198  0.6050 -0.5522 -0.5338
 4419SOL    HW214699   5.002   1.811   7.160  1.3656 -0.5222  1.5928
 4420SOL     OW14700   5.072   2.469   3.333 -0.0941 -0.1999  0.0869
 4420SOL    HW114701   5.133   2.498   3.402 -2.5082 -1.1907  2.8652
 4420SOL    HW214702   5.020   2.400   3.375 -1.0912 -1.5708 -3.1244
 4421SOL     OW14703   4.709   5.784   0.028 -0.1027 -0.8091 -0.4806
 4421SOL    HW114704   4.678   5.820  -0.055  0.2065 -1.9697 -1.1230
 4421SOL    HW214705   4.630   5.761   0.075 -0.3148  0.8364  0.0262
 4422SOL     OW14706   6.652   0.422   0.884 -0.0763 -0.4533  0.4442
 4422SOL    HW114707   6.658   0.466   0.969  0.8044  0.4092 -0.0454
 4422SOL    HW214708   6.729   0.452   0.837 -0.3314 -1.2672 -0.5063
 4423SOL     OW14709   0.084   7.782  10.213 -0.0621 -0.0085  0.5214
 4423SOL    HW114710   0.164   7.753  10.257 -1.8706 -1.1960  3.3357
 4423SOL    HW214711   0.078   7.875  10.234 -0.7630 -0.5000  2.7664
 4424SOL     OW14712   3.351   3.474   1.546  0.1389  0.4900 -0.1093
 4424SOL    HW114713   3.398   3.505   1.624 -0.7792  0.9779  0.2590
 4424SOL    HW214714   3.264   3.450   1.577 -0.8531  2.3637 -1.2377
 4425SOL     OW14715   6.723   6.592   5.355 -0.0744  0.1550 -0.4594
 4425SOL    HW114716   6.799   6.640   5.321 -0.8533  1.1574 -0.8340
 4425SOL    HW214717   6.671   6.572   5.278 -0.7733  0.5167 -0.0930
 4426SOL     OW14718   5.475   5.398   6.987  0.4382 -0.0440 -0.1415
 4426SOL    HW114719   5.557   5.447   6.976  0.6913 -0.6476 -1.0872
 4426SOL    HW214720   5.411   5.465   7.011  1.1674  0.4634  0.4604
 4427SOL     OW14721   0.878   6.894  12.117  0.1645 -0.1405  0.3667
 4427SOL    HW114722   0.869   6.952  12.193  1.4377  0.2596  0.2289
 4427SOL    HW214723   0.807   6.830  12.128  0.4529 -0.2321  2.0299
 4428SOL     OW14724   2.189   2.693   3.073 -0.0942  0.0758  0.6417
 4428SOL    HW114725   2.142   2.644   3.006  1.3895 -1.7938  0.9117
 4428SOL    HW214726   2.131   2.767   3.093 -0.7261  0.5378 -2.4375
 4429SOL     OW14727   2.403   5.528   9.418  0.0645 -0.2212  0.0430
 4429SOL    HW114728   2.462   5.454   9.430 -0.5770 -0.7008  0.2833
 4429SOL    HW214729   2.448   5.602   9.460  0.1768 -0.7308  0.8279
 4430SOL     OW14730   6.965   6.290   2.586  0.6029 -0.0351  0.6384
 4430SOL    HW114731   6.881   6.319   2.622 -0.9864 -2.1042 -1.2140
 4430SOL    HW214732   6.995   6.222   2.647 -0.5460 -1.3361 -0.2020
 4431SOL     OW14733   5.914   5.539   9.784  0.6560  0.5409 -0.1905
 4431SOL    HW114734   5.995   5.487   9.782  1.9709  2.4935 -2.4784
 4431SOL    HW214735   5.850   5.485   9.737  0.7447 -0.7256  1.0575
 4432SOL     OW14736   2.488   6.771   2.873  0.4555 -0.1780  0.4046
 4432SOL    HW114737   2.467   6.857   2.909 -0.5098 -1.4356  3.1475
 4432SOL    HW214738   2.409   6.719   2.888  1.3058 -1.7571 -0.3963
 4433SOL     OW14739   7.963   3.509   4.968  0.2367  0.3078 -0.3738
 4433SOL    HW114740   7.943   3.437   5.028 -1.0724 -0.0548 -1.2181
 4433SOL    HW214741   8.052   3.534   4.991  0.0443 -0.3065  1.2300
 4434SOL     OW14742   3.175   5.404   7.190 -0.1093 -0.0374 -0.3195
 4434SOL    HW114743   3.079   5.400   7.199 -0.2103  0.6157 -1.0066
 4434SOL    HW214744   3.200   5.483   7.237  0.1051 -0.2216 -0.1203
 4435SOL     OW14745   5.361   5.715   6.100 -0.1806  0.6414 -0.5235
 4435SOL    HW114746   5.441   5.759   6.129 -1.1251  2.1837 -0.1319
 4435SOL    HW214747   5.293   5.750   6.157 -0.8230 -2.5496  0.9411
 4436SOL     OW14748   1.904   0.672   3.759  0.0785 -0.3973 -0.2473
 4436SOL    HW114749   1.940   0.600   3.707 -2.5580 -1.7273 -0.4631
 4436SOL    HW214750   1.809   0.656   3.757 -0.4160  1.8621  1.5688
 4437SOL     OW14751   1.380   7.271   9.500  0.0125  0.4498 -0.2911
 4437SOL    HW114752   1.411   7.293   9.588  0.1341 -0.5152 -0.0754
 4437SOL    HW214753   1.413   7.341   9.445  0.6546  0.6296  0.3054
 4438SOL     OW14754   1.919   3.847  10.231  0.1722  0.4187 -0.3164
 4438SOL    HW114755   1.868   3.822  10.309 -0.4534  0.8510 -0.5836
 4438SOL    HW214756   1.880   3.928  10.201  2.4750  2.0715  0.8168
 4439SOL     OW14757   6.963   6.613   8.646 -0.0278  0.2347 -0.6100
 4439SOL    HW114758   6.902   6.620   8.719 -0.2688 -2.3433 -0.4573
 4439SOL    HW214759   6.907   6.603   8.569  0.1328 -1.3721 -0.5631
 4440SOL     OW14760   3.807   7.686   8.549 -0.4167  0.0194  0.6566
 4440SOL    HW114761   3.829   7.667   8.457 -0.2027  1.5107  0.3712
 4440SOL    HW214762   3.801   7.600   8.590  0.5142 -0.6488 -0.5233
 4441SOL     OW14763   2.135   6.194  11.138 -0.5341 -0.8068 -0.3251
 4441SOL    HW114764   2.163   6.233  11.221 -1.4545  0.8797 -0.7510
 4441SOL    HW214765   2.197   6.230  11.074 -0.6998 -0.9488 -0.5631
 4442SOL     OW14766   0.985   7.350  10.541  0.3392 -0.0537 -0.0233
 4442SOL    HW114767   0.891   7.336  10.525  0.6393 -0.1471 -1.9124
 4442SOL    HW214768   1.029   7.279  10.495  1.3465 -0.5691  1.6436
 4443SOL     OW14769   5.868   7.716   4.658  0.6810  0.6107 -0.6090
 4443SOL    HW114770   5.878   7.626   4.692  0.2838  0.7993  0.0301
 4443SOL    HW214771   5.899   7.711   4.568 -1.3422 -0.6694 -1.2918
 4444SOL     OW14772   5.619   2.096   1.411 -0.3150 -0.2656  0.6004
 4444SOL    HW114773   5.530   2.119   1.439  0.2507  0.0987  2.1743
 4444SOL    HW214774   5.675   2.123   1.483  1.1127 -0.3568 -0.4333
 4445SOL     OW14775   0.947   3.854   8.605  0.3524  0.2261  0.1942
 4445SOL    HW114776   0.893   3.840   8.528  0.2064  0.8143  0.1796
 4445SOL    HW214777   0.915   3.791   8.669  1.1502 -0.9602 -0.5512
 4446SOL     OW14778   4.779   6.635   3.483  0.4008 -0.1436  0.1820
 4446SOL    HW114779   4.775   6.644   3.388  1.0608  0.4578  0.2030
 4446SOL    HW214780   4.751   6.545   3.500 -0.5907  0.0242 -0.5124
 4447SOL     OW14781   0.169   3.488   8.619 -0.1885  0.3603  0.6120
 4447SOL    HW114782   0.264   3.505   8.618 -0.0079 -0.5327 -0.6050
 4447SOL    HW214783   0.129   3.575   8.619  0.6450  0.7551  0.4265
 4448SOL     OW14784   1.438   4.905   5.390  1.0342  0.8177 -0.7408
 4448SOL    HW114785   1.432   4.859   5.475  0.0182  0.8200 -0.7964
 4448SOL    HW214786   1.524   4.946   5.391  0.9015  1.1085  0.4495
 4449SOL     OW14787   0.924   4.547   0.044 -0.4741  0.3320  0.3910
 4449SOL    HW114788   0.861   4.590   0.102 -2.9184 -1.7700 -0.5132
 4449SOL    HW214789   0.976   4.492   0.103  0.4871  1.9141  1.1150
 4450SOL     OW14790   5.333   0.266   2.015  0.4424 -0.0663 -0.1294
 4450SOL    HW114791   5.242   0.293   2.024  0.0889 -1.3795  0.5871
 4450SOL    HW214792   5.373   0.333   1.961 -1.5312 -0.6359 -2.5053
 4451SOL     OW14793   1.520   7.838   6.322  0.1143 -0.2374  0.4101
 4451SOL    HW114794   1.537   7.805   6.233 -0.5391 -1.1145  0.6019
 4451SOL    HW214795   1.444   7.789   6.352  0.4512 -0.0885  1.5401
 4452SOL     OW14796   0.596   5.434   6.028  0.0761 -0.0096  0.1683
 4452SOL    HW114797   0.524   5.440   6.091 -0.6707 -0.5821 -0.6088
 4452SOL    HW214798   0.660   5.499   6.058 -0.6214  0.2883  1.0465
 4453SOL     OW14799   7.410   6.953   9.715 -0.2682  0.4068 -0.8122
 4453SOL    HW114800   7.499   6.975   9.687 -0.1812 -1.0190 -1.7652
 4453SOL    HW214801   7.353   6.987   9.646 -0.4917  1.4140 -0.1511
 4454SOL     OW14802   2.221   0.732   9.685 -0.3361 -0.9166 -0.7132
 4454SOL    HW114803   2.209   0.692   9.771  0.2530 -0.1285 -0.2461
 4454SOL    HW214804   2.142   0.783   9.671  0.7129  1.2735  0.6886
 4455SOL     OW14805   5.041   4.550   0.028 -1.1772  0.3016  0.4702
 4455SOL    HW114806   5.060   4.639  -0.003  0.7662  0.4132  1.7994
 4455SOL    HW214807   5.127   4.512   0.045 -1.8102 -2.6989 -2.1919
 4456SOL     OW14808   0.695   4.015   6.858 -0.5624  0.5843 -0.0149
 4456SOL    HW114809   0.727   4.098   6.823 -1.1483  0.7130 -0.2600
 4456SOL    HW214810   0.600   4.026   6.862 -0.4999  0.7400  2.0207
 4457SOL     OW14811   3.388   1.058  11.995 -0.3437  0.5541 -0.3308
 4457SOL    HW114812   3.412   1.081  12.085 -2.2975  0.1759  0.3338
 4457SOL    HW214813   3.363   0.966  12.000 -0.0467  0.4048 -1.3789
 4458SOL     OW14814   7.774   4.521   2.635 -1.1021  0.2002  0.3447
 4458SOL    HW114815   7.735   4.436   2.656  2.6937 -1.4761  1.3326
 4458SOL    HW214816   7.789   4.562   2.720  1.3013 -0.2818  0.2080
 4459SOL     OW14817   1.110   2.562   8.897 -0.4117 -0.1172  0.2574
 4459SOL    HW114818   1.137   2.593   8.811 -1.8666  0.5213 -0.0014
 4459SOL    HW214819   1.067   2.637   8.937  0.8541 -0.1875  1.8417
 4460SOL     OW14820   4.656   2.904  12.019  0.4866 -0.3958  0.5222
 4460SOL    HW114821   4.683   2.996  12.022  1.0500 -0.5585  3.5162
 4460SOL    HW214822   4.601   2.893  12.097 -1.0628 -2.2228 -0.7225
 4461SOL     OW14823   0.802   0.184   9.873 -0.0478  0.0583  0.1478
 4461SOL    HW114824   0.799   0.088   9.867  1.6463  0.0426 -1.3240
 4461SOL    HW214825   0.781   0.215   9.785  1.3455  0.9414  0.0943
 4462SOL     OW14826   0.087   5.509  12.269  0.1333 -0.3869 -0.2672
 4462SOL    HW114827   0.179   5.484  12.272 -0.2669 -1.9162 -0.2004
 4462SOL    HW214828   0.059   5.489  12.179 -0.3157 -0.5889 -0.0853
 4463SOL     OW14829   5.920   5.468   6.123  0.2705  0.4938  0.1352
 4463SOL    HW114830   5.864   5.537   6.086 -0.6463 -0.4063 -0.2269
 4463SOL    HW214831   5.900   5.469   6.217  0.0594  0.5559  0.0918
 4464SOL     OW14832   6.409   3.347   9.435  0.2338 -0.2997  0.2097
 4464SOL    HW114833   6.475   3.416   9.444 -0.0983  0.1631 -0.7391
 4464SOL    HW214834   6.353   3.377   9.364 -0.8874 -0.7838  0.8685
 4465SOL     OW14835   3.650   3.797  11.806 -0.1236  0.1913  0.0911
 4465SOL    HW114836   3.569   3.811  11.757 -0.3199 -1.4497 -0.1100
 4465SOL    HW214837   3.716   3.782  11.739 -0.6109 -3.2223  0.2333
 4466SOL     OW14838   2.452   1.006   3.179 -0.0609  0.9446 -0.1064
 4466SOL    HW114839   2.456   1.092   3.139  0.4168  1.2634  0.6019
 4466SOL    HW214840   2.453   1.023   3.273  0.5274  0.1589  0.0478
 4467SOL     OW14841   7.697   3.377   4.649 -0.2534  0.5668  0.2876
 4467SOL    HW114842   7.779   3.413   4.684 -0.2298  1.8407 -0.9756
 4467SOL    HW214843   7.676   3.305   4.708  0.9898  1.1449  1.5151
 4468SOL     OW14844   7.909   5.759   5.029 -0.0752 -0.5596  0.0424
 4468SOL    HW114845   7.896   5.672   4.990 -1.6843 -0.8490  1.1341
 4468SOL    HW214846   7.828   5.806   5.010  0.5152  0.4877  0.0511
 4469SOL     OW14847   6.733   5.548   0.483  0.2881  0.3257  0.2516
 4469SOL    HW114848   6.688   5.548   0.398 -1.4494 -0.0737  1.1333
 4469SOL    HW214849   6.714   5.633   0.520  1.9396  0.9152 -0.1685
 4470SOL     OW14850   1.710   2.936  10.379  0.9247 -0.0276 -0.3136
 4470SOL    HW114851   1.680   2.854  10.339 -0.0245  0.1122  0.0927
 4470SOL    HW214852   1.675   3.004  10.323 -1.1486  0.2069  1.1592
 4471SOL     OW14853   7.230   1.703  11.610 -0.3457 -0.3489 -0.0070
 4471SOL    HW114854   7.260   1.676  11.696 -0.6687  0.6061  0.4217
 4471SOL    HW214855   7.309   1.731  11.564 -0.4589  1.6648  0.9303
 4472SOL     OW14856   4.103   6.400   5.268  0.1889  0.0548  0.0486
 4472SOL    HW114857   4.029   6.340   5.276  0.6599 -0.5897 -0.3293
 4472SOL    HW214858   4.144   6.377   5.185  0.2514  1.0574 -0.2113
 4473SOL     OW14859   2.942   0.822   6.188  0.2662 -0.0743  0.1819
 4473SOL    HW114860   3.029   0.859   6.174  1.5670 -3.5514 -2.0650
 4473SOL    HW214861   2.948   0.778   6.273  0.8914 -0.7724 -0.2191
 4474SOL     OW14862   6.530   4.321  10.591  0.4474 -0.2581 -0.0115
 4474SOL    HW114863   6.523   4.241  10.539  1.4196 -1.3684  1.4955
 4474SOL    HW214864   6.507   4.391  10.530  0.3816 -1.5984 -1.5940
 4475SOL     OW14865   5.434   5.700   9.102 -0.0636 -0.6961 -0.1359
 4475SOL    HW114866   5.456   5.792   9.111 -0.1853 -0.6833  0.0284
 4475SOL    HW214867   5.394   5.693   9.015 -2.8233 -0.0400  0.9746
 4476SOL     OW14868   0.690   0.543   5.680 -0.3849  0.3895 -0.0552
 4476SOL    HW114869   0.664   0.520   5.590  0.6573 -0.0502 -0.2635
 4476SOL    HW214870   0.714   0.459   5.719  1.3137  0.8154 -0.0980
 4477SOL     OW14871   3.193   0.121  12.106  0.2366  0.2472 -0.4417
 4477SOL    HW114872   3.151   0.139  12.190 -1.1219 -1.1858 -0.7776
 4477SOL    HW214873   3.131   0.154  12.041  1.0767  0.9408 -0.9171
 4478SOL     OW14874   1.532   4.867   0.801 -0.2941  0.3289 -0.0684
 4478SOL    HW114875   1.452   4.904   0.765 -1.0791 -0.9179  0.3325
 4478SOL    HW214876   1.506   4.783   0.838  0.9655  0.4362  1.1734
 4479SOL     OW14877   4.584   3.204   0.564  0.1324 -0.1611 -0.1916
 4479SOL    HW114878   4.613   3.216   0.474  1.2636  1.0081  0.2994
 4479SOL    HW214879   4.561   3.292   0.595  1.9686 -0.1342  1.3412
 4480SOL     OW14880   5.327   5.605   2.701 -0.0256  0.0830  0.0721
 4480SOL    HW114881   5.303   5.690   2.664 -0.6218 -0.5768 -1.1238
 4480SOL    HW214882   5.248   5.577   2.748  0.5166  0.6304  1.3566
 4481SOL     OW14883   0.547   5.634   3.207 -0.5180  0.7083 -0.4322
 4481SOL    HW114884   0.627   5.585   3.189 -0.4322  0.5199  0.4221
 4481SOL    HW214885   0.481   5.566   3.223 -0.8698  0.8594 -1.1722
 4482SOL     OW14886   4.718   4.542   0.299  0.5841  0.3245 -0.2029
 4482SOL    HW114887   4.773   4.549   0.377  1.5417  1.5398 -0.9421
 4482SOL    HW214888   4.780   4.543   0.226 -0.1056 -2.8111 -1.0143
 4483SOL     OW14889   1.222   6.124   1.645  0.4240  0.1331 -0.6811
 4483SOL    HW114890   1.213   6.173   1.564  0.4904  0.0856 -0.7184
 4483SOL    HW214891   1.225   6.032   1.617  2.2137  0.1888 -0.7959
 4484SOL     OW14892   6.774   2.554   1.798  0.2671 -0.3202  0.1000
 4484SOL    HW114893   6.779   2.534   1.892  0.0165  0.6840  0.3452
 4484SOL    HW214894   6.827   2.634   1.788  0.8424 -0.7918 -0.7372
 4485SOL     OW14895   1.536   5.173   0.377 -0.3844 -0.0033 -0.1904
 4485SOL    HW114896   1.537   5.115   0.453  0.9859  0.2561  0.0113
 4485SOL    HW214897   1.572   5.119   0.306 -1.1512 -0.0727 -0.5355
 4486SOL     OW14898   5.713   0.437   9.653 -0.1199  0.2394  0.2353
 4486SOL    HW114899   5.620   0.460   9.656  0.1185  1.2600  0.2137
 4486SOL    HW214900   5.721   0.361   9.710 -1.2984 -1.1082 -1.3318
 4487SOL     OW14901   6.002   7.229   1.595  0.0445  1.3406 -0.1018
 4487SOL    HW114902   6.018   7.139   1.620 -4.2240  0.0705 -1.0913
 4487SOL    HW214903   5.966   7.270   1.673  0.0723  1.6054 -0.2271
 4488SOL     OW14904   4.124   1.189   2.092  0.1510 -0.4141  0.0501
 4488SOL    HW114905   4.029   1.201   2.096  0.0991 -1.0591  1.2603
 4488SOL    HW214906   4.160   1.277   2.095 -0.3480 -0.2316  2.9391
 4489SOL     OW14907   1.367   6.123   0.155 -0.2986 -0.1370 -0.0210
 4489SOL    HW114908   1.314   6.071   0.215  0.1615 -1.0326 -0.3734
 4489SOL    HW214909   1.426   6.060   0.114 -0.2176  0.5491 -0.9977
 4490SOL     OW14910   6.135   7.192  10.866 -0.6256  0.0036  0.1590
 4490SOL    HW114911   6.079   7.257  10.909 -0.8880  0.2216 -0.5150
 4490SOL    HW214912   6.076   7.119  10.846 -0.2022 -0.7578  1.5337
 4491SOL     OW14913   6.256   3.956   7.173 -0.1869 -0.2327  0.4043
 4491SOL    HW114914   6.323   3.897   7.139  1.0778  0.9318  0.7830
 4491SOL    HW214915   6.235   3.922   7.260  0.9578  0.1610  0.8573
 4492SOL     OW14916   7.881   2.925   0.499 -0.4442 -0.8810  0.2091
 4492SOL    HW114917   7.852   2.973   0.422 -0.2391  0.3951  0.8942
 4492SOL    HW214918   7.925   2.848   0.464  0.5963  0.2123 -0.9982
 4493SOL     OW14919   1.684   1.507  11.031 -0.1919  0.2042  0.7488
 4493SOL    HW114920   1.683   1.603  11.035  1.6252  0.2571  1.1793
 4493SOL    HW214921   1.650   1.480  11.116 -1.9685  0.4024  0.1426
 4494SOL     OW14922   6.284   2.281   7.200  0.0737  0.1458 -0.1853
 4494SOL    HW114923   6.307   2.190   7.181  1.6695  1.1680 -4.1893
 4494SOL    HW214924   6.193   2.288   7.173  0.2182 -0.0863 -0.7616
 4495SOL     OW14925   2.575   3.277   6.310  0.1236  0.4515 -0.2205
 4495SOL    HW114926   2.583   3.199   6.365  2.6390  0.0048 -1.1175
 4495SOL    HW214927   2.536   3.342   6.368 -1.6842 -1.2763  0.6756
 4496SOL     OW14928   5.791   5.250   3.410  0.0882 -0.3836 -0.1072
 4496SOL    HW114929   5.810   5.280   3.499  0.1159 -0.6600 -0.0205
 4496SOL    HW214930   5.810   5.156   3.412  2.6581  0.0401 -1.1191
 4497SOL     OW14931   4.632   4.784  10.504  0.8648  0.1909  0.3579
 4497SOL    HW114932   4.557   4.793  10.563 -2.3648 -0.1142 -3.3260
 4497SOL    HW214933   4.666   4.873  10.495  0.0814  0.5726  1.0862
 4498SOL     OW14934   0.057   1.397   2.147 -0.4793  0.1411  0.3243
 4498SOL    HW114935   0.033   1.461   2.213  3.8508  0.8576  1.5254
 4498SOL    HW214936   0.057   1.446   2.065 -0.7053  0.7012  0.6552
 4499SOL     OW14937   2.473   1.506  10.428  0.0946  0.5231 -0.5826
 4499SOL    HW114938   2.542   1.447  10.457  0.1506  0.7635 -0.2223
 4499SOL    HW214939   2.438   1.465  10.348 -0.1356 -0.2096 -0.1193
 4500SOL     OW14940   4.206   6.820   9.762 -0.1065  0.6033  0.4425
 4500SOL    HW114941   4.217   6.891   9.825 -3.2915  1.1644  0.5184
 4500SOL    HW214942   4.162   6.861   9.688  0.8185 -0.6949 -0.8780
 4501SOL     OW14943   2.468   1.177   7.715  0.2239  0.0949  0.1855
 4501SOL    HW114944   2.544   1.197   7.768  0.1936 -2.1003  1.1610
 4501SOL    HW214945   2.404   1.244   7.737  0.8674  0.2805  1.5449
 4502SOL     OW14946   3.169   6.922   3.237 -0.4416 -0.1446 -0.4115
 4502SOL    HW114947   3.113   6.998   3.251 -0.6373 -0.3727  0.0560
 4502SOL    HW214948   3.193   6.927   3.144 -1.3121 -0.0909 -0.6489
 4503SOL     OW14949   5.112   7.928   0.342  0.3169 -0.5006  0.0056
 4503SOL    HW114950   5.123   7.833   0.332 -1.0465 -0.8480  1.4468
 4503SOL    HW214951   5.090   7.959   0.254 -1.9127 -1.9555 -0.0420
 4504SOL     OW14952   5.456   1.633   9.033 -0.3218  0.0547 -0.4079
 4504SOL    HW114953   5.392   1.651   8.964 -1.2034  0.0791  0.3884
 4504SOL    HW214954   5.535   1.607   8.987 -1.3665 -1.5320 -1.4007
 4505SOL     OW14955   2.091   6.530   8.698  0.3568  0.1624  0.2269
 4505SOL    HW114956   2.087   6.506   8.605 -0.7370 -0.6851  0.4742
 4505SOL    HW214957   2.124   6.453   8.742  0.1913  0.3171  0.6259
 4506SOL     OW14958   6.662   0.016  10.877 -0.7226 -0.3696 -0.5300
 4506SOL    HW114959   6.698   0.074  10.810 -0.1996  0.6892  0.6308
 4506SOL    HW214960   6.710   0.038  10.957 -0.8821 -2.0525  0.0708
 4507SOL     OW14961   5.471   0.749   5.131  0.6017 -0.0556  0.3024
 4507SOL    HW114962   5.505   0.827   5.086 -2.5758  1.6051  0.4751
 4507SOL    HW214963   5.445   0.690   5.060 -1.9641  1.4547 -0.1606
 4508SOL     OW14964   0.777   2.889   5.479 -0.4623  0.8307  0.0605
 4508SOL    HW114965   0.737   2.861   5.397 -0.4718  0.9031  0.0407
 4508SOL    HW214966   0.830   2.965   5.456 -2.1476  2.1919  0.4753
 4509SOL     OW14967   1.196   2.819   4.435 -1.2670 -0.7362 -0.1710
 4509SOL    HW114968   1.146   2.871   4.372 -0.9089  1.4532  1.2043
 4509SOL    HW214969   1.157   2.842   4.520  0.5827 -0.7265  0.7146
 4510SOL     OW14970   6.397   1.803   5.345 -0.0480  0.8837  0.3187
 4510SOL    HW114971   6.305   1.829   5.342 -0.3457 -0.2445 -1.0379
 4510SOL    HW214972   6.396   1.709   5.360  0.7953  0.4935 -1.7306
 4511SOL     OW14973   3.853   4.089   2.861 -0.1509 -0.9923 -0.2906
 4511SOL    HW114974   3.858   4.128   2.949  1.9870  0.8850 -1.1628
 4511SOL    HW214975   3.807   4.006   2.875 -1.3244 -0.0206  2.3226
 4512SOL     OW14976   3.398   5.223   2.283  0.2538  0.0756  0.5278
 4512SOL    HW114977   3.447   5.265   2.212 -0.3707  0.8076  0.5196
 4512SOL    HW214978   3.410   5.281   2.358  0.0628 -0.1638  0.7431
 4513SOL     OW14979   2.902   4.385  10.730 -0.2013  0.3478 -0.4520
 4513SOL    HW114980   2.878   4.464  10.778  0.9104  0.8705 -0.7226
 4513SOL    HW214981   2.935   4.418  10.646 -0.4851 -0.4535 -0.8848
 4514SOL     OW14982   6.659   5.665   5.364 -0.0107 -0.5030 -0.1109
 4514SOL    HW114983   6.662   5.610   5.285 -2.3544  1.1178 -1.4533
 4514SOL    HW214984   6.594   5.623   5.420  2.1163 -2.0203  1.3860
 4515SOL     OW14985   5.669   3.773   5.420  0.0754 -0.2334  0.3069
 4515SOL    HW114986   5.637   3.863   5.413 -0.5535 -0.4361  0.5028
 4515SOL    HW214987   5.660   3.753   5.514  0.7491 -0.3060  0.3571
 4516SOL     OW14988   0.745   1.871   5.034 -0.0006  0.3545  0.2959
 4516SOL    HW114989   0.674   1.815   5.066  0.0849  0.6202  0.9696
 4516SOL    HW214990   0.734   1.872   4.939 -2.0596  1.9130  0.4900
 4517SOL     OW14991   3.024   1.744   9.114  0.3392  0.3420  0.7546
 4517SOL    HW114992   3.022   1.690   9.193 -0.4915  0.3745  0.7577
 4517SOL    HW214993   3.076   1.693   9.052 -1.3792 -1.0196  0.3709
 4518SOL     OW14994   0.073   1.799   7.423  0.5460  0.4364  0.1475
 4518SOL    HW114995   0.058   1.889   7.452  1.3410  0.1981  1.3849
 4518SOL    HW214996   0.050   1.746   7.500  1.1732 -0.3341 -0.1917
 4519SOL     OW14997   4.134   1.774   2.625  0.3294 -0.3979  0.1157
 4519SOL    HW114998   4.072   1.711   2.588 -2.4239  1.9116  0.4603
 4519SOL    HW214999   4.218   1.727   2.627 -1.2376 -3.4990 -0.9287
 4520SOL     OW15000   6.551   2.864  11.863 -0.4240 -0.6666  0.1129
 4520SOL    HW115001   6.607   2.913  11.803  0.9154 -2.5973 -0.2855
 4520SOL    HW215002   6.507   2.799  11.808 -2.2062  0.0334  0.6249
 4521SOL     OW15003   3.926   2.722   9.343 -0.0610  0.3534 -0.3366
 4521SOL    HW115004   3.959   2.707   9.431  1.1661 -0.3370 -0.8932
 4521SOL    HW215005   3.886   2.809   9.346 -1.3016 -0.2278  1.2412
 4522SOL     OW15006   2.574   0.308  11.726  0.1525 -0.1465 -0.3968
 4522SOL    HW115007   2.642   0.240  11.726  0.1428 -0.1931 -1.8871
 4522SOL    HW215008   2.542   0.310  11.635  0.0420  1.7303 -0.3591
 4523SOL     OW15009   2.223   7.697   5.391  0.4221 -0.1787 -0.4550
 4523SOL    HW115010   2.217   7.632   5.461 -1.6321  0.8831  0.4223
 4523SOL    HW215011   2.132   7.722   5.373  1.0089  0.8071 -2.3561
 4524SOL     OW15012   6.693   0.298   7.823 -0.3821  0.6419 -0.1943
 4524SOL    HW115013   6.656   0.212   7.802 -1.1695  1.0385 -0.4880
 4524SOL    HW215014   6.649   0.325   7.904 -1.1730  1.3572 -0.8394
 4525SOL     OW15015   6.901   0.810  11.871  0.3628  0.8632  0.2021
 4525SOL    HW115016   6.972   0.757  11.906  0.2467  0.0757 -0.7124
 4525SOL    HW215017   6.884   0.875  11.939  0.9963  0.1830  1.0345
 4526SOL     OW15018   3.991   7.715   0.035 -0.5996  0.5366  0.0096
 4526SOL    HW115019   4.068   7.669   0.002 -1.5289 -0.8665 -0.2908
 4526SOL    HW215020   3.974   7.784  -0.028 -0.6096 -0.2536 -0.8665
 4527SOL     OW15021   1.256   6.956   5.537 -0.0284  0.6183 -0.5375
 4527SOL    HW115022   1.345   6.923   5.540 -0.7550 -1.8130 -2.6975
 4527SOL    HW215023   1.208   6.901   5.599 -0.4441  0.5342 -0.9375
 4528SOL     OW15024   6.592   6.984  11.185  0.1080 -0.0393  0.0747
 4528SOL    HW115025   6.644   7.058  11.216  1.7707 -0.4147 -1.6608
 4528SOL    HW215026   6.646   6.943  11.118 -1.9015 -1.2593 -0.8830
 4529SOL     OW15027   7.704   1.672   7.627  0.7613  0.4176 -0.0391
 4529SOL    HW115028   7.690   1.741   7.562  1.3718  0.5875 -0.0034
 4529SOL    HW215029   7.682   1.713   7.710 -0.1353  0.1633 -0.1448
 4530SOL     OW15030   2.481   4.312   1.508 -0.2421 -0.1272 -0.5177
 4530SOL    HW115031   2.564   4.283   1.544  0.0741 -1.4070 -2.1214
 4530SOL    HW215032   2.484   4.407   1.512  0.8728 -0.1785  0.3348
 4531SOL     OW15033   4.052   5.220   7.583  0.0075 -0.1099  0.1558
 4531SOL    HW115034   4.003   5.294   7.547  0.9743  0.3684 -0.1941
 4531SOL    HW215035   4.033   5.147   7.525 -0.7536 -0.0829  0.3605
 4532SOL     OW15036   0.490   3.978   4.107  0.3644  0.1393 -0.1149
 4532SOL    HW115037   0.468   3.889   4.135  1.2652 -0.2643 -0.6372
 4532SOL    HW215038   0.569   4.000   4.158  0.0471  0.7135  0.1433
 4533SOL     OW15039   5.852   3.160  10.600  0.1620  0.4975  0.1167
 4533SOL    HW115040   5.773   3.199  10.562  1.1029  1.5774 -0.7823
 4533SOL    HW215041   5.822   3.121  10.682 -1.2701  1.0524 -0.1174
 4534SOL     OW15042   6.849   6.135   5.052  0.3113  0.7172 -0.2375
 4534SOL    HW115043   6.820   6.144   5.142  0.7142  2.0798 -0.2214
 4534SOL    HW215044   6.926   6.078   5.057 -0.5510 -0.4491  0.0744
 4535SOL     OW15045   0.437   1.265   2.548  0.1181  0.0961 -0.1403
 4535SOL    HW115046   0.479   1.347   2.573 -0.2324  0.3293 -0.3081
 4535SOL    HW215047   0.389   1.286   2.468 -0.8136 -0.0041  0.3741
 4536SOL     OW15048   5.076   5.631  12.312  0.5420 -0.4423 -0.7007
 4536SOL    HW115049   5.102   5.700  12.250 -1.7477  1.2807  0.1104
 4536SOL    HW215050   5.155   5.613  12.362  0.5557  4.6865  1.8422
 4537SOL     OW15051   6.951   3.913   2.840  0.2794  0.0070  0.8338
 4537SOL    HW115052   6.878   3.908   2.902 -1.6527 -2.0661 -1.3399
 4537SOL    HW215053   6.959   4.006   2.818 -2.5283  0.2309  0.3869
 4538SOL     OW15054   1.051   0.216  11.598  0.5148 -0.3578 -0.0024
 4538SOL    HW115055   1.074   0.142  11.541 -0.1185  0.3628 -1.2474
 4538SOL    HW215056   0.987   0.265  11.547 -1.5649 -0.7114  2.1168
 4539SOL     OW15057   1.449   5.891  11.961  0.1935 -0.6094 -0.6173
 4539SOL    HW115058   1.412   5.830  12.025 -0.1555  0.3318  0.1167
 4539SOL    HW215059   1.430   5.851  11.876 -0.1624 -1.4408 -0.1597
 4540SOL     OW15060   0.133   6.734   6.485 -0.0278  0.4317 -1.0040
 4540SOL    HW115061   0.185   6.738   6.566  0.8545  0.7203 -1.5697
 4540SOL    HW215062   0.159   6.812   6.436 -2.3747  1.5904 -0.5195
 4541SOL     OW15063   7.371   6.693   3.891  0.2289 -0.3090 -0.3736
 4541SOL    HW115064   7.401   6.654   3.809 -1.0763 -1.3845 -0.3785
 4541SOL    HW215065   7.278   6.709   3.877  0.3595  1.1327  0.2984
 4542SOL     OW15066   3.017   1.254   1.913  1.2323  0.5085  0.5833
 4542SOL    HW115067   3.086   1.314   1.943 -0.1307  1.2214  2.4632
 4542SOL    HW215068   3.012   1.187   1.982  2.7157 -1.8883 -1.4538
 4543SOL     OW15069   5.312   5.002   5.653 -0.1537 -0.0234 -0.5938
 4543SOL    HW115070   5.346   4.914   5.637  0.2263  0.0258 -0.0819
 4543SOL    HW215071   5.220   4.989   5.676  0.4075 -0.4966  1.5801
 4544SOL     OW15072   7.108   1.226   0.077  0.1081  0.5387  0.4039
 4544SOL    HW115073   7.053   1.216   0.155  0.0750  0.4193  0.3649
 4544SOL    HW215074   7.051   1.201   0.004  0.2241  0.3864  0.3666
 4545SOL     OW15075   6.982   0.244   9.803 -0.6364  0.5087  0.0719
 4545SOL    HW115076   6.928   0.320   9.827  0.7101  1.4595  0.1878
 4545SOL    HW215077   6.961   0.178   9.869 -0.3326  1.5011  1.2023
 4546SOL     OW15078   4.188   7.845   5.914  0.1956 -0.0899 -0.4091
 4546SOL    HW115079   4.176   7.938   5.895  1.6462  0.3041  0.4513
 4546SOL    HW215080   4.184   7.802   5.829 -0.1748  0.7955 -0.8489
 4547SOL     OW15081   7.127   4.426   7.958  0.2835 -0.3350 -0.2755
 4547SOL    HW115082   7.196   4.362   7.942 -0.1648 -0.5696 -1.3143
 4547SOL    HW215083   7.052   4.393   7.908 -0.0118  0.8989 -0.6625
 4548SOL     OW15084   3.481   0.743   0.500  0.5211 -0.1565 -0.6099
 4548SOL    HW115085   3.521   0.737   0.413  1.6900  0.8928 -0.1789
 4548SOL    HW215086   3.431   0.824   0.499 -1.9003 -1.5756 -1.2191
 4549SOL     OW15087   0.657   3.793   9.923  0.4722  0.5801 -0.8322
 4549SOL    HW115088   0.604   3.723   9.960  1.5472 -1.0522 -2.2266
 4549SOL    HW215089   0.595   3.864   9.906 -0.7269 -0.1951  0.1810
 4550SOL     OW15090   2.766   1.232   2.396  0.1726 -0.4679 -0.0677
 4550SOL    HW115091   2.789   1.290   2.469 -2.1481 -0.2440  0.5482
 4550SOL    HW215092   2.763   1.145   2.435  1.6392 -0.7659 -0.5502
 4551SOL     OW15093   0.042   5.079   9.921  0.1237 -0.1949 -0.1818
 4551SOL    HW115094   0.118   5.113   9.970  1.3361 -2.2064 -0.5746
 4551SOL    HW215095   0.038   5.134   9.843 -1.0334  2.2033  1.3997
 4552SOL     OW15096   5.647   3.855  12.080  1.5314 -0.1532  0.0514
 4552SOL    HW115097   5.615   3.934  12.036 -1.0477 -1.3730 -0.4596
 4552SOL    HW215098   5.738   3.848  12.054  1.1527  1.3097 -1.8914
 4553SOL     OW15099   6.335   1.758  11.696  0.0348  0.1253  0.0002
 4553SOL    HW115100   6.385   1.677  11.703 -0.7486 -0.4592 -1.0103
 4553SOL    HW215101   6.284   1.748  11.616  0.2515  1.7944 -0.3870
 4554SOL     OW15102   0.782   3.774   3.865  0.1439  0.5434  0.1555
 4554SOL    HW115103   0.848   3.705   3.864 -0.7594 -0.3510  0.3210
 4554SOL    HW215104   0.794   3.819   3.948  1.3709  1.2343 -0.3745
 4555SOL     OW15105   6.288   1.166   7.551  0.2029  0.5771  0.0817
 4555SOL    HW115106   6.267   1.147   7.642  1.0742  0.8167  0.3428
 4555SOL    HW215107   6.375   1.206   7.554  0.2262  0.6264 -0.8508
 4556SOL     OW15108   7.304   3.560   6.966 -0.0335 -0.0421 -0.0114
 4556SOL    HW115109   7.333   3.649   6.944 -0.8561  0.7800  2.0139
 4556SOL    HW215110   7.382   3.506   6.953  0.5752  1.0136 -0.9710
 4557SOL     OW15111   1.525   3.770  10.545 -0.2011 -0.0853 -0.2435
 4557SOL    HW115112   1.445   3.779  10.493  0.9221  0.3656 -1.9891
 4557SOL    HW215113   1.586   3.725  10.486  0.9165 -0.2220  0.9754
 4558SOL     OW15114   3.661   5.488   4.925  0.3639  0.2760  0.8183
 4558SOL    HW115115   3.654   5.394   4.944  1.2484  0.1673  0.6365
 4558SOL    HW215116   3.607   5.530   4.993 -0.9556 -0.4120  0.2374
 4559SOL     OW15117   4.720   0.012   4.961 -0.4728 -0.0812  0.2009
 4559SOL    HW115118   4.761   0.067   4.894  0.7845 -0.3876  0.6868
 4559SOL    HW215119   4.656  -0.041   4.913  0.2110 -0.1013 -0.7243
 4560SOL     OW15120   3.827   4.151   4.031  0.4398 -0.4148 -0.0644
 4560SOL    HW115121   3.786   4.097   3.962  0.4272 -0.1090 -0.2984
 4560SOL    HW215122   3.796   4.112   4.113 -3.5399  2.0831 -0.1112
 4561SOL     OW15123   3.013   6.778   7.356  0.2469  0.2064  0.0147
 4561SOL    HW115124   3.039   6.806   7.268 -0.8932  0.7946 -0.1604
 4561SOL    HW215125   3.061   6.697   7.371 -0.7985 -0.8411 -1.8493
 4562SOL     OW15126   1.242   0.506   6.096  0.2039 -0.2632 -0.1563
 4562SOL    HW115127   1.229   0.411   6.102  0.7868 -0.4750 -1.8116
 4562SOL    HW215128   1.168   0.543   6.145 -0.1552 -1.5667  0.3239
 4563SOL     OW15129   2.255   4.989   4.566 -0.1340 -0.0249  0.3306
 4563SOL    HW115130   2.202   4.914   4.541 -0.0411 -0.0213  0.1155
 4563SOL    HW215131   2.196   5.064   4.559  0.0156  0.0388 -0.3511
 4564SOL     OW15132   2.478   7.470   1.651  0.4205  0.2568  0.6204
 4564SOL    HW115133   2.522   7.401   1.601 -2.4193  0.0517 -1.9146
 4564SOL    HW215134   2.514   7.463   1.739  2.0415 -2.8239 -0.1514
 4565SOL     OW15135   2.260   0.992   6.446 -0.2932 -0.1357  0.6325
 4565SOL    HW115136   2.324   0.960   6.510  0.5799 -1.1853 -0.7080
 4565SOL    HW215137   2.254   0.922   6.381 -1.0011  0.9700 -0.5427
 4566SOL     OW15138   5.184   3.981   4.474  0.3387 -0.2091  0.1964
 4566SOL    HW115139   5.247   3.946   4.411  0.7224  1.5666 -0.4725
 4566SOL    HW215140   5.114   4.018   4.421 -0.8518 -1.3475  0.9222
 4567SOL     OW15141   2.462   0.758   7.035  0.2950 -0.3559 -0.3810
 4567SOL    HW115142   2.515   0.678   7.031 -0.1860 -0.6398 -1.6011
 4567SOL    HW215143   2.439   0.768   7.127 -1.1170 -2.6047 -0.4200
 4568SOL     OW15144   7.582   5.343   4.742 -0.3108  0.0290 -0.1361
 4568SOL    HW115145   7.514   5.314   4.682  0.0706 -0.1277 -0.4942
 4568SOL    HW215146   7.560   5.301   4.826 -0.2489 -0.5899 -0.4270
 4569SOL     OW15147   6.663   5.413   1.056 -0.8399 -0.6881  0.2461
 4569SOL    HW115148   6.596   5.345   1.050 -3.6036  1.1404  4.9079
 4569SOL    HW215149   6.724   5.381   1.122 -0.3577  0.0690  0.1784
 4570SOL     OW15150   5.299   5.958   3.873 -0.1272  0.4130 -0.2878
 4570SOL    HW115151   5.304   5.887   3.809 -1.4008  0.1711 -0.1609
 4570SOL    HW215152   5.306   5.914   3.958  2.0934  0.7887 -0.2291
 4571SOL     OW15153   2.991   7.150   1.591 -0.5389 -0.3278 -0.0382
 4571SOL    HW115154   2.937   7.222   1.623 -0.4270 -0.3161  0.1245
 4571SOL    HW215155   2.940   7.111   1.519 -0.5592 -0.0325 -0.1838
 4572SOL     OW15156   7.374   6.774  10.236  0.4038  0.2863 -0.5891
 4572SOL    HW115157   7.404   6.851  10.187  1.8823  0.2490  0.2293
 4572SOL    HW215158   7.408   6.699  10.187  1.6102  0.2422  0.2687
 4573SOL     OW15159   5.638   0.286   7.781 -0.2600 -0.7049  0.0694
 4573SOL    HW115160   5.575   0.218   7.804 -0.3289 -1.2907 -1.7276
 4573SOL    HW215161   5.637   0.289   7.685 -0.1473  1.7382  0.0841
 4574SOL     OW15162   7.143   5.676  12.171 -0.1412  0.4883 -0.0218
 4574SOL    HW115163   7.171   5.705  12.085  1.2386  1.7447  0.8169
 4574SOL    HW215164   7.223   5.670  12.222 -0.6742 -2.1639  0.6702
 4575SOL     OW15165   5.908   4.820  11.384 -0.1334  0.5335  0.2067
 4575SOL    HW115166   5.862   4.858  11.459 -0.2163 -0.4957  0.6923
 4575SOL    HW215167   5.867   4.734  11.371 -0.5709  0.9446 -1.4378
 4576SOL     OW15168   1.499   2.304   6.703 -0.3561  0.7504 -0.2515
 4576SOL    HW115169   1.427   2.279   6.759  0.8133  2.7165  2.3470
 4576SOL    HW215170   1.467   2.381   6.655 -0.7135  0.2208 -0.8826
 4577SOL     OW15171   5.833   7.150  11.405 -0.2824 -0.1846 -0.5096
 4577SOL    HW115172   5.738   7.158  11.411 -0.1904 -0.0484  1.5170
 4577SOL    HW215173   5.849   7.106  11.321 -2.1133 -0.0802 -0.9388
 4578SOL     OW15174   7.970   1.909   7.791 -0.7730  0.4219 -0.4931
 4578SOL    HW115175   7.944   1.974   7.727  4.8277  1.7786 -1.9433
 4578SOL    HW215176   7.992   1.831   7.739  0.9925  0.5113  0.0691
 4579SOL     OW15177   3.697   5.752   1.275 -0.4757  0.3009  0.5805
 4579SOL    HW115178   3.645   5.776   1.352 -1.7162 -0.2236 -0.0759
 4579SOL    HW215179   3.664   5.809   1.205 -0.9036 -0.7368 -0.0920
 4580SOL     OW15180   1.656   5.942   7.948 -0.2840 -0.1779 -0.3448
 4580SOL    HW115181   1.658   5.847   7.955 -1.2344 -0.1053  1.4735
 4580SOL    HW215182   1.681   5.973   8.035 -2.3015  1.1662 -0.1616
 4581SOL     OW15183   6.342   0.798   7.205 -0.3073  0.2420  0.1365
 4581SOL    HW115184   6.357   0.722   7.149 -0.5108  0.4862 -0.2561
 4581SOL    HW215185   6.428   0.839   7.214 -0.2845  0.2337 -0.0439
 4582SOL     OW15186   6.849   2.735   4.427  0.2812 -0.1129 -0.0375
 4582SOL    HW115187   6.855   2.731   4.332  1.8013  0.5073 -0.0153
 4582SOL    HW215188   6.758   2.714   4.447  0.4247 -2.3950 -1.4716
 4583SOL     OW15189   2.450   5.448   1.825 -0.3579 -0.4183  0.1354
 4583SOL    HW115190   2.369   5.402   1.848 -0.1939 -1.2033 -0.7800
 4583SOL    HW215191   2.440   5.469   1.732 -0.8509  2.3283  0.7226
 4584SOL     OW15192   3.817   1.484  10.335  0.2939 -0.2660  0.6252
 4584SOL    HW115193   3.912   1.467  10.336  0.0694 -1.6128  1.8272
 4584SOL    HW215194   3.792   1.484  10.428 -0.6637  1.5650  0.4180
 4585SOL     OW15195   0.921   6.934   0.712 -0.4338 -0.4858 -0.5110
 4585SOL    HW115196   1.002   6.946   0.661 -0.4692 -1.1024 -0.7232
 4585SOL    HW215197   0.863   7.003   0.680 -0.4226 -0.8045 -1.2535
 4586SOL     OW15198   1.046   3.048   2.675  0.2949 -0.0619 -0.3008
 4586SOL    HW115199   1.019   3.042   2.767  1.4723 -0.1299  0.0690
 4586SOL    HW215200   1.054   3.142   2.658  0.6742 -0.0573 -0.1278
 4587SOL     OW15201   5.048   4.010   5.807  0.3027 -0.6688 -0.4085
 4587SOL    HW115202   4.959   3.976   5.812 -0.5035  1.1531 -1.2727
 4587SOL    HW215203   5.069   4.038   5.896  0.5569 -2.3296  0.0760
 4588SOL     OW15204   5.907   3.419   4.119  0.0445  0.2356  0.1382
 4588SOL    HW115205   5.929   3.422   4.212  1.0717  0.8094 -0.1155
 4588SOL    HW215206   5.823   3.373   4.116 -0.2429  0.6475  1.3898
 4589SOL     OW15207   3.781   0.746   8.681 -0.4020  0.0687  0.3098
 4589SOL    HW115208   3.818   0.790   8.757 -0.4894  0.4630  0.1316
 4589SOL    HW215209   3.847   0.683   8.655  0.2658  0.9389 -0.1536
 4590SOL     OW15210   2.069   0.968  10.003  0.6056  0.0034  0.2738
 4590SOL    HW115211   2.115   1.050   9.987  0.3094 -0.0372 -0.9023
 4590SOL    HW215212   2.080   0.952  10.097  3.0936 -0.0900  0.0433
 4591SOL     OW15213   5.735   2.773   7.152 -0.2535  0.2765  0.0837
 4591SOL    HW115214   5.648   2.805   7.178 -0.2475  0.1770  0.2249
 4591SOL    HW215215   5.747   2.807   7.063 -0.1616  0.8367  0.3089
 4592SOL     OW15216   1.031   0.789  11.701  0.2886  0.2698 -0.5342
 4592SOL    HW115217   1.091   0.846  11.747  1.1251 -1.0928  0.1293
 4592SOL    HW215218   1.086   0.741  11.639 -0.0376 -1.1301  0.2141
 4593SOL     OW15219   6.751   2.094   1.521 -0.0407 -0.2230  0.2892
 4593SOL    HW115220   6.755   2.188   1.538 -0.7639 -0.0941 -0.2050
 4593SOL    HW215221   6.834   2.060   1.555  0.6261  0.7187 -0.3368
 4594SOL     OW15222   1.480   7.330   6.508  0.4749  0.2863 -0.2585
 4594SOL    HW115223   1.454   7.367   6.424 -0.9626 -1.5343 -0.6935
 4594SOL    HW215224   1.461   7.399   6.572 -2.3725  0.3044 -0.9880
 4595SOL     OW15225   4.288   4.179   6.121 -0.0074  0.0737  0.6785
 4595SOL    HW115226   4.251   4.217   6.201 -0.1999 -3.0390  2.2332
 4595SOL    HW215227   4.382   4.179   6.136  0.0046  0.1232  0.6016
 4596SOL     OW15228   5.688   4.271   6.111 -0.1714  0.3835  0.2587
 4596SOL    HW115229   5.646   4.195   6.151  2.3436 -0.3445  1.7476
 4596SOL    HW215230   5.696   4.335   6.182  3.7169 -0.6449  0.9936
 4597SOL     OW15231   0.990   1.835  10.447  0.4649 -0.3520 -0.1079
 4597SOL    HW115232   0.988   1.745  10.479 -0.2595  0.2028  1.4954
 4597SOL    HW215233   1.066   1.874  10.489 -1.9933  1.1578  3.3676
 4598SOL     OW15234   4.321   7.608   5.419  0.6419 -0.4230 -0.7179
 4598SOL    HW115235   4.395   7.664   5.441 -0.5193  0.0235  2.7543
 4598SOL    HW215236   4.361   7.530   5.379  2.7447  0.7100 -0.9607
 4599SOL     OW15237   3.913   3.421   0.321  0.0673 -0.1566  0.0015
 4599SOL    HW115238   3.919   3.516   0.313  0.0983 -0.2657 -1.6708
 4599SOL    HW215239   3.864   3.393   0.243  0.1900 -1.5316  0.3789
 4600SOL     OW15240   6.488   0.987   9.719  0.0820 -0.1308  0.2971
 4600SOL    HW115241   6.427   0.970   9.791 -0.6638  0.2421 -0.2351
 4600SOL    HW215242   6.543   0.909   9.715  1.3480  0.5587  2.4447
 4601SOL     OW15243   0.057   1.129   5.669 -0.2442  0.0847 -0.3098
 4601SOL    HW115244  -0.020   1.186   5.678 -0.5359 -0.5419  1.5180
 4601SOL    HW215245   0.118   1.160   5.735 -0.3892 -1.6441  0.6915
 4602SOL     OW15246   1.147   6.150  11.593  0.0323  0.1319 -0.0053
 4602SOL    HW115247   1.185   6.094  11.525 -1.0552  0.7049 -1.1288
 4602SOL    HW215248   1.215   6.215  11.611  1.4644 -1.7032  1.5970
 4603SOL     OW15249   6.725   4.089   6.203  0.0855 -0.1306 -0.0444
 4603SOL    HW115250   6.736   4.184   6.207  1.4032 -0.3046  0.9879
 4603SOL    HW215251   6.681   4.067   6.285 -1.4466 -0.2976 -0.8687
 4604SOL     OW15252   2.796   4.330  11.740  0.5587  0.0428  0.1624
 4604SOL    HW115253   2.748   4.313  11.659  2.3792  1.3010 -1.2685
 4604SOL    HW215254   2.832   4.418  11.728 -1.1468  1.3230  3.4314
 4605SOL     OW15255   7.581   7.305   7.392  0.3109  0.5439  0.3341
 4605SOL    HW115256   7.571   7.389   7.435  0.8490 -0.2650  2.1187
 4605SOL    HW215257   7.506   7.253   7.421 -0.3786  0.5766 -1.2630
 4606SOL     OW15258   0.058   7.968   1.532  0.3204  0.0647  0.1755
 4606SOL    HW115259   0.101   8.052   1.543  0.7806 -0.2648  0.9486
 4606SOL    HW215260  -0.013   7.985   1.469 -0.5840  1.3777  1.4878
 4607SOL     OW15261   0.826   0.972   0.064  0.6351 -0.6843  0.2360
 4607SOL    HW115262   0.893   0.952  -0.001  1.1476 -1.2867  0.9307
 4607SOL    HW215263   0.874   0.984   0.146 -0.2207 -3.5151  1.2716
 4608SOL     OW15264   1.671   5.662   8.859  0.4589 -0.5688  0.1235
 4608SOL    HW115265   1.689   5.686   8.768  1.2135 -0.7325  0.2284
 4608SOL    HW215266   1.728   5.718   8.911  0.8204 -1.2294  0.4511
 4609SOL     OW15267   5.091   3.000   6.710 -0.4984  0.3300 -0.3512
 4609SOL    HW115268   5.154   3.011   6.639  1.1015 -1.3810  0.7115
 4609SOL    HW215269   5.044   2.919   6.688 -1.3984  0.8666 -0.4447
 4610SOL     OW15270   5.595   6.239   2.021 -0.2128  0.0851 -0.8085
 4610SOL    HW115271   5.653   6.249   1.946  1.5023 -0.8468  0.3177
 4610SOL    HW215272   5.618   6.154   2.058 -1.5176  0.1961  0.3385
 4611SOL     OW15273   3.179   5.541   0.609 -0.1272  0.7851  0.0582
 4611SOL    HW115274   3.143   5.453   0.614  0.1117  0.6791 -0.0291
 4611SOL    HW215275   3.119   5.596   0.659  0.1011  0.4524  0.7028
 4612SOL     OW15276   0.955   6.697  10.653  0.0960 -0.1594 -0.2965
 4612SOL    HW115277   0.953   6.754  10.576  0.6263  0.6316  0.2554
 4612SOL    HW215278   1.048   6.676  10.665 -0.1431 -1.6356 -0.8357
 4613SOL     OW15279   1.575   7.316   3.415 -0.3090 -0.2776 -0.5760
 4613SOL    HW115280   1.490   7.291   3.451  0.2859 -0.1285  0.9875
 4613SOL    HW215281   1.561   7.403   3.378 -0.7388 -0.0941  0.0178
 4614SOL     OW15282   3.738   2.407  10.265  0.1635 -0.4401 -0.2197
 4614SOL    HW115283   3.713   2.411  10.173  0.2964  1.7184 -0.2104
 4614SOL    HW215284   3.833   2.421  10.265 -0.0649  1.4599  0.2977
 4615SOL     OW15285   2.605   0.524   7.053 -0.2275 -0.3629  0.3556
 4615SOL    HW115286   2.686   0.520   7.003 -0.4511 -0.5477  0.0070
 4615SOL    HW215287   2.542   0.473   7.002 -0.9533  0.9568 -0.0902
 4616SOL     OW15288   6.749   2.318  10.379 -0.1913  0.0485  0.2350
 4616SOL    HW115289   6.766   2.369  10.459 -0.4077  2.1386 -0.9637
 4616SOL    HW215290   6.815   2.348  10.317 -0.3368 -1.1768 -0.5332
 4617SOL     OW15291   1.881   7.952   6.095  0.0934  0.3349  0.0646
 4617SOL    HW115292   1.863   7.986   6.008  0.9775 -0.3254 -0.3882
 4617SOL    HW215293   1.965   7.991   6.120  0.0394  0.2082  0.4551
 4618SOL     OW15294   2.053   5.922  11.130  0.2608  0.0453 -0.1471
 4618SOL    HW115295   1.998   5.916  11.208  1.3993 -2.4099  0.5764
 4618SOL    HW215296   2.087   6.011  11.131 -1.3126  0.6756  1.0296
 4619SOL     OW15297   3.573   6.998   3.692  0.2528  0.3055  0.2353
 4619SOL    HW115298   3.532   7.080   3.721 -0.3133 -0.1484  0.7446
 4619SOL    HW215299   3.528   6.977   3.610 -0.7918 -0.3627  0.9602
 4620SOL     OW15300   5.662   5.209   9.915 -0.2440 -0.0096  0.1406
 4620SOL    HW115301   5.734   5.210   9.978  1.2404  0.2323 -1.4843
 4620SOL    HW215302   5.627   5.120   9.920 -0.3568  0.0889  1.4882
 4621SOL     OW15303   0.020   4.080   3.444  0.0332 -0.0228  0.2265
 4621SOL    HW115304   0.059   4.135   3.376 -0.2146 -1.4493 -1.1276
 4621SOL    HW215305  -0.028   4.141   3.500  0.9190  1.2833 -0.3869
 4622SOL     OW15306   3.843   0.693   0.647 -0.6533 -0.2921 -0.3558
 4622SOL    HW115307   3.902   0.622   0.670 -1.7523 -1.5979 -1.4127
 4622SOL    HW215308   3.890   0.741   0.578  1.4961  2.0654  2.4752
 4623SOL     OW15309   1.779   4.209   2.557 -0.3305  0.4978  0.0655
 4623SOL    HW115310   1.853   4.200   2.617 -0.0345  3.1319  0.1856
 4623SOL    HW215311   1.705   4.171   2.605  0.2865  0.8432  1.3303
 4624SOL     OW15312   3.479   1.836   3.644  0.0399  0.8615 -0.4472
 4624SOL    HW115313   3.565   1.879   3.644 -0.8625  2.7983 -0.2162
 4624SOL    HW215314   3.457   1.827   3.551  0.3571  0.6632 -0.5030
 4625SOL     OW15315   4.547   7.255   2.398  0.5907 -0.1013  0.3060
 4625SOL    HW115316   4.512   7.277   2.311 -0.2615 -0.2560  0.5943
 4625SOL    HW215317   4.636   7.225   2.382  1.2593  2.0391 -0.2726
 4626SOL     OW15318   7.575   2.282   7.926 -0.0103  0.0200  0.4667
 4626SOL    HW115319   7.631   2.329   7.989  0.6823 -0.7249  0.4217
 4626SOL    HW215320   7.637   2.243   7.865 -0.6033 -0.6464  0.2870
 4627SOL     OW15321   6.124   4.139   5.770  0.0944 -0.8578  0.5044
 4627SOL    HW115322   6.147   4.077   5.839 -0.1894 -0.7051  0.7371
 4627SOL    HW215323   6.057   4.195   5.809 -0.5825 -1.2113 -0.1138
 4628SOL     OW15324   5.540   4.230   9.458  0.2377  0.0934  0.5577
 4628SOL    HW115325   5.616   4.287   9.461  1.0480 -0.8380 -0.8910
 4628SOL    HW215326   5.541   4.184   9.542  0.6967  0.7868  0.9420
 4629SOL     OW15327   7.443   2.753   5.478  0.2248 -0.4988  0.4886
 4629SOL    HW115328   7.437   2.663   5.510  0.3113 -1.0833 -1.0963
 4629SOL    HW215329   7.371   2.762   5.416  0.0513  0.6292  0.8201
 4630SOL     OW15330   5.883   0.304   0.071 -0.1661  0.2698 -0.2240
 4630SOL    HW115331   5.936   0.274  -0.003  0.7642  1.2388  0.0219
 4630SOL    HW215332   5.882   0.400   0.062  0.8836  0.4956  1.6089
 4631SOL     OW15333   1.626   0.564   4.837 -0.1534  0.5493  0.1128
 4631SOL    HW115334   1.590   0.652   4.847 -1.6016 -0.1980  2.0026
 4631SOL    HW215335   1.710   0.567   4.884  0.4674  1.2353 -0.9828
 4632SOL     OW15336   6.032   6.645   6.723  0.0686 -0.4116 -0.4276
 4632SOL    HW115337   5.982   6.657   6.803  1.5218 -0.4926  0.5332
 4632SOL    HW215338   6.101   6.712   6.727 -0.3472  0.1736 -2.0499
 4633SOL     OW15339   5.454   1.424   4.621  0.1984  0.3027  0.2113
 4633SOL    HW115340   5.506   1.433   4.541  1.6163  0.8379  1.1448
 4633SOL    HW215341   5.451   1.329   4.637  2.6618  0.3209  1.1940
 4634SOL     OW15342   4.950   2.538   9.541 -0.1969 -0.3172  0.0970
 4634SOL    HW115343   4.987   2.561   9.456  0.0307 -0.2496  0.2130
 4634SOL    HW215344   4.873   2.485   9.520  0.0366 -0.5647 -0.1474
 4635SOL     OW15345   3.092   6.199   6.258 -0.2158  0.0214  0.0570
 4635SOL    HW115346   3.154   6.162   6.322 -0.2924 -0.0214  0.1066
 4635SOL    HW215347   3.147   6.247   6.197 -0.1943  0.5272  0.4723
 4636SOL     OW15348   2.957   4.401   4.335 -0.0753 -0.2324 -0.3611
 4636SOL    HW115349   2.950   4.400   4.430  0.2293  0.3712 -0.3250
 4636SOL    HW215350   3.001   4.319   4.313  1.2971  0.3346  0.1481
 4637SOL     OW15351   2.061   1.015   5.391  0.3889 -0.1161  0.6791
 4637SOL    HW115352   2.000   1.072   5.438  0.7314  0.2572  0.6751
 4637SOL    HW215353   2.093   0.954   5.457 -0.9416 -1.1290  0.4171
 4638SOL     OW15354   2.889   0.811   1.128  0.0554 -0.1301  0.2221
 4638SOL    HW115355   2.917   0.794   1.038 -0.5352  0.2737 -0.0436
 4638SOL    HW215356   2.794   0.810   1.124 -0.0311  2.2615  0.3577
 4639SOL     OW15357   6.137   5.469  11.439  0.5681 -0.4483  0.0672
 4639SOL    HW115358   6.192   5.497  11.367  1.0361 -1.1100  0.1684
 4639SOL    HW215359   6.139   5.543  11.500 -0.7431  0.6016 -1.0728
 4640SOL     OW15360   3.115   7.916   0.748 -0.6480  0.2781 -0.3576
 4640SOL    HW115361   3.170   7.848   0.709 -1.1772  0.6894 -1.9081
 4640SOL    HW215362   3.156   7.935   0.832  0.0292 -1.3031 -0.2990
 4641SOL     OW15363   1.488   2.087   6.529 -0.1039  0.4861 -0.3910
 4641SOL    HW115364   1.502   2.169   6.578  0.5826  0.7074 -0.9553
 4641SOL    HW215365   1.511   2.108   6.439 -0.4908 -0.1753 -0.6521
 4642SOL     OW15366   7.156   4.178   8.634 -0.1027 -0.2930  0.2201
 4642SOL    HW115367   7.074   4.223   8.612  0.7072  0.4420 -1.4426
 4642SOL    HW215368   7.155   4.099   8.581 -0.5313 -1.2206  1.5520
 4643SOL     OW15369   0.947   2.282   8.752 -0.5670 -0.3738 -0.0573
 4643SOL    HW115370   0.975   2.316   8.667  0.2585  0.0346  0.3683
 4643SOL    HW215371   1.004   2.325   8.816 -1.8644  0.1330  0.8064
 4644SOL     OW15372   1.697   3.426   7.871  0.4952 -0.3273 -0.5291
 4644SOL    HW115373   1.751   3.419   7.792  1.4700 -0.7264  0.1542
 4644SOL    HW215374   1.711   3.343   7.917  1.0490  0.4528  0.7532
 4645SOL     OW15375   2.642   7.592   1.255 -0.0772 -0.3432  0.0698
 4645SOL    HW115376   2.663   7.543   1.176 -1.1491 -1.5820  0.5179
 4645SOL    HW215377   2.677   7.680   1.239 -0.3097 -0.5585 -1.7788
 4646SOL     OW15378   3.188   1.746  10.197  0.3786  0.0858  0.3663
 4646SOL    HW115379   3.157   1.690  10.125  0.4958  1.4155 -0.7591
 4646SOL    HW215380   3.115   1.806  10.213  0.5475  0.1125  1.0310
 4647SOL     OW15381   3.192   0.565   9.815 -0.1817 -0.5259  0.0555
 4647SOL    HW115382   3.101   0.556   9.788  0.3230 -0.9136 -1.5836
 4647SOL    HW215383   3.218   0.652   9.784  0.6061 -1.2450 -1.3943
 4648SOL     OW15384   2.030   7.021  10.365  0.2678  0.5859 -0.4755
 4648SOL    HW115385   1.990   6.972  10.437  2.2801  1.8740  1.6015
 4648SOL    HW215386   2.049   6.954  10.299  0.0189 -0.9269  0.9227
 4649SOL     OW15387   6.707   6.206   2.910  0.1865  0.5396  0.4112
 4649SOL    HW115388   6.769   6.147   2.867 -0.1255  0.0454  0.6365
 4649SOL    HW215389   6.632   6.209   2.851  0.6444  1.5954 -0.1495
 4650SOL     OW15390   7.281   4.010   2.457 -0.7719 -0.5604  0.5298
 4650SOL    HW115391   7.304   3.928   2.414 -0.0192 -0.8179  1.3919
 4650SOL    HW215392   7.295   3.992   2.551 -1.3780  0.2987  0.7944
 4651SOL     OW15393   3.288   7.200   4.789  0.2883 -0.4386  0.1590
 4651SOL    HW115394   3.376   7.231   4.812  0.5886 -1.1946  0.0729
 4651SOL    HW215395   3.229   7.267   4.823  0.8672 -0.2087  0.7388
 4652SOL     OW15396   7.870   4.860   8.115 -0.2564  0.3654 -0.1186
 4652SOL    HW115397   7.894   4.771   8.090 -0.9107  0.1545 -0.0309
 4652SOL    HW215398   7.886   4.913   8.037  0.1693  0.1752 -0.1598
 4653SOL     OW15399   0.263   1.087   2.644 -0.4464  0.4590 -0.1126
 4653SOL    HW115400   0.240   1.043   2.562 -0.4244 -1.5467  0.9060
 4653SOL    HW215401   0.330   1.151   2.618 -0.4919 -0.0694 -1.6643
 4654SOL     OW15402   3.387   2.671   4.062  0.0937 -0.1899 -0.3911
 4654SOL    HW115403   3.476   2.681   4.028 -0.4303  0.1546 -1.7096
 4654SOL    HW215404   3.372   2.749   4.115  0.7933 -0.5637  0.3784
 4655SOL     OW15405   0.554   7.776   9.451  0.6700  0.0579 -0.4288
 4655SOL    HW115406   0.629   7.756   9.507  1.1557  1.1326 -0.6836
 4655SOL    HW215407   0.478   7.745   9.501  1.0504  1.3086  1.0010
 4656SOL     OW15408   7.620   1.982   4.463 -0.3444  0.2315  0.1978
 4656SOL    HW115409   7.612   1.969   4.558  2.6593  0.2877  0.5319
 4656SOL    HW215410   7.658   1.900   4.431  2.3084  1.5518 -0.2938
 4657SOL     OW15411   6.105   0.549   3.992  0.2890 -0.1710 -0.6015
 4657SOL    HW115412   6.089   0.514   4.080 -0.8455  1.9593  0.1432
 4657SOL    HW215413   6.182   0.605   4.002 -0.4949  0.9632 -0.6317
 4658SOL     OW15414   4.520   5.421   1.590 -0.2359  0.2512  0.3396
 4658SOL    HW115415   4.548   5.380   1.673 -0.8341  0.9263  0.8888
 4658SOL    HW215416   4.425   5.407   1.589 -0.0873 -0.8288 -0.8435
 4659SOL     OW15417   3.756   7.036   0.454  0.0015 -0.0446  0.1730
 4659SOL    HW115418   3.691   6.965   0.451 -0.7171  0.5984  0.0616
 4659SOL    HW215419   3.738   7.089   0.376 -0.1106  0.7880  0.7399
 4660SOL     OW15420   4.752   3.706  11.826 -0.7769 -0.3554  0.3280
 4660SOL    HW115421   4.744   3.673  11.737  1.7416  0.5579 -0.3300
 4660SOL    HW215422   4.684   3.774  11.832 -0.6154 -0.0270 -1.1058
 4661SOL     OW15423   2.513   3.902   4.574  0.5375  0.2377  0.3450
 4661SOL    HW115424   2.418   3.905   4.576  0.5277  0.1129  0.1143
 4661SOL    HW215425   2.540   3.931   4.661  0.2265 -2.4268  1.4109
 4662SOL     OW15426   6.153   3.598   5.606  0.0661 -0.4463 -0.5835
 4662SOL    HW115427   6.183   3.510   5.583 -1.4220 -0.8953 -0.9133
 4662SOL    HW215428   6.212   3.656   5.558  0.3560 -1.2829 -1.2781
 4663SOL     OW15429   4.336   0.358   7.578 -0.5544  0.3745 -0.0214
 4663SOL    HW115430   4.255   0.321   7.542 -0.9220  1.0386  0.1142
 4663SOL    HW215431   4.371   0.288   7.633 -0.4982 -0.2903 -0.8937
 4664SOL     OW15432   0.267   5.943   0.534  0.4393  0.6629 -0.5911
 4664SOL    HW115433   0.337   5.920   0.473  2.2379  1.9695  0.8776
 4664SOL    HW215434   0.260   5.869   0.593 -0.3522 -0.0127 -1.4979
 4665SOL     OW15435   7.627   4.913  10.034  0.0100 -0.1566 -0.5430
 4665SOL    HW115436   7.617   4.820  10.013  1.4655 -0.3781 -0.3465
 4665SOL    HW215437   7.624   4.957   9.949 -0.9147 -0.3430 -0.6206
 4666SOL     OW15438   5.307   6.282   2.620  0.6259  0.0970 -0.2414
 4666SOL    HW115439   5.347   6.234   2.548 -0.3502  1.2920 -1.6155
 4666SOL    HW215440   5.251   6.217   2.663 -0.6036 -0.0895 -2.0082
 4667SOL     OW15441   0.626   1.034   8.852 -1.4194  0.1212  0.0077
 4667SOL    HW115442   0.632   0.941   8.832 -0.1850  0.4898 -1.5130
 4667SOL    HW215443   0.563   1.039   8.924 -0.2154 -2.0466  1.3265
 4668SOL     OW15444   2.015   7.436   1.852  0.2114 -1.0584 -0.1731
 4668SOL    HW115445   2.011   7.342   1.870 -1.4242 -1.4835 -2.3237
 4668SOL    HW215446   1.935   7.471   1.891  0.7579 -0.5494  0.5175
 4669SOL     OW15447   6.798   4.132   8.158 -0.4054 -0.0253 -0.1289
 4669SOL    HW115448   6.879   4.096   8.194 -0.4953  0.2997  0.4110
 4669SOL    HW215449   6.742   4.146   8.234 -0.4019  1.1842 -0.3226
 4670SOL     OW15450   2.428   4.400   9.136 -0.0560 -0.2407  0.1079
 4670SOL    HW115451   2.506   4.421   9.187 -0.1337  0.6496 -0.1098
 4670SOL    HW215452   2.447   4.434   9.048 -0.8662  0.4172  0.1739
 4671SOL     OW15453   7.910   4.787   1.682 -0.2479  0.2454 -0.3694
 4671SOL    HW115454   7.980   4.747   1.631 -0.4980 -0.6737 -0.0205
 4671SOL    HW215455   7.867   4.713   1.725 -0.5776  0.9253  0.4952
 4672SOL     OW15456   4.174   5.466   6.911  0.4189 -0.4241  0.2252
 4672SOL    HW115457   4.102   5.410   6.882  0.8422 -1.5114  1.2153
 4672SOL    HW215458   4.252   5.412   6.899  0.8884  0.1347  0.7210
 4673SOL     OW15459   0.387   2.579   6.045 -0.2096 -0.3753  0.1787
 4673SOL    HW115460   0.408   2.651   6.105  1.3369 -0.1929 -0.5205
 4673SOL    HW215461   0.327   2.524   6.094 -4.0144  2.8964 -0.3316
 4674SOL     OW15462   1.451   6.683  11.819  0.2574 -0.0197 -0.2717
 4674SOL    HW115463   1.363   6.665  11.786  0.0308  0.7882 -0.1249
 4674SOL    HW215464   1.470   6.610  11.878  0.2199 -0.8954 -1.3011
 4675SOL     OW15465   1.223   5.348   5.494 -0.3970  0.0877  0.1533
 4675SOL    HW115466   1.169   5.427   5.493 -0.5362 -0.0136 -0.3287
 4675SOL    HW215467   1.251   5.340   5.585 -0.0204  0.9353  0.1192
 4676SOL     OW15468   2.439   4.597   8.467  0.1205  0.0256 -0.0468
 4676SOL    HW115469   2.429   4.507   8.436  1.1119  0.4757 -1.8296
 4676SOL    HW215470   2.533   4.614   8.462  0.0295  0.9784  0.8867
 4677SOL     OW15471   2.441   3.032   9.757  0.6014 -0.3807  0.9083
 4677SOL    HW115472   2.406   2.957   9.709 -0.5843  0.2566  0.7378
 4677SOL    HW215473   2.364   3.080   9.787  1.3343  0.4524  1.5276
 4678SOL     OW15474   6.047   0.272   3.664  0.1299 -0.2311  0.0910
 4678SOL    HW115475   6.002   0.342   3.617 -0.6244  0.2608  1.4786
 4678SOL    HW215476   6.016   0.191   3.623  1.1343  0.2093 -1.6373
 4679SOL     OW15477   2.909   7.168  11.478  0.2513  0.2226 -0.2704
 4679SOL    HW115478   2.964   7.243  11.498 -0.0043  0.5267 -0.6951
 4679SOL    HW215479   2.844   7.201  11.416  0.8472 -0.6190 -1.3798
 4680SOL     OW15480   1.082   3.849   6.793  0.2747  0.8117 -0.1575
 4680SOL    HW115481   1.070   3.778   6.730 -3.0399  1.1751 -0.1320
 4680SOL    HW215482   1.092   3.927   6.738 -0.2815  0.8395 -0.2214
 4681SOL     OW15483   6.949   7.073   2.234  0.5220  0.3372  0.3043
 4681SOL    HW115484   7.023   7.127   2.261 -0.0267  0.4198  1.7483
 4681SOL    HW215485   6.981   6.983   2.238  1.8071  0.4772 -3.2576
 4682SOL     OW15486   4.768   7.981  10.694 -0.6515  0.9387  0.2081
 4682SOL    HW115487   4.698   7.997  10.631 -1.3147  3.3904  1.4324
 4682SOL    HW215488   4.843   8.029  10.659 -0.3369  0.4218  0.1665
 4683SOL     OW15489   4.392   2.239   4.489 -0.1250  0.0411  0.0510
 4683SOL    HW115490   4.333   2.173   4.524  1.7768 -0.8530  1.7972
 4683SOL    HW215491   4.408   2.298   4.562  1.3933  0.0384 -0.2421
 4684SOL     OW15492   0.193   5.384  11.736 -0.0472  0.5460 -0.2210
 4684SOL    HW115493   0.114   5.347  11.775 -0.1432  0.6618 -0.3026
 4684SOL    HW215494   0.265   5.342  11.782 -0.1343 -0.4862 -0.9887
 4685SOL     OW15495   1.547   0.489   9.650 -0.1692  0.3994  0.2670
 4685SOL    HW115496   1.523   0.528   9.566 -0.3221  1.2351  0.6805
 4685SOL    HW215497   1.593   0.408   9.627 -0.3530  0.5306 -0.6123
 4686SOL     OW15498   5.855   5.343   7.156  0.1287 -0.0551  0.0669
 4686SOL    HW115499   5.768   5.350   7.194  0.1622  1.1286 -0.0118
 4686SOL    HW215500   5.846   5.280   7.085 -0.3575 -0.8958  0.8504
 4687SOL     OW15501   0.627   4.603   3.671 -0.0428 -0.6206  0.4120
 4687SOL    HW115502   0.683   4.526   3.666 -1.6864 -1.8195 -0.4315
 4687SOL    HW215503   0.606   4.612   3.764  0.7198 -0.7496  0.6020
 4688SOL     OW15504   5.884   0.280   3.346 -0.5941 -0.5425  0.2566
 4688SOL    HW115505   5.948   0.227   3.299 -0.9132 -0.4143 -0.3432
 4688SOL    HW215506   5.830   0.216   3.392 -2.4103 -0.9922 -2.2504
 4689SOL     OW15507   0.849   3.207   8.839 -0.2290 -0.1953 -0.1158
 4689SOL    HW115508   0.824   3.115   8.840 -0.0438 -0.2492 -0.4552
 4689SOL    HW215509   0.795   3.246   8.769 -0.3536 -0.0319  0.0679
 4690SOL     OW15510   0.967   4.672   8.269 -0.1809  0.3618  0.2691
 4690SOL    HW115511   0.965   4.579   8.293  1.1690  0.4922  1.0168
 4690SOL    HW215512   0.913   4.714   8.336 -2.1903 -0.0357 -1.0343
 4691SOL     OW15513   4.470   2.462  11.352 -0.3613 -0.2562  0.2907
 4691SOL    HW115514   4.392   2.510  11.381 -0.7623  0.7998 -2.2550
 4691SOL    HW215515   4.497   2.507  11.272  1.2213 -2.3178 -0.4191
 4692SOL     OW15516   0.137   2.559   4.619  0.5665 -0.0659 -0.0728
 4692SOL    HW115517   0.213   2.558   4.561 -0.0087 -0.0493 -0.8400
 4692SOL    HW215518   0.062   2.548   4.561  0.1064 -3.0811  0.9468
 4693SOL     OW15519   4.294   2.825   0.364  0.1031  0.5688  1.0203
 4693SOL    HW115520   4.347   2.780   0.430  0.0970 -0.9419  0.0409
 4693SOL    HW215521   4.205   2.792   0.379  0.2896 -0.7184 -0.4540
 4694SOL     OW15522   0.878   7.091   5.644  0.0972  0.2985  0.5867
 4694SOL    HW115523   0.827   7.032   5.699  0.0927 -1.3390 -1.0533
 4694SOL    HW215524   0.812   7.141   5.596  0.0477 -0.2575  0.0649
 4695SOL     OW15525   1.867   5.417   6.093 -0.3709  0.1115 -0.1690
 4695SOL    HW115526   1.864   5.432   5.998 -3.2443  0.1006 -0.1503
 4695SOL    HW215527   1.886   5.503   6.130 -1.7963  0.6719 -0.6835
 4696SOL     OW15528   6.533   7.391   7.382 -0.3913 -0.1090  0.0555
 4696SOL    HW115529   6.486   7.320   7.338 -1.1770 -0.6617  1.7472
 4696SOL    HW215530   6.623   7.358   7.389 -0.0409  0.3082 -1.7618
 4697SOL     OW15531   0.406   0.779   6.252 -0.5569  0.4695  0.2003
 4697SOL    HW115532   0.444   0.865   6.236 -0.5825  0.2436 -1.1451
 4697SOL    HW215533   0.411   0.734   6.168 -2.0301 -0.2592  0.4582
 4698SOL     OW15534   6.155   4.723   5.950  0.3885  0.1646 -0.0764
 4698SOL    HW115535   6.160   4.753   5.859 -0.2638  0.7835  0.0817
 4698SOL    HW215536   6.199   4.792   6.000 -0.1168  0.3001  0.1797
 4699SOL     OW15537   1.938   6.377   4.645  0.0024  0.6903 -0.0861
 4699SOL    HW115538   1.848   6.343   4.650  0.0389  0.3626 -1.3290
 4699SOL    HW215539   1.927   6.472   4.648 -0.2646  0.6378  1.2116
 4700SOL     OW15540   3.070   0.371   6.088 -0.2962  0.0332  0.1101
 4700SOL    HW115541   3.098   0.462   6.077  0.1508 -0.3227 -2.1552
 4700SOL    HW215542   3.150   0.323   6.110 -0.8647  0.4144  3.7118
 4701SOL     OW15543   3.974   2.562   8.929 -0.6727 -0.1439 -0.4571
 4701SOL    HW115544   3.995   2.550   8.837 -0.7895  1.8213 -0.7815
 4701SOL    HW215545   3.964   2.657   8.940 -0.6679 -0.3185  1.5717
 4702SOL     OW15546   2.511   1.442   5.107 -0.5305  0.0251 -0.2667
 4702SOL    HW115547   2.580   1.451   5.042 -0.9933  1.5875 -0.5833
 4702SOL    HW215548   2.496   1.531   5.139 -1.6600 -0.4375  0.5586
 4703SOL     OW15549   6.161   0.059   6.813  0.4297 -0.4141  0.1417
 4703SOL    HW115550   6.130   0.112   6.886 -0.2025  0.2634 -0.6041
 4703SOL    HW215551   6.091   0.063   6.748  1.2939 -0.3727 -0.8232
 4704SOL     OW15552   6.232   6.428   8.160 -0.0708 -0.2967  0.5443
 4704SOL    HW115553   6.218   6.417   8.254  1.2853 -1.9946  0.5887
 4704SOL    HW215554   6.148   6.460   8.127 -0.3703  0.9991  2.4017
 4705SOL     OW15555   6.235   3.735  10.486 -0.6020  0.0266  0.2187
 4705SOL    HW115556   6.330   3.727  10.490 -0.5194 -0.9617 -1.9947
 4705SOL    HW215557   6.218   3.770  10.399 -2.3000 -1.2910 -0.0445
 4706SOL     OW15558   2.824   6.902   5.158  0.0138  0.0305 -0.0597
 4706SOL    HW115559   2.881   6.859   5.094 -1.5547 -2.0655 -0.1443
 4706SOL    HW215560   2.736   6.888   5.124 -0.8486 -1.0065  2.4561
 4707SOL     OW15561   4.986   2.118   6.866  0.2269  0.4608  0.5033
 4707SOL    HW115562   5.006   2.057   6.794 -1.6518  0.3870  0.0078
 4707SOL    HW215563   5.047   2.191   6.853  1.8841 -0.8407  0.5557
 4708SOL     OW15564   7.796   7.066   7.741 -0.3436 -0.0897 -0.0427
 4708SOL    HW115565   7.727   7.061   7.808  0.7473 -0.3532  1.0963
 4708SOL    HW215566   7.811   6.974   7.717  1.0428 -0.2387  1.2596
 4709SOL     OW15567   4.844   1.217   5.021  0.6307 -0.2188 -0.1446
 4709SOL    HW115568   4.775   1.265   5.065  0.0715 -1.1799  0.0560
 4709SOL    HW215569   4.885   1.165   5.090  1.7369  0.5352 -0.2121
 4710SOL     OW15570   7.270   2.349   5.597 -0.8683  0.1813 -0.5243
 4710SOL    HW115571   7.207   2.405   5.552  0.7706  0.8727 -2.0491
 4710SOL    HW215572   7.317   2.408   5.657 -1.8564 -0.4039  0.8935
 4711SOL     OW15573   4.061   2.938   5.181 -0.5974 -0.7897  0.1162
 4711SOL    HW115574   3.971   2.948   5.212 -0.4247 -1.9808  1.0944
 4711SOL    HW215575   4.062   2.852   5.138  0.4038 -1.5526  1.5393
 4712SOL     OW15576   5.213   2.230   7.067  0.3414  0.2755  0.5170
 4712SOL    HW115577   5.129   2.272   7.088 -0.5807 -1.1090 -0.2181
 4712SOL    HW215578   5.240   2.271   6.984  0.4465  0.7940  0.8044
 4713SOL     OW15579   6.908   6.914   2.556 -0.3942  0.1106 -0.3381
 4713SOL    HW115580   6.994   6.937   2.523 -0.1012  0.8730  0.9019
 4713SOL    HW215581   6.897   6.822   2.531  1.0265 -0.1760  0.0127
 4714SOL     OW15582   2.650   0.135   0.426 -0.1695 -0.3521  0.6182
 4714SOL    HW115583   2.688   0.208   0.475 -1.3395  0.0982  0.8655
 4714SOL    HW215584   2.626   0.172   0.341 -0.6666 -0.4765  0.7037
 4715SOL     OW15585   6.441   3.525   5.174 -0.2541  0.6593  0.3766
 4715SOL    HW115586   6.386   3.471   5.118  0.5749  1.0309 -0.8446
 4715SOL    HW215587   6.496   3.462   5.221 -0.8705  0.3485  0.6882
 4716SOL     OW15588   5.033   3.611  12.177  0.1401  0.0246 -0.2068
 4716SOL    HW115589   5.078   3.695  12.185 -1.3026  1.2273 -3.0057
 4716SOL    HW215590   5.083   3.565  12.109 -1.1336  0.2343 -1.3366
 4717SOL     OW15591   2.136   6.245   3.669  0.3549  0.5386  0.2466
 4717SOL    HW115592   2.104   6.155   3.666  1.4671  0.1230  0.1151
 4717SOL    HW215593   2.124   6.277   3.579  0.6789  0.2496  0.0974
 4718SOL     OW15594   5.160   3.361   1.823  0.4062 -0.1886  0.6552
 4718SOL    HW115595   5.171   3.271   1.853  1.0570  0.0177  1.0556
 4718SOL    HW215596   5.102   3.401   1.888 -0.8923 -0.6278 -0.1739
 4719SOL     OW15597   5.261   2.932   7.979  0.0502  0.1044  0.2279
 4719SOL    HW115598   5.331   2.934   7.914 -0.5386 -1.2020 -0.4625
 4719SOL    HW215599   5.227   3.022   7.981  2.3180  1.0255  1.2543
 4720SOL     OW15600   0.745   2.008  10.383  0.1955  0.5908 -0.4817
 4720SOL    HW115601   0.829   1.971  10.413 -0.1078 -0.1325 -0.5134
 4720SOL    HW215602   0.752   2.101  10.405  1.7853  0.9426 -2.1870
 4721SOL     OW15603   5.251   6.058   1.955  0.4606  0.0398  0.5502
 4721SOL    HW115604   5.315   6.007   2.004 -0.0841 -0.1643  1.0670
 4721SOL    HW215605   5.201   5.993   1.906  1.5536  0.3032 -0.9820
 4722SOL     OW15606   0.905   1.950  11.646 -0.0995  0.2111  0.4454
 4722SOL    HW115607   0.949   2.028  11.678 -0.2655  0.0798  1.0039
 4722SOL    HW215608   0.824   1.945  11.697  0.3294 -0.8132  1.0573
 4723SOL     OW15609   2.357   6.791   6.662  0.3818 -0.0665  0.7520
 4723SOL    HW115610   2.314   6.839   6.733  0.1614  1.2481 -0.2159
 4723SOL    HW215611   2.286   6.748   6.614  0.5419 -1.0571  1.3786
 4724SOL     OW15612   6.200   5.623   1.956 -0.2901  0.2521 -0.5018
 4724SOL    HW115613   6.136   5.694   1.966 -2.0324 -1.1836 -0.9821
 4724SOL    HW215614   6.272   5.647   2.014 -1.8589  1.2683  1.1123
 4725SOL     OW15615   4.227   6.087   1.316 -0.4408 -0.1993 -0.1275
 4725SOL    HW115616   4.151   6.120   1.364 -0.2750 -1.7621  1.2948
 4725SOL    HW215617   4.298   6.145   1.342 -1.1264  1.4480 -1.6831
 4726SOL     OW15618   7.731   2.325   0.975 -0.2865  0.2081 -0.7940
 4726SOL    HW115619   7.786   2.383   1.028 -1.7661  0.7288  0.2526
 4726SOL    HW215620   7.752   2.237   1.006  1.0449  0.2519 -1.4957
 4727SOL     OW15621   4.206   0.730  10.892  0.0370  0.0595 -0.2250
 4727SOL    HW115622   4.181   0.693  10.808 -1.1530 -0.3969  0.3097
 4727SOL    HW215623   4.294   0.695  10.908 -0.5543 -1.5471 -0.3274
 4728SOL     OW15624   7.452   7.095   6.937 -0.3366  0.6318  0.4611
 4728SOL    HW115625   7.453   7.178   6.889  1.0009  0.0324 -0.5833
 4728SOL    HW215626   7.400   7.036   6.883  0.9671  0.0261 -0.1611
 4729SOL     OW15627   6.164   6.382   4.471 -0.1183 -0.8768  0.4428
 4729SOL    HW115628   6.080   6.428   4.478  1.4889  2.7370 -1.4097
 4729SOL    HW215629   6.213   6.407   4.549  0.5169  0.0618 -0.2386
 4730SOL     OW15630   5.799   6.109   7.270  0.2463  0.2552 -0.1154
 4730SOL    HW115631   5.747   6.145   7.199  1.3061 -0.7777 -1.4724
 4730SOL    HW215632   5.801   6.015   7.253  2.9140  0.2970 -0.4079
 4731SOL     OW15633   5.195   1.830   7.475  0.1884 -0.3681  0.1480
 4731SOL    HW115634   5.188   1.792   7.563 -2.7480  0.7880  0.5196
 4731SOL    HW215635   5.183   1.924   7.488 -1.4018 -0.2782 -1.5418
 4732SOL     OW15636   7.362   2.350   4.011  0.1059 -0.1862  0.0537
 4732SOL    HW115637   7.358   2.255   4.026 -0.4458  0.0662  1.7290
 4732SOL    HW215638   7.442   2.378   4.056  0.4525  0.1092 -0.7328
 4733SOL     OW15639   1.261   7.052   0.159  0.7653 -0.6813  0.0624
 4733SOL    HW115640   1.341   7.093   0.192 -0.0211  1.6641 -0.7372
 4733SOL    HW215641   1.218   7.122   0.109 -2.0859 -1.6682  0.9747
 4734SOL     OW15642   4.217   2.320   2.072 -0.2543  0.2972  0.4906
 4734SOL    HW115643   4.189   2.328   1.980 -1.8059 -1.1877  0.7781
 4734SOL    HW215644   4.262   2.236   2.076 -0.6154  0.1304  1.1674
 4735SOL     OW15645   2.383   6.210   0.716 -0.3553  0.1115  0.1537
 4735SOL    HW115646   2.310   6.150   0.701 -1.2316  0.8677  1.2386
 4735SOL    HW215647   2.423   6.180   0.798  0.2918 -0.0456 -0.2166
 4736SOL     OW15648   5.303   4.663   0.805 -0.3524 -0.2939  0.0359
 4736SOL    HW115649   5.230   4.662   0.866 -0.4383 -0.1051 -0.0626
 4736SOL    HW215650   5.263   4.664   0.718 -0.2284 -1.2256 -0.0433
 4737SOL     OW15651   0.345   5.536  11.095  0.0679  0.0321  0.1650
 4737SOL    HW115652   0.348   5.597  11.022 -0.4649 -0.4100 -0.2329
 4737SOL    HW215653   0.281   5.574  11.156 -2.1096 -1.2627 -1.1617
 4738SOL     OW15654   7.312   7.048   9.462  0.2312 -0.6031 -0.0644
 4738SOL    HW115655   7.265   7.105   9.401  1.7365 -1.3697 -2.0366
 4738SOL    HW215656   7.267   6.964   9.456 -0.2717 -0.3932  0.7102
 4739SOL     OW15657   1.368   3.823   5.188 -0.1665  0.2309  0.2128
 4739SOL    HW115658   1.407   3.841   5.103  0.2600  0.3255  0.4214
 4739SOL    HW215659   1.287   3.776   5.169 -0.3849  0.7937 -0.2682
 4740SOL     OW15660   7.206   3.399   9.759  0.0548 -0.1356  0.1629
 4740SOL    HW115661   7.266   3.446   9.817 -1.5136 -0.0657  1.8107
 4740SOL    HW215662   7.148   3.350   9.818 -2.0443  0.4628 -1.2756
 4741SOL     OW15663   6.344   5.652  11.885  0.4546  0.1079 -1.0350
 4741SOL    HW115664   6.331   5.575  11.940 -0.6001  0.5180 -0.6716
 4741SOL    HW215665   6.439   5.664  11.882  0.5368  0.4076  1.1798
 4742SOL     OW15666   1.100   6.168   8.462  0.4358  0.3468 -0.3388
 4742SOL    HW115667   1.069   6.246   8.507  0.1607  0.3857 -0.5889
 4742SOL    HW215668   1.195   6.169   8.473  0.2459 -0.5797  1.7354
 4743SOL     OW15669   0.807   7.934  11.319  0.5207 -0.1687 -0.4258
 4743SOL    HW115670   0.720   7.976  11.321  0.3353 -0.5684  0.0194
 4743SOL    HW215671   0.859   7.992  11.263 -0.3811 -0.5883 -1.7584
 4744SOL     OW15672   2.673   3.662  11.903 -0.2065  0.3079  0.1480
 4744SOL    HW115673   2.727   3.634  11.830 -0.3865  0.4845 -0.0570
 4744SOL    HW215674   2.729   3.653  11.980  0.1521  0.6025 -0.0751
 4745SOL     OW15675   7.130   5.052   6.030 -0.4666 -0.5713 -0.1462
 4745SOL    HW115676   7.156   5.056   6.122  0.3283  0.4919 -0.3954
 4745SOL    HW215677   7.035   5.046   6.033 -0.5569  0.8947  0.7393
 4746SOL     OW15678   6.110   7.280   0.131  0.1600 -0.1396  0.2345
 4746SOL    HW115679   6.150   7.292   0.217  0.2191 -0.2399  0.2219
 4746SOL    HW215680   6.087   7.187   0.129  2.8527 -0.8617 -1.0050
 4747SOL     OW15681   6.196   4.173  11.996  0.1221 -0.4622  0.3076
 4747SOL    HW115682   6.291   4.171  12.000  0.1835 -2.1726 -1.1103
 4747SOL    HW215683   6.175   4.190  11.904 -0.9111 -1.3507  0.3475
 4748SOL     OW15684   1.328   3.463   8.471  0.1599  0.2007  0.0136
 4748SOL    HW115685   1.291   3.383   8.507 -2.9472 -0.2444 -3.4735
 4748SOL    HW215686   1.272   3.533   8.504  0.8626  0.5576  0.4872
 4749SOL     OW15687   5.841   6.547  12.397  0.1602 -0.3129  0.1474
 4749SOL    HW115688   5.854   6.617  12.461  0.3191  0.0127 -0.2339
 4749SOL    HW215689   5.878   6.583  12.316  0.2526 -0.8454 -0.0454
 4750SOL     OW15690   0.464   4.931   7.775 -0.0562 -0.5665 -0.1112
 4750SOL    HW115691   0.426   4.901   7.858 -0.2279  0.2076  0.0992
 4750SOL    HW215692   0.519   5.005   7.799  0.6334 -0.9143 -0.5810
 4751SOL     OW15693   3.749   5.733   4.043 -0.1459 -0.7084 -0.3212
 4751SOL    HW115694   3.751   5.793   3.969  0.0068 -0.1557  0.1264
 4751SOL    HW215695   3.770   5.647   4.005  1.3825 -0.2085 -0.7062
 4752SOL     OW15696   7.562   7.035   3.664  0.2834  0.1651  0.1447
 4752SOL    HW115697   7.638   6.985   3.697 -0.2453 -0.7749 -0.0284
 4752SOL    HW215698   7.581   7.048   3.571 -1.4895 -3.5105 -0.9033
 4753SOL     OW15699   3.733   5.919   6.271  0.0553  0.0536  0.0693
 4753SOL    HW115700   3.711   5.831   6.300  1.0652 -0.1219  0.3159
 4753SOL    HW215701   3.806   5.946   6.326  0.5393  0.5776 -0.7948
 4754SOL     OW15702   5.838   2.364   4.559 -0.0272  0.7234 -0.4471
 4754SOL    HW115703   5.879   2.281   4.582 -0.7959  0.1207 -1.2070
 4754SOL    HW215704   5.911   2.421   4.533  0.3341 -0.4208 -2.0562
 4755SOL     OW15705   4.583   5.285   3.463 -0.6449  0.5542 -0.2800
 4755SOL    HW115706   4.635   5.365   3.472 -0.7758  0.6581 -0.4480
 4755SOL    HW215707   4.553   5.265   3.552 -0.3427  0.5110 -0.1863
 4756SOL     OW15708   1.969   4.166   2.787  0.6955 -0.5753  0.8417
 4756SOL    HW115709   1.928   4.081   2.774 -1.9889  0.6143  1.0438
 4756SOL    HW215710   1.971   4.178   2.882 -2.3613  1.0218  0.8311
 4757SOL     OW15711   3.226   5.422  11.172  0.0882 -0.0592 -0.1166
 4757SOL    HW115712   3.143   5.413  11.220  0.3683 -1.0009  0.2327
 4757SOL    HW215713   3.270   5.338  11.186  0.5439 -0.0490 -1.3645
 4758SOL     OW15714   7.384   4.691   1.103 -0.3298 -0.4363 -0.4447
 4758SOL    HW115715   7.397   4.672   1.196 -1.2182 -1.8932 -0.5863
 4758SOL    HW215716   7.325   4.766   1.102 -0.1057 -0.2440  0.1548
 4759SOL     OW15717   7.392   5.661   0.604 -0.1300  0.1257 -0.3122
 4759SOL    HW115718   7.303   5.629   0.589 -0.6666  0.8110  1.2335
 4759SOL    HW215719   7.419   5.697   0.520 -1.5739  0.5051 -0.6421
 4760SOL     OW15720   2.164   0.331   4.949 -0.0350  0.0259  0.6454
 4760SOL    HW115721   2.237   0.321   4.889 -0.1068 -0.5650  0.6475
 4760SOL    HW215722   2.094   0.276   4.912 -0.4173  0.4464  0.7321
 4761SOL     OW15723   5.460   0.618   1.523 -0.0797 -0.2735  0.4184
 4761SOL    HW115724   5.529   0.562   1.489 -0.1377  0.0843 -0.3016
 4761SOL    HW215725   5.419   0.656   1.445 -1.4278 -0.8742  0.8126
 4762SOL     OW15726   1.843   4.939  11.906  0.4199  0.0656  0.5018
 4762SOL    HW115727   1.794   4.867  11.866 -0.4179 -0.1813  1.9112
 4762SOL    HW215728   1.779   5.011  11.911  0.6644  0.2525  0.9387
 4763SOL     OW15729   0.110   7.428   8.136 -0.6127 -0.2442  0.0883
 4763SOL    HW115730   0.204   7.443   8.131 -0.8672  1.7264  0.2117
 4763SOL    HW215731   0.100   7.333   8.145  1.2804 -0.7031 -1.7764
 4764SOL     OW15732   2.300   2.022   1.964  0.3873  0.3115  0.3909
 4764SOL    HW115733   2.361   1.979   2.024  0.4771  0.2167  0.2324
 4764SOL    HW215734   2.300   1.967   1.886 -1.1171 -0.5890  0.9708
 4765SOL     OW15735   0.251   2.228  12.053  0.1622  0.6230  0.3719
 4765SOL    HW115736   0.281   2.305  12.103 -2.1907  1.8026  0.1299
 4765SOL    HW215737   0.173   2.199  12.100 -0.9940  0.5614 -1.5113
 4766SOL     OW15738   1.761   1.395  10.778  0.1794  0.1593 -0.4947
 4766SOL    HW115739   1.703   1.362  10.847  0.8644 -1.5593 -0.7094
 4766SOL    HW215740   1.829   1.443  10.825  0.8409 -1.2951  0.0923
 4767SOL     OW15741   3.818   7.370   0.287  0.3192 -0.5703 -0.3281
 4767SOL    HW115742   3.797   7.297   0.229 -1.6635 -1.1560  1.0486
 4767SOL    HW215743   3.741   7.426   0.284  1.3604  0.9245 -0.4659
 4768SOL     OW15744   1.880   1.632   5.051  0.3705 -0.0030 -0.1988
 4768SOL    HW115745   1.825   1.561   5.084 -0.9520  0.7897 -0.6193
 4768SOL    HW215746   1.936   1.655   5.125 -1.6802  0.8992  1.1588
 4769SOL     OW15747   4.209   7.067   2.232 -0.3221  0.3409  0.1326
 4769SOL    HW115748   4.290   7.018   2.242 -0.7278 -0.6957 -1.3357
 4769SOL    HW215749   4.149   7.027   2.294  0.0661  0.6596  0.7282
 4770SOL     OW15750   1.551   5.439   6.100 -0.2405 -0.2860  0.0214
 4770SOL    HW115751   1.539   5.454   6.006  2.9428  1.0187 -0.2742
 4770SOL    HW215752   1.636   5.396   6.107 -0.2443 -0.0434  2.3503
 4771SOL     OW15753   3.594   7.166   8.815  0.4263 -0.2316  0.2005
 4771SOL    HW115754   3.685   7.142   8.798  0.5010 -2.6505  3.2168
 4771SOL    HW215755   3.546   7.084   8.811 -2.2806  1.2094 -3.6206
 4772SOL     OW15756   1.464   5.449   0.271  0.4890  0.7807  0.8581
 4772SOL    HW115757   1.439   5.365   0.231 -1.2431  0.5843  2.2250
 4772SOL    HW215758   1.517   5.424   0.347  0.8459  0.9845  0.6786
 4773SOL     OW15759   5.449   0.016   2.004 -0.6299 -0.1074 -0.0720
 4773SOL    HW115760   5.386  -0.055   2.019 -2.0841  0.3981 -2.9231
 4773SOL    HW215761   5.397   0.096   2.017 -0.9067  0.3216 -2.9487
 4774SOL     OW15762   1.035   3.694  10.489 -0.5269 -0.0398  0.1156
 4774SOL    HW115763   1.084   3.641  10.552 -0.5414  0.4026  0.5049
 4774SOL    HW215764   1.023   3.637  10.413 -0.7863 -0.6787  0.6393
 4775SOL     OW15765   7.319   2.891  12.051  0.5171  0.4297  0.0488
 4775SOL    HW115766   7.225   2.876  12.044  0.7506 -1.8754  0.9163
 4775SOL    HW215767   7.327   2.984  12.072 -1.6320  0.4159  1.2247
 4776SOL     OW15768   3.324   2.503   2.752  0.5648  0.0496 -0.1451
 4776SOL    HW115769   3.342   2.463   2.837  0.8498 -0.5452 -0.4808
 4776SOL    HW215770   3.384   2.577   2.747  2.0967 -1.1601 -0.7132
 4777SOL     OW15771   3.253   0.015   4.121 -0.3047 -0.0205  0.8106
 4777SOL    HW115772   3.163   0.008   4.154 -0.2800 -0.7085  0.7428
 4777SOL    HW215773   3.251   0.093   4.064 -0.8064  0.0857  0.9627
 4778SOL     OW15774   7.635   7.602   4.926  0.6319 -0.5772  0.3032
 4778SOL    HW115775   7.704   7.576   4.987  1.8613 -0.3829 -0.9560
 4778SOL    HW215776   7.616   7.523   4.876  1.0164 -0.2449 -0.3702
 4779SOL     OW15777   1.646   7.139   0.685  0.0475  0.0367 -0.2232
 4779SOL    HW115778   1.608   7.058   0.652  0.8963 -0.8865  1.0171
 4779SOL    HW215779   1.586   7.168   0.753 -0.7531  0.9926 -1.2858
 4780SOL     OW15780   1.740   3.817   5.197 -0.1787 -0.4423 -0.6197
 4780SOL    HW115781   1.830   3.791   5.217  0.6536  2.0163 -0.8596
 4780SOL    HW215782   1.711   3.868   5.272 -0.8148  0.0824 -1.1993
 4781SOL     OW15783   4.422   0.575  11.643  0.0011  0.0579 -0.3584
 4781SOL    HW115784   4.383   0.645  11.590  0.1505  0.9278  0.6491
 4781SOL    HW215785   4.361   0.502  11.633 -0.5432  0.5632 -0.8553
 4782SOL     OW15786   5.747   2.137   1.873  0.7602  0.6194 -0.2834
 4782SOL    HW115787   5.776   2.113   1.961 -0.4894  0.9424  0.2295
 4782SOL    HW215788   5.704   2.221   1.883  0.0440  0.3727 -1.0890
 4783SOL     OW15789   3.473   1.631   3.257  0.4170 -0.0919  0.6830
 4783SOL    HW115790   3.462   1.556   3.315 -4.2632 -1.6929 -1.7227
 4783SOL    HW215791   3.410   1.695   3.289  0.0900  0.3105 -0.7066
 4784SOL     OW15792   7.666   2.609  12.280  0.4552  0.5817 -0.7007
 4784SOL    HW115793   7.577   2.642  12.268  0.3114 -0.1404 -1.7469
 4784SOL    HW215794   7.654   2.516  12.299  0.9571  0.6544 -0.0023
 4785SOL     OW15795   7.310   0.978   9.245 -0.2528  0.1528 -0.3141
 4785SOL    HW115796   7.405   0.978   9.244 -0.2476  1.1978 -0.6788
 4785SOL    HW215797   7.286   0.898   9.198  0.4446  0.6245 -1.5042
 4786SOL     OW15798   4.226   2.995  10.232  0.0214 -0.1055 -0.3052
 4786SOL    HW115799   4.211   2.908  10.193  1.2404 -0.0298 -0.9866
 4786SOL    HW215800   4.233   2.978  10.326  5.1605 -1.6552 -0.6224
 4787SOL     OW15801   2.351   6.129   8.113 -0.3017  0.1770  0.2982
 4787SOL    HW115802   2.271   6.139   8.062 -0.5660 -0.4624  0.5695
 4787SOL    HW215803   2.333   6.055   8.171  0.8837 -0.7018 -0.4161
 4788SOL     OW15804   1.040   5.001  11.223  0.2343 -0.6301 -0.4633
 4788SOL    HW115805   0.983   4.988  11.300  1.7319  0.5480  0.9128
 4788SOL    HW215806   1.084   4.917  11.212 -0.2943 -0.9377 -0.2916
 4789SOL     OW15807   5.427   5.460   4.079  0.2212 -0.5133  0.0572
 4789SOL    HW115808   5.474   5.542   4.064  0.0509 -0.3017  0.6546
 4789SOL    HW215809   5.335   5.482   4.061  0.1777 -0.5785  0.1990
 4790SOL     OW15810   6.909   2.762   9.940  0.0088 -0.4984 -0.2736
 4790SOL    HW115811   6.989   2.761   9.887  0.9777 -1.8367  1.1335
 4790SOL    HW215812   6.921   2.836   9.999  1.2069 -1.8658  1.2925
 4791SOL     OW15813   7.443   0.459  11.407 -0.3364  0.2007  0.3925
 4791SOL    HW115814   7.440   0.534  11.348  0.7179 -0.1979 -0.1990
 4791SOL    HW215815   7.403   0.490  11.488  0.6622  1.6122  0.3762
 4792SOL     OW15816   7.082   5.607   2.976  0.0684 -0.2918 -0.0152
 4792SOL    HW115817   7.059   5.514   2.980 -1.2490 -0.0556 -1.2551
 4792SOL    HW215818   7.131   5.616   2.894  2.1002 -0.2295  1.1307
 4793SOL     OW15819   2.021   0.579   7.623  0.2363  0.7451  0.1911
 4793SOL    HW115820   1.937   0.618   7.597 -1.3165 -0.6835  2.5915
 4793SOL    HW215821   2.041   0.516   7.553  0.0520  2.0360 -1.0714
 4794SOL     OW15822   6.027   4.005   7.685 -0.2950 -0.0789 -0.3087
 4794SOL    HW115823   6.001   4.069   7.752 -0.4351 -0.9781  0.5205
 4794SOL    HW215824   5.955   4.004   7.623 -2.4087 -2.5325  1.9411
 4795SOL     OW15825   5.708   3.926   8.571  0.4235 -0.2664 -0.0001
 4795SOL    HW115826   5.723   3.966   8.656  0.8551  1.9286 -1.0202
 4795SOL    HW215827   5.612   3.927   8.561  0.3898 -0.2450  0.3230
 4796SOL     OW15828   5.544   0.944   9.401 -0.7169  0.2147  0.5026
 4796SOL    HW115829   5.566   0.988   9.319 -0.9294 -0.8739 -0.1615
 4796SOL    HW215830   5.563   1.009   9.469 -1.2490  1.4013 -0.4452
 4797SOL     OW15831   2.882   3.582  10.115  0.6886  0.5346 -0.3124
 4797SOL    HW115832   2.839   3.564  10.032 -1.8911 -1.3035  1.2797
 4797SOL    HW215833   2.923   3.500  10.140 -1.3184 -0.0029  1.6207
 4798SOL     OW15834   5.378   3.063   4.108 -0.6645 -0.0439 -0.4882
 4798SOL    HW115835   5.379   3.157   4.124 -2.2196  0.2040 -1.5957
 4798SOL    HW215836   5.395   3.054   4.015  1.2234 -1.0099 -0.1064
 4799SOL     OW15837   1.309   5.610   6.532  0.3107  0.0447  0.4290
 4799SOL    HW115838   1.327   5.603   6.438 -2.5172  0.0669 -0.2247
 4799SOL    HW215839   1.330   5.701   6.553  0.4357  0.2044 -0.3304
 4800SOL     OW15840   4.110   2.004  10.672  0.7467  0.0192 -0.4549
 4800SOL    HW115841   4.100   1.982  10.765  1.3048  2.7557  0.3396
 4800SOL    HW215842   4.052   1.942  10.627  1.0533 -1.9001  1.6094
 4801SOL     OW15843   3.848   0.873   7.026  0.7577 -0.2359 -0.3600
 4801SOL    HW115844   3.831   0.955   7.072 -0.6512 -1.3949  1.3712
 4801SOL    HW215845   3.943   0.865   7.024  0.9327  1.6355 -1.0024
 4802SOL     OW15846   7.817   4.055   8.802  0.0245  0.7993 -0.2800
 4802SOL    HW115847   7.723   4.039   8.789  0.3842 -0.9392 -0.9838
 4802SOL    HW215848   7.820   4.117   8.875 -1.6381 -0.4001  0.9037
 4803SOL     OW15849   5.652   6.280   7.024  0.3470  0.9177  0.1775
 4803SOL    HW115850   5.557   6.269   7.016  0.3537  0.9019  0.1138
 4803SOL    HW215851   5.671   6.357   6.970  0.6441 -0.2777 -1.4962
 4804SOL     OW15852   2.477   0.812   2.441 -0.2396 -0.4806  0.4328
 4804SOL    HW115853   2.475   0.853   2.354  0.0736 -2.0741 -0.3752
 4804SOL    HW215854   2.387   0.780   2.453 -0.5108  0.4991  1.1040
 4805SOL     OW15855   2.305   2.371   9.919 -0.2947  0.4972  0.0062
 4805SOL    HW115856   2.256   2.319   9.855  1.6744 -0.0377 -1.1613
 4805SOL    HW215857   2.376   2.313   9.948  1.5305  2.1861 -0.7787
 4806SOL     OW15858   0.304   4.260   4.992  0.2756 -0.4547  0.1132
 4806SOL    HW115859   0.380   4.289   5.043 -0.2626  0.0965  0.6215
 4806SOL    HW215860   0.284   4.173   5.027 -0.4139  0.1292  1.2575
 4807SOL     OW15861   4.389   0.651   8.379 -0.2552  0.7117  0.1912
 4807SOL    HW115862   4.420   0.686   8.295 -0.0695 -0.4095 -0.2268
 4807SOL    HW215863   4.331   0.719   8.413 -0.8821  0.9006 -1.1831
 4808SOL     OW15864   0.430   4.356   3.052 -0.2778  0.2470  0.2782
 4808SOL    HW115865   0.427   4.428   2.988  0.4530 -0.4470 -0.5644
 4808SOL    HW215866   0.365   4.381   3.119  0.5653  2.1137  0.4759
 4809SOL     OW15867   1.927   1.323   9.606 -0.5813  0.1891 -0.2538
 4809SOL    HW115868   1.843   1.280   9.622 -1.0989  1.4809  0.7189
 4809SOL    HW215869   1.988   1.252   9.587 -1.7915 -0.8078 -0.5322
 4810SOL     OW15870   4.352   5.878   1.206 -0.4072  0.9573  0.0247
 4810SOL    HW115871   4.289   5.937   1.248 -2.7464 -1.0028 -0.5016
 4810SOL    HW215872   4.311   5.792   1.212  2.2117 -0.4217 -0.5132
 4811SOL     OW15873   3.878   7.025   2.104 -0.0512 -0.4135  0.1305
 4811SOL    HW115874   3.912   7.066   2.184 -0.3328  0.3241 -0.1171
 4811SOL    HW215875   3.824   7.093   2.064 -1.1786 -1.2933  0.1146
 4812SOL     OW15876   6.758   2.453   4.972 -0.7611  0.9455  0.1825
 4812SOL    HW115877   6.755   2.381   5.036 -0.9634 -0.1107 -0.9659
 4812SOL    HW215878   6.680   2.505   4.990  0.2369  1.8673  2.1097
 4813SOL     OW15879   4.199   1.127   5.945  0.0896 -0.0794  0.0684
 4813SOL    HW115880   4.200   1.203   5.886  0.3785 -1.3108 -1.5729
 4813SOL    HW215881   4.285   1.129   5.987 -0.2227  0.9734  0.6852
 4814SOL     OW15882   7.004   2.794   1.776 -0.1363  0.2241  0.5247
 4814SOL    HW115883   6.946   2.870   1.767  1.4393  1.2450 -2.4562
 4814SOL    HW215884   7.091   2.828   1.754  0.6715 -2.3688 -0.6662
 4815SOL     OW15885   7.444   5.242   0.643 -0.0179  0.3952 -0.5662
 4815SOL    HW115886   7.375   5.307   0.630  0.3498  1.0448  0.6149
 4815SOL    HW215887   7.519   5.277   0.595 -0.9515 -1.2340 -3.5134
 4816SOL     OW15888   4.120   5.616   8.166  0.1036 -0.5828 -0.3023
 4816SOL    HW115889   4.195   5.674   8.151  0.5470 -0.7519  1.1190
 4816SOL    HW215890   4.064   5.663   8.227 -0.0653 -1.2015  0.0306
 4817SOL     OW15891   0.392   1.262  10.917  1.0188 -0.3623 -0.1134
 4817SOL    HW115892   0.377   1.333  10.855 -1.2487 -0.8972 -0.2552
 4817SOL    HW215893   0.358   1.184  10.873  0.7512 -1.0103  1.1907
 4818SOL     OW15894   6.859   0.843   7.433 -0.1306 -0.1291 -0.1793
 4818SOL    HW115895   6.945   0.853   7.476  0.3620 -2.5634 -0.4579
 4818SOL    HW215896   6.869   0.887   7.349  0.8614 -0.3593 -0.1948
 4819SOL     OW15897   4.624   3.924  10.817 -0.1559  0.4708  0.5194
 4819SOL    HW115898   4.595   4.013  10.832 -0.0942  0.6450 -0.3205
 4819SOL    HW215899   4.719   3.927  10.830  0.0895  0.9254 -1.1560
 4820SOL     OW15900   1.021   0.370   6.589 -0.4752  0.3473 -0.0111
 4820SOL    HW115901   0.957   0.439   6.607 -3.0680 -0.8866 -3.5718
 4820SOL    HW215902   0.996   0.298   6.647 -0.3311  0.9143  0.7766
 4821SOL     OW15903   0.056   0.785   5.192 -0.1930 -0.4849 -0.2212
 4821SOL    HW115904   0.011   0.709   5.154  0.5858 -0.5372 -1.0495
 4821SOL    HW215905   0.148   0.771   5.172 -0.1540  1.3081 -1.5021
 4822SOL     OW15906   0.060   0.034   3.924  0.2254 -0.0290 -0.1492
 4822SOL    HW115907   0.128   0.057   3.988  0.3781 -0.6261 -0.0852
 4822SOL    HW215908   0.109   0.004   3.847  0.0748  1.8258 -1.0325
 4823SOL     OW15909   4.232   3.676   1.548 -0.6964  0.2408  0.2025
 4823SOL    HW115910   4.190   3.683   1.462 -1.7735 -1.2226  0.5751
 4823SOL    HW215911   4.318   3.640   1.530 -0.0548  1.9602 -0.4351
 4824SOL     OW15912   2.250   0.317   0.629 -0.4077 -0.1420 -0.5523
 4824SOL    HW115913   2.339   0.335   0.661 -0.3724 -0.3362 -0.5380
 4824SOL    HW215914   2.205   0.401   0.633 -0.2203 -0.0412 -0.5683
 4825SOL     OW15915   3.535   5.273   7.082 -0.2377 -0.0139  0.8570
 4825SOL    HW115916   3.618   5.226   7.071 -0.4406 -0.0366 -0.7618
 4825SOL    HW215917   3.475   5.208   7.117  0.4943  0.1049  2.4493
 4826SOL     OW15918   4.848   4.906   3.468 -0.7794  0.1748 -0.3622
 4826SOL    HW115919   4.826   4.855   3.389 -0.8617  2.0196 -1.5840
 4826SOL    HW215920   4.771   4.896   3.524 -0.5569 -1.5002 -0.3056
 4827SOL     OW15921   3.542   3.795   2.462  0.4279  0.0711  0.1984
 4827SOL    HW115922   3.554   3.872   2.517  0.8681  0.4358 -0.3993
 4827SOL    HW215923   3.625   3.747   2.469  0.2382 -0.2329  0.3864
 4828SOL     OW15924   5.739   6.912   2.757 -0.1724  0.2496 -0.8368
 4828SOL    HW115925   5.644   6.919   2.747 -0.2306  0.1969 -0.3629
 4828SOL    HW215926   5.770   7.002   2.760 -0.5623  0.3696  2.0612
 4829SOL     OW15927   4.276   6.235   9.748  0.1484  0.5315  0.2319
 4829SOL    HW115928   4.260   6.327   9.768  0.4259  0.3826  1.1878
 4829SOL    HW215929   4.370   6.223   9.763  0.3132  0.3067 -0.8358
 4830SOL     OW15930   6.141   1.638   6.677  0.2868 -0.2754 -0.4546
 4830SOL    HW115931   6.047   1.628   6.664 -0.3362 -1.0565  3.4836
 4830SOL    HW215932   6.180   1.568   6.624 -1.5378 -1.4527 -0.3350
 4831SOL     OW15933   4.929   6.158   7.614  0.5078 -0.0870 -0.3330
 4831SOL    HW115934   4.965   6.245   7.594 -0.8126  0.6549  0.3753
 4831SOL    HW215935   4.948   6.105   7.537  1.6934  0.7126 -0.6115
 4832SOL     OW15936   3.766   6.017   2.577  0.0655  0.0465 -0.2994
 4832SOL    HW115937   3.818   5.938   2.593 -0.0851 -0.0863 -0.4637
 4832SOL    HW215938   3.802   6.052   2.495  1.4836  1.2490  0.7809
 4833SOL     OW15939   6.999   1.142  11.983 -0.4488 -0.4974  0.7253
 4833SOL    HW115940   6.997   1.127  11.889  0.6399 -1.0600  0.7735
 4833SOL    HW215941   6.919   1.102  12.016  0.1359 -2.1375  0.2673
 4834SOL     OW15942   1.241   5.079  12.141 -0.5870  0.2447 -0.1201
 4834SOL    HW115943   1.326   5.045  12.116 -0.1447  0.7322  0.6727
 4834SOL    HW215944   1.189   5.002  12.163 -0.3069 -0.0428 -0.4757
 4835SOL     OW15945   1.776   3.591   8.266 -0.4719  0.0233  0.5477
 4835SOL    HW115946   1.717   3.595   8.341 -1.6903 -0.1493 -0.3641
 4835SOL    HW215947   1.798   3.498   8.257 -2.5963 -0.4212 -0.9409
 4836SOL     OW15948   2.867   2.321   0.766 -0.0790  0.5425 -0.3212
 4836SOL    HW115949   2.832   2.293   0.850 -1.7526  1.7201 -0.5799
 4836SOL    HW215950   2.866   2.242   0.712 -1.1822  0.2571  0.0815
 4837SOL     OW15951   6.058   6.131   9.395 -0.1996 -0.8116  0.1162
 4837SOL    HW115952   6.048   6.214   9.441  0.6496  0.1430 -1.3350
 4837SOL    HW215953   5.970   6.112   9.361 -0.3175 -0.3042  0.1219
 4838SOL     OW15954   0.735   1.833  10.946  0.8659 -0.2685 -0.3547
 4838SOL    HW115955   0.734   1.839  10.851  1.3364 -0.5717 -0.3861
 4838SOL    HW215956   0.743   1.923  10.977 -0.0981 -0.0994 -0.5759
 4839SOL     OW15957   1.875   4.519   6.316 -0.2066  0.1288 -0.4056
 4839SOL    HW115958   1.908   4.488   6.231 -0.9418  1.5214 -1.2416
 4839SOL    HW215959   1.866   4.614   6.304 -2.3589  0.0904  0.5064
 4840SOL     OW15960   6.931   2.337  11.125  0.2367  0.0207 -0.5873
 4840SOL    HW115961   6.990   2.364  11.195 -0.4401 -0.4321  0.1624
 4840SOL    HW215962   6.897   2.419  11.089  0.4033  0.2478 -0.2291
 4841SOL     OW15963   4.097   1.969   5.207  0.5159 -0.2051 -0.0993
 4841SOL    HW115964   4.165   1.902   5.206 -0.0972 -0.8513  0.5012
 4841SOL    HW215965   4.046   1.950   5.285 -0.8791 -0.2728 -0.9977
 4842SOL     OW15966   1.106   4.643   3.802  0.9114 -0.0082  0.1706
 4842SOL    HW115967   1.047   4.618   3.873  1.8080 -0.3532  0.8157
 4842SOL    HW215968   1.161   4.565   3.788  1.9331  0.6554  0.3411
 4843SOL     OW15969   6.194   5.069   5.510 -0.0605 -0.5017  0.0776
 4843SOL    HW115970   6.195   5.031   5.598 -2.2250  0.5567  0.6281
 4843SOL    HW215971   6.121   5.026   5.466  0.8968 -0.8921 -1.1680
 4844SOL     OW15972   5.495   0.153   0.788 -0.1087 -1.2047  0.1792
 4844SOL    HW115973   5.514   0.210   0.713 -0.8844 -0.5152  0.4926
 4844SOL    HW215974   5.532   0.068   0.764 -1.3826 -1.3406 -1.5389
 4845SOL     OW15975   1.799   0.274   1.603 -0.3982  0.6745  0.1717
 4845SOL    HW115976   1.791   0.361   1.565 -0.6906 -0.3296 -2.2487
 4845SOL    HW215977   1.778   0.214   1.531  3.6237 -1.5207  0.5498
 4846SOL     OW15978   0.614   3.297   2.134  0.0417  0.2560  0.0770
 4846SOL    HW115979   0.597   3.377   2.084 -1.0292 -0.3379 -0.5556
 4846SOL    HW215980   0.673   3.324   2.204 -1.6853  1.9846  0.9479
 4847SOL     OW15981   0.954   2.254  11.703  0.0547 -0.9856  0.1612
 4847SOL    HW115982   1.006   2.293  11.633 -1.1480 -0.4734 -0.4831
 4847SOL    HW215983   1.005   2.270  11.783  0.6399 -0.0680 -0.3776
 4848SOL     OW15984   7.971   2.487   5.663 -0.3135  0.3726 -0.0686
 4848SOL    HW115985   8.001   2.396   5.670  0.2245  0.4990 -0.6125
 4848SOL    HW215986   7.900   2.484   5.600 -2.3570 -0.1175  2.0981
 4849SOL     OW15987   7.743   7.293   1.483 -0.2010  0.1412 -0.1255
 4849SOL    HW115988   7.807   7.336   1.539 -1.4287  1.6020  0.1989
 4849SOL    HW215989   7.759   7.199   1.496  1.7621  0.4538  0.0422
 4850SOL     OW15990   3.793   2.018   2.574  0.3053  0.2619  0.2559
 4850SOL    HW115991   3.803   2.111   2.597 -2.5331  0.4941  0.9034
 4850SOL    HW215992   3.769   1.976   2.656 -0.0839 -0.7388 -0.3601
 4851SOL     OW15993   5.289   6.269   0.426 -0.3125  0.5589 -1.0988
 4851SOL    HW115994   5.228   6.269   0.352 -1.8957  2.3775  0.1080
 4851SOL    HW215995   5.268   6.349   0.475  2.1415  0.5363  0.1503
 4852SOL     OW15996   2.589   4.757   0.710  0.8147 -0.5244 -0.2936
 4852SOL    HW115997   2.580   4.673   0.664  1.5951 -0.7367 -0.0702
 4852SOL    HW215998   2.524   4.814   0.669 -1.0346 -1.7594  0.7587
 4853SOL     OW15999   3.579   6.604   0.155 -0.1209 -0.4395 -0.2490
 4853SOL    HW116000   3.568   6.694   0.126  0.4229  0.2281  1.4850
 4853SOL    HW216001   3.543   6.551   0.083 -1.1203  1.1549 -0.9818
 4854SOL     OW16002   7.610   1.196  10.580  0.4586 -0.3414 -0.9773
 4854SOL    HW116003   7.653   1.131  10.635  1.2306  0.6256 -0.4047
 4854SOL    HW216004   7.565   1.254  10.641 -1.6609 -1.2740 -1.5580
 4855SOL     OW16005   2.206   5.345   7.160  0.1413  0.2828 -0.3873
 4855SOL    HW116006   2.183   5.252   7.166 -1.0121  0.4252 -1.8693
 4855SOL    HW216007   2.148   5.388   7.223  0.2162  0.0696 -0.1696
 4856SOL     OW16008   5.982   5.688   4.387  0.1375 -0.0395  0.2603
 4856SOL    HW116009   6.026   5.648   4.312  0.0114 -1.5981  0.9842
 4856SOL    HW216010   5.889   5.672   4.370  0.1335 -0.8057  0.9495
 4857SOL     OW16011   2.739   7.258  11.277  0.0220  0.0459 -0.2754
 4857SOL    HW116012   2.676   7.220  11.338 -0.9110  0.9542 -0.6443
 4857SOL    HW216013   2.761   7.186  11.217 -0.4227 -0.3634  0.0445
 4858SOL     OW16014   0.556   3.211   9.119 -0.1651 -0.3455 -0.1130
 4858SOL    HW116015   0.642   3.248   9.102 -0.1474 -0.9943 -1.6956
 4858SOL    HW216016   0.573   3.122   9.150 -0.2150  0.7112  3.3411
 4859SOL     OW16017   1.620   3.284   5.536  0.0802  0.4427 -0.8791
 4859SOL    HW116018   1.638   3.377   5.543 -1.2230  0.5927  2.3973
 4859SOL    HW216019   1.639   3.249   5.623  1.1026 -2.4989 -2.1699
 4860SOL     OW16020   3.265   5.159   4.776 -0.1219 -0.0721  0.0296
 4860SOL    HW116021   3.278   5.226   4.843 -0.1539  0.7119 -0.7360
 4860SOL    HW216022   3.346   5.161   4.724 -0.0784 -0.7020  0.0576
 4861SOL     OW16023   7.490   2.535   8.949  0.3052 -0.4836 -0.0443
 4861SOL    HW116024   7.424   2.501   8.889  0.6659  0.1248 -0.7996
 4861SOL    HW216025   7.569   2.544   8.896  0.1088  2.0179 -0.0575
 4862SOL     OW16026   0.158   3.238   0.456 -0.4334  0.1130 -0.1464
 4862SOL    HW116027   0.235   3.210   0.505 -0.9849  0.9927  1.2900
 4862SOL    HW216028   0.180   3.222   0.365  0.1652 -2.8293  0.3920
 4863SOL     OW16029   7.354   4.807   5.030 -0.4059 -0.6841  0.2069
 4863SOL    HW116030   7.442   4.827   5.063 -0.5405  1.6849 -0.7120
 4863SOL    HW216031   7.298   4.876   5.065 -1.7111 -1.5657 -0.0777
 4864SOL     OW16032   6.269   2.598   1.162  0.3883  0.1054 -0.3434
 4864SOL    HW116033   6.216   2.667   1.201  0.4516 -0.6017  1.0920
 4864SOL    HW216034   6.266   2.615   1.068  0.7710  2.3024 -0.0076
 4865SOL     OW16035   7.969   5.375   0.178 -1.0001 -0.6451  0.5626
 4865SOL    HW116036   7.934   5.347   0.094 -1.0326 -2.0635  1.0146
 4865SOL    HW216037   8.034   5.308   0.201 -0.6546 -0.0382  1.4580
 4866SOL     OW16038   5.814   3.393   5.506  0.4512  0.4667 -0.2125
 4866SOL    HW116039   5.815   3.430   5.594  0.8452 -1.1579  0.5045
 4866SOL    HW216040   5.902   3.410   5.472  0.8609 -0.3851  0.3843
 4867SOL     OW16041   0.635   0.631   1.790  0.2718 -0.1375  0.4378
 4867SOL    HW116042   0.582   0.693   1.742 -0.1694  0.1447  1.2656
 4867SOL    HW216043   0.579   0.601   1.862  1.5288  0.9567  1.9634
 4868SOL     OW16044   3.548   2.540   2.120 -0.3935  0.0267 -0.3801
 4868SOL    HW116045   3.574   2.524   2.210  1.4146 -0.5158 -0.9677
 4868SOL    HW216046   3.478   2.477   2.104 -0.4678 -0.1248  0.5192
 4869SOL     OW16047   7.790   4.763   4.401 -0.8283  0.7406  0.0164
 4869SOL    HW116048   7.870   4.801   4.439  0.3476  1.0636 -2.5459
 4869SOL    HW216049   7.743   4.727   4.475  0.8723  2.0701  1.8467
 4870SOL     OW16050   0.168   6.086   7.497 -0.2709  0.0219  0.5605
 4870SOL    HW116051   0.192   6.011   7.443 -3.2787 -1.9272  1.6890
 4870SOL    HW216052   0.100   6.131   7.446 -0.3543  0.4405  1.0343
 4871SOL     OW16053   2.086   4.476   7.724 -0.0967  0.2008 -0.4737
 4871SOL    HW116054   2.042   4.460   7.807 -0.1430  1.3906 -0.2551
 4871SOL    HW216055   2.156   4.537   7.746  0.9410 -0.7467 -1.0263
 4872SOL     OW16056   7.713   0.829  10.341  0.0004  0.3498 -0.0522
 4872SOL    HW116057   7.713   0.797  10.431  0.9155  0.8711  0.1396
 4872SOL    HW216058   7.766   0.765  10.293 -1.8308 -0.8705 -0.6028
 4873SOL     OW16059   6.134   0.130   4.173  0.0288 -0.0613 -0.2568
 4873SOL    HW116060   6.131   0.216   4.215  0.3129 -0.0865 -0.1809
 4873SOL    HW216061   6.227   0.108   4.172 -0.0471 -0.3808 -0.2512
 4874SOL     OW16062   7.335   7.213  11.779  0.3366  0.2840 -0.8479
 4874SOL    HW116063   7.244   7.189  11.758 -0.1006  0.6912  0.4494
 4874SOL    HW216064   7.384   7.131  11.772 -0.2532 -0.0637 -0.9589
 4875SOL     OW16065   7.338   4.265   9.227  0.1202 -1.0335  0.1388
 4875SOL    HW116066   7.303   4.177   9.240 -0.0260 -1.1744 -1.0744
 4875SOL    HW216067   7.262   4.323   9.238  0.2357 -1.0359  1.0304
 4876SOL     OW16068   7.782   0.307   9.020 -0.1021 -0.1846 -0.0962
 4876SOL    HW116069   7.716   0.368   8.988  0.3258  0.6636  0.6048
 4876SOL    HW216070   7.744   0.269   9.099  0.1310  0.1072  0.1604
 4877SOL     OW16071   1.654   4.915   8.115  0.6703  0.2739  0.0458
 4877SOL    HW116072   1.715   4.842   8.122  0.8315  0.1062 -2.4276
 4877SOL    HW216073   1.576   4.877   8.074 -0.5732  0.8166  1.7633
 4878SOL     OW16074   0.021   1.260  10.608  0.0374  0.2602 -0.0915
 4878SOL    HW116075   0.099   1.300  10.646  2.1841 -1.7051 -2.1802
 4878SOL    HW216076  -0.030   1.232  10.684  2.4361 -0.3619  1.4043
 4879SOL     OW16077   0.196   3.952   4.283 -0.9090  0.3970 -0.7318
 4879SOL    HW116078   0.201   4.039   4.245 -3.2124  1.0790  0.3573
 4879SOL    HW216079   0.127   3.908   4.233 -2.4595  0.5810  1.1059
 4880SOL     OW16080   7.296   6.268  11.416 -0.3414 -0.3837  0.4929
 4880SOL    HW116081   7.298   6.349  11.467 -0.2420  0.8822 -1.4173
 4880SOL    HW216082   7.209   6.232  11.432 -0.8065  0.6987  0.5317
 4881SOL     OW16083   4.653   1.193   0.197  0.3999  0.4013 -0.0050
 4881SOL    HW116084   4.689   1.121   0.145  0.8907 -0.0762  0.9743
 4881SOL    HW216085   4.727   1.252   0.211 -0.0095  1.1442 -0.8412
 4882SOL     OW16086   4.233   0.996   7.676  0.1200 -0.3109  0.3749
 4882SOL    HW116087   4.288   0.953   7.741 -0.4941  0.4701  1.4345
 4882SOL    HW216088   4.165   0.931   7.655 -0.0709 -0.3247  1.0175
 4883SOL     OW16089   6.222   7.615   8.371 -0.5807  0.1685  0.1039
 4883SOL    HW116090   6.254   7.635   8.459 -0.3252  0.3384 -0.0268
 4883SOL    HW216091   6.214   7.700   8.328 -1.6537  0.1696  0.2780
 4884SOL     OW16092   6.827   0.447   0.452  0.0398 -0.0175 -0.3166
 4884SOL    HW116093   6.755   0.509   0.440 -1.8709 -1.9763  0.3760
 4884SOL    HW216094   6.854   0.460   0.543 -0.6611 -0.4624 -0.0326
 4885SOL     OW16095   2.942   7.184   7.175 -0.1439  0.0267 -0.1781
 4885SOL    HW116096   2.889   7.187   7.095  1.2915  1.4477 -1.1260
 4885SOL    HW216097   2.916   7.262   7.224  1.6155  1.2372 -1.0704
 4886SOL     OW16098   1.592   6.666   3.569  0.2182 -0.0050 -0.1565
 4886SOL    HW116099   1.529   6.594   3.562  0.8258 -0.6178  0.5347
 4886SOL    HW216100   1.580   6.716   3.488 -1.9154  0.5316  0.4199
 4887SOL     OW16101   4.530   4.015   9.659 -0.1800 -0.1179  0.1644
 4887SOL    HW116102   4.625   4.025   9.653 -0.2516  1.6352  1.3189
 4887SOL    HW216103   4.501   4.012   9.567  0.8300  1.2398 -0.2374
 4888SOL     OW16104   5.559   7.615   6.065 -0.3492  0.0757 -0.0587
 4888SOL    HW116105   5.573   7.635   5.973  0.2339  0.5865  0.1387
 4888SOL    HW216106   5.528   7.525   6.065 -2.3756  0.7131 -0.9135
 4889SOL     OW16107   6.057   4.490   5.696 -0.3431  0.5881  0.2400
 4889SOL    HW116108   6.033   4.417   5.639  0.6306  0.3046  0.1713
 4889SOL    HW216109   6.067   4.564   5.637  2.6509 -0.1386 -0.3394
 4890SOL     OW16110   1.022   6.788   6.269 -0.4844  0.1762  0.0188
 4890SOL    HW116111   0.960   6.823   6.333 -0.7605 -0.6743  0.2263
 4890SOL    HW216112   0.977   6.798   6.185 -0.3615  0.7572  0.0180
 4891SOL     OW16113   7.358   5.992   2.331  0.1578  0.1315  0.2346
 4891SOL    HW116114   7.449   5.966   2.337 -0.2271 -0.8886  2.6284
 4891SOL    HW216115   7.344   6.009   2.238  2.4072 -1.0759 -0.3881
 4892SOL     OW16116   3.963   2.228   2.676  0.3622 -0.4807  0.1189
 4892SOL    HW116117   3.962   2.324   2.678 -0.4433 -0.4704  2.4662
 4892SOL    HW216118   4.056   2.205   2.668  0.6754  0.5159  0.7520
 4893SOL     OW16119   3.551   4.180   0.271 -0.3201 -0.4678  0.1487
 4893SOL    HW116120   3.541   4.085   0.274  1.3425 -0.6456  0.7616
 4893SOL    HW216121   3.462   4.213   0.282 -0.8230 -1.9329  0.7416
 4894SOL     OW16122   1.465   7.893   1.931  0.4876  0.1113  0.9832
 4894SOL    HW116123   1.385   7.850   1.900  0.9070  0.8548 -1.2858
 4894SOL    HW216124   1.440   7.932   2.014 -1.4353  0.0683  0.4721
 4895SOL     OW16125   1.695   6.287   4.584 -0.3739  0.6723  0.0695
 4895SOL    HW116126   1.638   6.363   4.572 -1.2958 -0.1605 -1.0285
 4895SOL    HW216127   1.651   6.216   4.538  1.3892 -0.1000 -0.5256
 4896SOL     OW16128   1.479   6.896   0.076 -0.0263  0.1505  0.2856
 4896SOL    HW116129   1.394   6.939   0.084 -0.7021 -0.9756 -0.3701
 4896SOL    HW216130   1.457   6.802   0.071  1.1957 -0.1197 -0.5296
 4897SOL     OW16131   3.480   1.582   0.100  0.5809  0.0658  0.2481
 4897SOL    HW116132   3.511   1.492   0.095  1.1019  0.2779 -0.6650
 4897SOL    HW216133   3.536   1.630   0.039 -1.4966  0.4611 -1.5032
 4898SOL     OW16134   5.854   2.104   2.540  0.3406  0.3589 -0.3013
 4898SOL    HW116135   5.863   2.010   2.530 -2.7131  0.0818 -1.6802
 4898SOL    HW216136   5.843   2.118   2.634  0.1291 -0.7458 -0.1509
 4899SOL     OW16137   7.093   0.537  10.546  0.2497  0.5593 -0.3156
 4899SOL    HW116138   7.095   0.512  10.639 -1.9149 -1.7171 -0.7584
 4899SOL    HW216139   7.168   0.491  10.508 -0.1524 -0.3416 -0.0482
 4900SOL     OW16140   1.183   6.129   7.238 -0.2273 -0.5931 -0.4668
 4900SOL    HW116141   1.136   6.062   7.189 -0.2266 -0.6006 -0.4570
 4900SOL    HW216142   1.116   6.195   7.258 -0.2006 -0.5298 -0.5873
 4901SOL     OW16143   1.759   7.753   9.119 -0.5989 -0.6983  0.1409
 4901SOL    HW116144   1.740   7.813   9.047 -0.6892 -1.1818 -0.2439
 4901SOL    HW216145   1.852   7.733   9.109  0.3731  2.0267  2.2937
 4902SOL     OW16146   0.049   3.566   2.487  0.1649 -0.0012 -0.0699
 4902SOL    HW116147   0.030   3.646   2.438 -0.1139  0.4207  0.7026
 4902SOL    HW216148  -0.035   3.539   2.523  0.4899  0.1452  0.8263
 4903SOL     OW16149   3.467   5.203   6.303  0.0544 -0.6714  0.2152
 4903SOL    HW116150   3.450   5.144   6.230  0.4381  0.8067 -1.1390
 4903SOL    HW216151   3.554   5.179   6.334  0.3457 -0.6169 -0.5333
 4904SOL     OW16152   1.071   4.397   5.027 -0.2493 -0.1740 -0.0921
 4904SOL    HW116153   1.073   4.394   4.931  1.4514 -3.2586 -0.0845
 4904SOL    HW216154   1.000   4.338   5.051  0.1325 -0.3842  0.5453
 4905SOL     OW16155   5.741   1.651   8.924 -0.0078 -0.0105  0.2632
 4905SOL    HW116156   5.803   1.671   8.854  1.0374 -1.0402  0.8558
 4905SOL    HW216157   5.687   1.730   8.931 -0.9530 -0.2717 -2.4795
 4906SOL     OW16158   2.746   6.350   1.383  0.0480  0.6524 -0.0817
 4906SOL    HW116159   2.695   6.421   1.422 -0.5348 -0.0099  0.3945
 4906SOL    HW216160   2.818   6.394   1.338  0.2801  1.4939  1.0700
 4907SOL     OW16161   4.337   3.528   5.676  0.1219 -0.5759  0.7950
 4907SOL    HW116162   4.386   3.458   5.632 -1.1840 -0.6408 -0.6185
 4907SOL    HW216163   4.402   3.596   5.691  1.4120 -2.0053  2.1346
 4908SOL     OW16164   2.109   0.564   0.631 -0.1743  0.3483 -0.1072
 4908SOL    HW116165   2.143   0.653   0.622  1.1118 -0.2068 -0.9506
 4908SOL    HW216166   2.022   0.568   0.591 -0.6401  1.4997  0.9590
 4909SOL     OW16167   5.680   6.624   7.695 -0.3720 -0.0946  0.0330
 4909SOL    HW116168   5.623   6.675   7.752  0.1283  1.9383 -1.1680
 4909SOL    HW216169   5.642   6.535   7.696 -0.0330 -0.3303  3.8607
 4910SOL     OW16170   5.934   5.824   9.532  0.1804 -0.7335  0.3056
 4910SOL    HW116171   5.857   5.771   9.516  0.7513 -1.7846  0.9291
 4910SOL    HW216172   5.917   5.906   9.486 -1.1431 -1.0768  0.1451
 4911SOL     OW16173   6.497   1.851   6.508 -0.1286  0.1822  0.8922
 4911SOL    HW116174   6.566   1.911   6.535 -0.3807 -0.2375  2.5287
 4911SOL    HW216175   6.417   1.886   6.546 -1.0062  1.0182 -1.5055
 4912SOL     OW16176   3.481   6.133   3.800 -0.6259  0.2984  0.0465
 4912SOL    HW116177   3.397   6.138   3.845 -1.7153 -2.6799 -1.3162
 4912SOL    HW216178   3.504   6.040   3.804  1.0692  0.5271 -2.2168
 4913SOL     OW16179   1.196   1.965  12.428 -0.2034  0.0571  0.1354
 4913SOL    HW116180   1.160   1.942  12.343  0.4423  0.2580 -0.1992
 4913SOL    HW216181   1.240   1.885  12.458 -0.4833 -0.0321  0.3071
 4914SOL     OW16182   0.222   1.284   1.795  0.1355  0.1667  0.3105
 4914SOL    HW116183   0.228   1.248   1.707  1.4152  2.8006 -0.7775
 4914SOL    HW216184   0.314   1.294   1.823 -0.2450 -0.3286  1.8544
 4915SOL     OW16185   2.087   5.068   5.387  0.2400 -0.3286 -0.1038
 4915SOL    HW116186   2.177   5.090   5.413  0.5299 -1.1392 -0.3918
 4915SOL    HW216187   2.092   5.054   5.292 -0.5710  1.4355 -0.4497
 4916SOL     OW16188   0.897   7.894   9.273  0.1599  0.2766  0.6921
 4916SOL    HW116189   0.970   7.911   9.214 -0.5857 -0.4189 -0.4838
 4916SOL    HW216190   0.877   7.978   9.313  0.1841  0.9586 -0.6751
 4917SOL     OW16191   0.107   7.839   6.123 -0.1909 -0.1784 -0.1741
 4917SOL    HW116192   0.149   7.756   6.145  1.7486  0.7421 -0.1507
 4917SOL    HW216193   0.120   7.893   6.200 -1.2265  0.2425 -0.2780
 4918SOL     OW16194   1.463   5.164   3.663 -0.5552  0.1421  0.2412
 4918SOL    HW116195   1.456   5.091   3.601 -1.2013 -0.0716  0.5536
 4918SOL    HW216196   1.461   5.122   3.749 -2.3324  0.6045  0.4640
 4919SOL     OW16197   7.257   5.263  12.293 -0.0036 -0.3120 -0.1322
 4919SOL    HW116198   7.184   5.215  12.332 -0.8732 -0.6822 -2.1366
 4919SOL    HW216199   7.317   5.195  12.264  0.1978 -0.0687 -0.2864
 4920SOL     OW16200   4.248   4.894  11.668  0.3675 -0.4812 -0.1957
 4920SOL    HW116201   4.228   4.925  11.580 -3.4568 -2.1187 -0.0933
 4920SOL    HW216202   4.219   4.803  11.668  0.7842 -0.6930  2.6047
 4921SOL     OW16203   4.431   1.471   4.198 -0.4876 -0.4843  0.6171
 4921SOL    HW116204   4.510   1.512   4.231 -2.6545  2.9233  2.1165
 4921SOL    HW216205   4.432   1.489   4.104  0.4665 -0.4809  0.6184
 4922SOL     OW16206   0.746   4.367   4.079  0.6617 -0.0517  0.1256
 4922SOL    HW116207   0.652   4.356   4.094  0.4307 -0.4833 -1.4665
 4922SOL    HW216208   0.787   4.306   4.140 -0.1369 -0.6704  0.0659
 4923SOL     OW16209   1.653   4.046   0.657  0.4231 -0.7732 -0.1431
 4923SOL    HW116210   1.622   4.057   0.747 -4.4060 -0.4917 -1.6010
 4923SOL    HW216211   1.636   3.954   0.637 -0.6315 -0.3500 -1.3553
 4924SOL     OW16212   5.009   3.390   7.903 -0.0619 -0.0742  0.5090
 4924SOL    HW116213   4.977   3.386   7.813 -0.1457 -1.8369  0.5800
 4924SOL    HW216214   5.016   3.484   7.922 -2.1379  0.3629 -0.5751
 4925SOL     OW16215   1.054   2.950  10.041  0.9530 -0.1088  0.1535
 4925SOL    HW116216   1.110   2.996  10.103  0.4084 -1.5265  1.7733
 4925SOL    HW216217   1.100   2.957   9.957  2.0951  1.1985  0.8520
 4926SOL     OW16218   6.345   6.867  11.067 -0.2217  0.0806 -0.5699
 4926SOL    HW116219   6.251   6.854  11.081  0.0818 -0.2360  1.3557
 4926SOL    HW216220   6.368   6.940  11.123  0.9063 -0.5983 -0.1143
 4927SOL     OW16221   4.795   6.906   4.461  0.4931 -0.6385 -0.7144
 4927SOL    HW116222   4.716   6.896   4.513  0.8080  0.6217  0.0609
 4927SOL    HW216223   4.788   6.994   4.423  1.1357 -0.8330 -1.3102
 4928SOL     OW16224   2.252   7.571   9.189 -0.2864  0.8319 -0.0657
 4928SOL    HW116225   2.328   7.629   9.180  1.3846 -1.2197  0.2413
 4928SOL    HW216226   2.257   7.539   9.279 -0.3175 -0.8905 -0.6519
 4929SOL     OW16227   5.099   0.854   6.538  0.2041 -0.0466  0.3039
 4929SOL    HW116228   5.080   0.944   6.564  3.3949  0.2385  2.0923
 4929SOL    HW216229   5.165   0.861   6.470  1.1110 -1.0057  1.0522
 4930SOL     OW16230   6.451   1.737   0.057  0.2198  0.6307 -0.2831
 4930SOL    HW116231   6.505   1.682   0.114  0.0221  1.7948  1.0726
 4930SOL    HW216232   6.363   1.731   0.094  0.0225  1.1455 -0.6558
 4931SOL     OW16233   6.480   3.272   8.639  0.2242  0.3339 -0.3881
 4931SOL    HW116234   6.430   3.347   8.673 -3.0845 -2.3394  1.2146
 4931SOL    HW216235   6.535   3.245   8.712 -0.2753 -0.0986 -0.1619
 4932SOL     OW16236   0.855   6.100   2.241  0.5151 -0.4043 -0.1623
 4932SOL    HW116237   0.806   6.165   2.192  1.5011 -0.8050 -1.7412
 4932SOL    HW216238   0.844   6.018   2.192  0.8723 -1.0118  0.7249
 4933SOL     OW16239   6.904   3.273  11.633 -0.1997  0.0207  0.4768
 4933SOL    HW116240   6.995   3.290  11.612 -0.4937  1.5822  0.3711
 4933SOL    HW216241   6.897   3.291  11.726 -0.5761  0.7844  0.3107
 4934SOL     OW16242   7.393   3.120   7.154 -0.3273 -0.4083  0.2263
 4934SOL    HW116243   7.349   3.155   7.231 -1.4617 -1.2726 -0.0087
 4934SOL    HW216244   7.340   3.150   7.080 -0.4404 -1.3115 -0.0706
 4935SOL     OW16245   0.037   0.588   1.581  0.1829 -0.5579  0.2512
 4935SOL    HW116246  -0.041   0.540   1.610 -0.3933  0.9949  1.4590
 4935SOL    HW216247   0.015   0.619   1.494 -0.8081  0.3312  0.7956
 4936SOL     OW16248   4.595   5.486   7.565  0.3999 -0.6143 -0.8030
 4936SOL    HW116249   4.621   5.542   7.638 -0.0416  1.6583 -2.2692
 4936SOL    HW216250   4.677   5.461   7.523  0.5722  0.1001 -0.9101
 4937SOL     OW16251   3.724   7.460   8.048 -0.0463 -0.0193 -0.9404
 4937SOL    HW116252   3.642   7.415   8.030  0.2521 -1.0282  0.1002
 4937SOL    HW216253   3.780   7.393   8.089  0.8048  0.9987 -0.3769
 4938SOL     OW16254   0.008   6.350   2.101  0.2698  0.0373  0.4585
 4938SOL    HW116255   0.043   6.402   2.174  0.3207  0.0996  0.3905
 4938SOL    HW216256  -0.019   6.268   2.141 -0.1156  0.2442  0.6187
 4939SOL     OW16257   6.203   3.681   2.258 -0.1903 -0.1308  0.3644
 4939SOL    HW116258   6.165   3.660   2.173 -1.7468  1.6755  0.5560
 4939SOL    HW216259   6.247   3.600   2.285 -1.1094 -1.2790 -1.3730
 4940SOL     OW16260   7.140   1.110  11.147  0.3614  0.3729  0.1794
 4940SOL    HW116261   7.188   1.174  11.200  0.1600 -0.8953  1.9740
 4940SOL    HW216262   7.208   1.056  11.107  0.4994  0.7759 -0.1325
 4941SOL     OW16263   4.067   7.200   0.583 -0.0381  0.6291 -0.2720
 4941SOL    HW116264   4.104   7.228   0.666 -2.3067  1.7686  0.4419
 4941SOL    HW216265   4.013   7.124   0.605  1.4720 -0.7796 -1.2140
 4942SOL     OW16266   7.559   0.705  11.366 -0.0972 -0.3187 -0.1139
 4942SOL    HW116267   7.602   0.729  11.448  0.1850  1.3160 -0.6905
 4942SOL    HW216268   7.488   0.769  11.357  1.9374  1.8476 -2.7260
 4943SOL     OW16269   2.260   0.310   5.634 -0.2712  0.4111  0.0118
 4943SOL    HW116270   2.340   0.259   5.626  0.5117  1.7307 -0.8734
 4943SOL    HW216271   2.285   0.399   5.607 -2.0691  0.7993 -0.5191
 4944SOL     OW16272   5.971   4.143   8.940 -0.0653 -0.5010  0.4375
 4944SOL    HW116273   5.923   4.063   8.918 -1.0876  0.5056 -1.2250
 4944SOL    HW216274   5.920   4.213   8.900  1.2988  0.9061  1.0663
 4945SOL     OW16275   0.087   6.066  11.137  0.2880 -1.0407 -0.6686
 4945SOL    HW116276   0.148   6.001  11.174  0.8800 -0.4693 -0.6356
 4945SOL    HW216277   0.122   6.085  11.051 -0.1955 -1.1634 -0.8957
 4946SOL     OW16278   3.135   7.632   2.903  0.0120  0.1165 -0.5766
 4946SOL    HW116279   3.218   7.597   2.934 -0.7499 -0.2996  1.1410
 4946SOL    HW216280   3.076   7.557   2.902  0.0203  0.0382 -3.4357
 4947SOL     OW16281   4.172   2.988   1.947 -0.4803  0.4583  0.4617
 4947SOL    HW116282   4.133   3.067   1.910  1.2273  0.9237 -0.4596
 4947SOL    HW216283   4.121   2.916   1.909 -1.0377  1.0618  0.0374
 4948SOL     OW16284   0.603   2.219   6.521  0.3893 -0.1668  0.7330
 4948SOL    HW116285   0.611   2.255   6.433 -3.3066 -0.6786  0.0163
 4948SOL    HW216286   0.689   2.183   6.540  1.6313  0.9296 -2.2012
 4949SOL     OW16287   4.899   6.580  10.690 -0.0416  0.3299  0.2007
 4949SOL    HW116288   4.957   6.572  10.767 -0.6214 -1.1522  0.5242
 4949SOL    HW216289   4.959   6.584  10.616  0.5283 -1.2755  0.5226
 4950SOL     OW16290   3.326   3.101   9.464 -0.1138 -0.3641 -0.0201
 4950SOL    HW116291   3.289   3.112   9.376  0.0005 -0.1139 -0.0376
 4950SOL    HW216292   3.418   3.077   9.448  0.7979  2.6379  0.0088
 4951SOL     OW16293   6.824   7.155  12.182  0.5406  0.1116 -0.5767
 4951SOL    HW116294   6.735   7.182  12.159  0.2411 -0.3474 -0.0061
 4951SOL    HW216295   6.816   7.061  12.200  0.1789  0.7166  3.6424
 4952SOL     OW16296   4.046   7.361  10.355 -0.1862 -0.5757  0.3556
 4952SOL    HW116297   4.101   7.401  10.287 -0.0527 -0.6305  0.4295
 4952SOL    HW216298   4.105   7.350  10.430 -0.3934 -0.3002  0.5582
 4953SOL     OW16299   7.739   5.199   3.041  0.2029  0.0303  0.5322
 4953SOL    HW116300   7.644   5.191   3.046  0.2334 -0.7794  0.1149
 4953SOL    HW216301   7.755   5.289   3.015 -0.4601  0.1080  0.3767
 4954SOL     OW16302   5.362   7.217  12.471 -0.4800  0.8342 -0.3093
 4954SOL    HW116303   5.336   7.206  12.380  0.2743  1.6091 -0.6323
 4954SOL    HW216304   5.316   7.297  12.499 -2.2425 -0.4216  0.6002
 4955SOL     OW16305   0.379   7.025   7.206 -0.3620 -0.9781 -0.1118
 4955SOL    HW116306   0.453   6.968   7.189  0.6184  0.5048 -1.0135
 4955SOL    HW216307   0.318   6.971   7.256  0.9117 -2.5089 -0.1484
 4956SOL     OW16308   4.076   6.444   8.270 -0.4615  0.2960 -0.3598
 4956SOL    HW116309   4.151   6.384   8.281 -1.5406 -0.7550  2.0530
 4956SOL    HW216310   4.105   6.506   8.203  2.7581  0.1943  0.7420
 4957SOL     OW16311   1.520   1.132   0.302 -0.4759 -0.0302 -0.1056
 4957SOL    HW116312   1.569   1.178   0.234 -0.4955  0.0879 -0.0403
 4957SOL    HW216313   1.432   1.170   0.298 -0.5400 -0.1818 -0.1654
 4958SOL     OW16314   1.016   5.526   5.269 -0.4531  0.6802 -0.3933
 4958SOL    HW116315   1.021   5.593   5.201 -0.9036  0.1604 -0.9512
 4958SOL    HW216316   0.954   5.462   5.235 -0.4629  0.2656  0.3859
 4959SOL     OW16317   3.193   2.725   8.878 -0.6259  0.3628 -0.1101
 4959SOL    HW116318   3.141   2.758   8.804  2.8844  1.1933 -2.5034
 4959SOL    HW216319   3.233   2.804   8.916  1.3811 -0.3800 -0.5376
 4960SOL     OW16320   4.987   5.784   1.915  0.3549 -0.3660 -0.3754
 4960SOL    HW116321   4.974   5.726   1.840 -0.7154  0.2132 -0.6524
 4960SOL    HW216322   4.954   5.735   1.990 -0.1310 -0.3052 -0.5438
 4961SOL     OW16323   1.366   0.100   9.738 -0.5550  0.0991  0.1321
 4961SOL    HW116324   1.410   0.130   9.658  0.4258  0.2188  0.7035
 4961SOL    HW216325   1.402   0.013   9.753 -0.9688 -0.0482  0.2821
 4962SOL     OW16326   2.362   5.353   5.972  0.2003 -0.3427  0.1678
 4962SOL    HW116327   2.279   5.314   5.998  0.4777 -1.2140 -0.2255
 4962SOL    HW216328   2.339   5.419   5.907 -0.2509  0.0102  0.6751
 4963SOL     OW16329   4.135   6.657   8.125  0.1259  0.0288  0.5571
 4963SOL    HW116330   4.052   6.686   8.162  0.0926  1.3450 -0.4698
 4963SOL    HW216331   4.201   6.709   8.170  0.1820  0.7356 -0.3109
 4964SOL     OW16332   6.965   4.726   6.974  0.1600 -0.1918  0.2323
 4964SOL    HW116333   6.918   4.643   6.975  1.0380 -0.7065  1.1190
 4964SOL    HW216334   7.046   4.708   7.021  0.9828  0.8267 -0.7493
 4965SOL     OW16335   1.454   6.010   0.831 -0.5428 -0.5088  0.0994
 4965SOL    HW116336   1.501   6.072   0.886  0.8350 -2.0116  0.7286
 4965SOL    HW216337   1.409   6.064   0.767  1.1873  1.1092  0.1372
 4966SOL     OW16338   7.047   6.757  11.625  0.3365 -0.1632  0.0503
 4966SOL    HW116339   7.139   6.785  11.631 -0.2272  1.6376  0.9689
 4966SOL    HW216340   7.030   6.754  11.531  1.3659 -0.6043 -0.1344
 4967SOL     OW16341   6.008   7.806   6.711  0.3799  0.3743 -0.6892
 4967SOL    HW116342   5.946   7.798   6.638  1.5306  0.4364 -1.6978
 4967SOL    HW216343   6.081   7.855   6.676  1.5364 -0.6867  0.1278
 4968SOL     OW16344   2.322   2.508   1.793  0.4773 -0.2728  0.1546
 4968SOL    HW116345   2.392   2.493   1.730  0.5557 -0.3633  0.2632
 4968SOL    HW216346   2.255   2.443   1.771  1.1623 -1.3444  1.1385
 4969SOL     OW16347   7.331   7.262   6.471  0.0670  0.4625 -0.0579
 4969SOL    HW116348   7.372   7.292   6.389  0.6646  1.2138  0.5059
 4969SOL    HW216349   7.260   7.324   6.486 -0.7887 -0.3575 -0.5999
 4970SOL     OW16350   5.576   4.563   8.655  0.3646  0.6073 -0.2557
 4970SOL    HW116351   5.483   4.542   8.655  0.5837 -0.8227 -2.6179
 4970SOL    HW216352   5.602   4.561   8.747 -1.7188  0.0587  0.3679
 4971SOL     OW16353   5.863   4.827   8.253  0.3383 -0.0758 -0.2210
 4971SOL    HW116354   5.929   4.894   8.236  0.7211 -0.2453  0.5502
 4971SOL    HW216355   5.789   4.852   8.199  0.6066  0.7694 -0.2133
 4972SOL     OW16356   5.813   4.404   7.708  0.5115 -0.2333 -0.1559
 4972SOL    HW116357   5.806   4.446   7.793 -1.6578  2.0588 -1.3558
 4972SOL    HW216358   5.727   4.365   7.693 -0.0793  1.7144 -2.3568
 4973SOL     OW16359   5.759   6.895   7.017  0.3630 -0.0033  0.5315
 4973SOL    HW116360   5.729   6.889   7.108 -1.7615 -0.0646 -0.1304
 4973SOL    HW216361   5.757   6.988   6.998  2.0229  0.1307  0.8987
 4974SOL     OW16362   7.175   2.676   8.765 -0.5045  0.1383  0.2168
 4974SOL    HW116363   7.246   2.740   8.751 -0.6378 -0.1926 -2.4683
 4974SOL    HW216364   7.214   2.592   8.741 -0.9271 -0.5265  1.7802
 4975SOL     OW16365   4.085   4.614  10.627  0.2323 -0.1391 -0.0604
 4975SOL    HW116366   4.059   4.536  10.578  1.2184 -0.7361  0.3401
 4975SOL    HW216367   4.008   4.637  10.679  0.1006 -1.1407  0.1976
 4976SOL     OW16368   0.724   7.731   2.403 -0.0721  0.2690  0.3371
 4976SOL    HW116369   0.711   7.759   2.313  1.9504 -1.3168 -0.5185
 4976SOL    HW216370   0.811   7.692   2.404 -0.6970 -1.2801  2.5794
 4977SOL     OW16371   0.082   5.941   4.906 -0.1451  0.0155 -0.3002
 4977SOL    HW116372   0.015   5.893   4.956 -2.7146  1.6671 -1.9307
 4977SOL    HW216373   0.100   5.885   4.830  1.6828 -1.2018  0.9535
 4978SOL     OW16374   7.676   4.617   4.922  0.9671 -0.0721  0.1498
 4978SOL    HW116375   7.659   4.651   4.835 -1.4086 -0.6423  0.3047
 4978SOL    HW216376   7.727   4.685   4.966  2.2746  0.1725 -1.6662
 4979SOL     OW16377   6.911   3.123   5.687  0.4317 -0.1319  0.0878
 4979SOL    HW116378   6.861   3.124   5.769  0.5913  1.5353  0.2146
 4979SOL    HW216379   6.904   3.213   5.655 -0.3139 -0.9231 -2.1765
 4980SOL     OW16380   5.935   1.697   3.710  0.6923  0.1805  0.5603
 4980SOL    HW116381   5.841   1.713   3.721  0.5101 -1.0562  0.8947
 4980SOL    HW216382   5.971   1.783   3.690 -0.6873  0.4785 -0.8472
 4981SOL     OW16383   7.965   3.544   1.046 -0.0120  0.5093 -0.2290
 4981SOL    HW116384   8.054   3.523   1.073 -0.0458  2.9959  2.2958
 4981SOL    HW216385   7.937   3.611   1.108 -3.4432  0.2580 -1.3255
 4982SOL     OW16386   4.142   2.460   7.805 -0.1074  0.0413 -0.1259
 4982SOL    HW116387   4.154   2.526   7.872 -1.8585 -1.2921  1.6201
 4982SOL    HW216388   4.097   2.506   7.734  1.1263  1.3026 -0.1383
 4983SOL     OW16389   3.870   1.113   5.860  0.5652 -0.9320  0.6364
 4983SOL    HW116390   3.787   1.071   5.882  0.0307 -1.2660 -1.6858
 4983SOL    HW216391   3.908   1.057   5.792  1.1666  0.8693 -0.5908
 4984SOL     OW16392   4.032   6.954   9.619 -0.2342 -0.1075  0.5833
 4984SOL    HW116393   3.966   6.897   9.581  0.7596 -0.7981 -0.1656
 4984SOL    HW216394   3.992   6.987   9.700 -2.5044  1.6112 -1.1117
 4985SOL     OW16395   3.716   6.846  12.312  0.1944 -0.5605 -0.1983
 4985SOL    HW116396   3.771   6.924  12.325  0.6914 -1.1800  1.6538
 4985SOL    HW216397   3.777   6.778  12.283 -0.2853 -0.2289 -2.0948
 4986SOL     OW16398   1.123   4.179   0.508  0.1725  0.0844  0.1398
 4986SOL    HW116399   1.211   4.148   0.528  0.5513  0.1602 -1.3098
 4986SOL    HW216400   1.110   4.255   0.566  1.1736  0.2507  0.1587
 4987SOL     OW16401   0.131   1.150   5.141  0.5175  0.2466 -0.1688
 4987SOL    HW116402   0.194   1.222   5.146  1.3780  0.0145 -4.3851
 4987SOL    HW216403   0.072   1.175   5.070 -1.0374 -1.8713  0.2989
 4988SOL     OW16404   4.252   4.424  11.299  0.5690 -0.1305 -0.3355
 4988SOL    HW116405   4.187   4.354  11.292  1.2833 -1.0101  1.2490
 4988SOL    HW216406   4.305   4.400  11.375 -0.0453  2.8622  1.1822
 4989SOL     OW16407   2.953   2.924   9.580 -0.0715  0.0122 -0.1324
 4989SOL    HW116408   2.910   2.934   9.665 -1.0650  0.6791 -0.6895
 4989SOL    HW216409   3.005   2.845   9.588 -1.1679 -0.6535  0.6909
 4990SOL     OW16410   3.765   3.860   6.764  0.2390  0.1701 -0.4107
 4990SOL    HW116411   3.841   3.911   6.738 -0.4166  0.7234 -1.3079
 4990SOL    HW216412   3.786   3.770   6.738  1.4465 -0.0840  1.2955
 4991SOL     OW16413   1.688   1.881   8.826  0.0247 -0.4891  0.5484
 4991SOL    HW116414   1.605   1.919   8.856  0.3023 -1.0321  2.1274
 4991SOL    HW216415   1.709   1.928   8.746 -1.2405  0.4433  0.7352
 4992SOL     OW16416   2.585   5.593   3.226  0.1433  0.3056 -0.2559
 4992SOL    HW116417   2.602   5.647   3.303 -2.8513  0.2311  0.5861
 4992SOL    HW216418   2.598   5.503   3.257 -0.0810  0.3220 -0.1089
 4993SOL     OW16419   4.038   0.889   5.899 -0.3667 -0.4752  0.3794
 4993SOL    HW116420   4.103   0.846   5.843  0.4051  0.6999  0.3396
 4993SOL    HW216421   4.072   0.977   5.912 -0.8646 -0.5100  2.1782
 4994SOL     OW16422   3.543   2.668   1.885  0.1222  0.7419  0.0037
 4994SOL    HW116423   3.516   2.756   1.911 -1.5511 -0.2724  1.9600
 4994SOL    HW216424   3.531   2.615   1.964 -0.1727 -1.5068 -1.4614
 4995SOL     OW16425   4.193   5.092   0.141 -0.4875 -0.3279  0.2949
 4995SOL    HW116426   4.172   4.998   0.138  0.0489 -0.4627  0.7007
 4995SOL    HW216427   4.254   5.101   0.213  1.4657 -0.0467 -1.3125
 4996SOL     OW16428   3.636   1.405   2.797  0.0970 -0.3344  0.2686
 4996SOL    HW116429   3.611   1.315   2.814 -0.8823  0.0592  1.0022
 4996SOL    HW216430   3.575   1.458   2.850  2.6313  0.6764  2.3950
 4997SOL     OW16431   0.605   3.672   4.529  0.4424 -0.1142  0.4917
 4997SOL    HW116432   0.624   3.629   4.446  0.7598 -1.3676  1.1896
 4997SOL    HW216433   0.546   3.745   4.506  1.3563  0.2087 -0.9433
 4998SOL     OW16434   6.875   1.778   0.972 -0.1582  0.3712  0.4666
 4998SOL    HW116435   6.872   1.696   1.022 -0.3593 -1.4469 -2.2805
 4998SOL    HW216436   6.954   1.771   0.919 -0.8158  1.3663 -0.7120
 4999SOL     OW16437   3.344   0.230   3.604  0.8860 -0.5705  0.0450
 4999SOL    HW116438   3.361   0.323   3.618  0.9178 -0.7246  1.0905
 4999SOL    HW216439   3.381   0.186   3.681 -0.6238 -1.2833  0.4194
 5000SOL     OW16440   7.819   4.124   0.076  0.6014  0.1972 -0.5664
 5000SOL    HW116441   7.861   4.154  -0.005 -0.8302 -1.5973 -2.0910
 5000SOL    HW216442   7.748   4.186   0.091  0.7452  0.4228 -0.8140
 5001SOL     OW16443   4.065   2.789   0.826 -0.6742  0.4001 -0.3377
 5001SOL    HW116444   4.030   2.726   0.890 -0.5888  0.5232 -0.1706
 5001SOL    HW216445   4.137   2.742   0.784 -0.8612  0.2461 -0.4855
 5002SOL     OW16446   7.887   1.660   4.736 -0.0744  0.2198  0.3833
 5002SOL    HW116447   7.844   1.653   4.822 -0.9213  0.7267  0.0147
 5002SOL    HW216448   7.828   1.716   4.685  0.0395 -0.7018 -0.7785
 5003SOL     OW16449   2.949   3.354   6.702 -0.1553 -0.4697  0.5780
 5003SOL    HW116450   3.041   3.370   6.680  0.2789 -1.5094  1.5379
 5003SOL    HW216451   2.944   3.372   6.796 -1.5436  2.1061  0.0953
 5004SOL     OW16452   5.204   1.639   9.877  0.1734 -0.1291  0.4061
 5004SOL    HW116453   5.180   1.715   9.824  0.0988  1.5032  2.6729
 5004SOL    HW216454   5.299   1.634   9.870  0.1421 -0.1201 -0.0930
 5005SOL     OW16455   2.911   1.297  10.996  0.2207 -0.3125  0.0271
 5005SOL    HW116456   2.842   1.314  10.933  0.4888 -1.6169 -0.6685
 5005SOL    HW216457   2.952   1.216  10.965  1.3253 -0.1766  1.0494
 5006SOL     OW16458   0.708   1.516   3.421  0.1380  0.9712 -0.2694
 5006SOL    HW116459   0.725   1.516   3.326  2.9293 -1.4602  0.0844
 5006SOL    HW216460   0.762   1.587   3.455  1.1462  0.2358 -0.2884
 5007SOL     OW16461   7.737   6.717   4.520  0.4891  0.0280 -0.2140
 5007SOL    HW116462   7.780   6.798   4.546 -0.2034  0.2083  0.4010
 5007SOL    HW216463   7.746   6.659   4.596  1.2290 -0.5756 -0.7540
 5008SOL     OW16464   1.053   1.048  10.664  0.0141 -0.0341 -0.2004
 5008SOL    HW116465   1.002   1.083  10.736 -0.2164 -1.3987  0.3421
 5008SOL    HW216466   1.140   1.034  10.701 -0.4447 -2.0148  0.2876
 5009SOL     OW16467   0.449   1.926   7.192  0.1657 -0.1784 -0.4106
 5009SOL    HW116468   0.528   1.938   7.244  0.5244 -2.0359 -0.4777
 5009SOL    HW216469   0.402   1.855   7.235 -2.1147  1.6311  0.3350
 5010SOL     OW16470   3.015   2.214   5.732 -0.1152 -0.2214  0.0210
 5010SOL    HW116471   3.005   2.232   5.825  1.1116 -0.2177  0.1607
 5010SOL    HW216472   3.044   2.297   5.694 -1.6490  0.0947 -0.5742
 5011SOL     OW16473   0.860   1.822   6.631 -0.4879 -0.3079  0.0555
 5011SOL    HW116474   0.807   1.900   6.614 -1.1346 -0.2026  2.2109
 5011SOL    HW216475   0.804   1.749   6.603 -0.2265 -0.0493 -1.1726
 5012SOL     OW16476   0.962   7.916   2.759  0.5052  0.0735 -0.1844
 5012SOL    HW116477   0.958   7.919   2.855  1.0795  0.1044 -0.1558
 5012SOL    HW216478   1.023   7.987   2.736  1.8240 -1.1089 -0.4537
 5013SOL     OW16479   1.079   1.113   7.044 -0.5376 -0.1638  0.0128
 5013SOL    HW116480   1.099   1.120   7.137 -0.7518  0.1782  0.0390
 5013SOL    HW216481   1.161   1.131   6.999 -0.3050 -0.8846  0.1405
 5014SOL     OW16482   7.768   7.859   8.912  0.5734 -0.3911  0.1457
 5014SOL    HW116483   7.767   7.953   8.894 -0.7570 -0.5791 -0.9359
 5014SOL    HW216484   7.844   7.846   8.968  2.3305  0.9249 -1.7939
 5015SOL     OW16485   7.645   5.366   6.723 -0.7241  0.0997 -0.3542
 5015SOL    HW116486   7.699   5.335   6.650  1.8763 -1.2244  1.9654
 5015SOL    HW216487   7.606   5.447   6.691 -0.3580 -0.8175 -3.4522
 5016SOL     OW16488   0.363   3.647   8.212  0.2566  0.0366 -0.3031
 5016SOL    HW116489   0.292   3.587   8.189  0.4752 -0.8820  1.2859
 5016SOL    HW216490   0.329   3.734   8.190 -1.7225 -0.2923  1.1869
 5017SOL     OW16491   5.789   3.775   0.218 -0.1074 -0.4364 -0.4553
 5017SOL    HW116492   5.756   3.707   0.278 -3.1286 -0.7657 -2.2498
 5017SOL    HW216493   5.817   3.726   0.141 -2.2329  0.2048 -1.7300
 5018SOL     OW16494   3.119   2.735   8.489  0.2664 -0.6955 -0.1240
 5018SOL    HW116495   3.096   2.793   8.561  0.2935 -1.1362  0.2429
 5018SOL    HW216496   3.035   2.718   8.445 -0.0543 -1.8412  0.8731
 5019SOL     OW16497   2.762   4.056   2.305 -0.3554  0.4289 -0.3129
 5019SOL    HW116498   2.705   3.979   2.301 -0.0454 -0.0561  2.7280
 5019SOL    HW216499   2.727   4.108   2.377  1.8467  1.0942  0.3580
 5020SOL     OW16500   7.004   5.706   8.596 -0.2221  0.0380 -0.3545
 5020SOL    HW116501   7.002   5.612   8.609  0.6361 -0.2596 -2.1903
 5020SOL    HW216502   6.917   5.736   8.625  0.3006 -0.9303  2.5415
 5021SOL     OW16503   3.503   0.532   9.650 -0.1812 -0.8069  0.2283
 5021SOL    HW116504   3.485   0.587   9.726 -1.1512 -1.8315  0.7624
 5021SOL    HW216505   3.430   0.549   9.591  1.1371  0.8508 -1.0348
 5022SOL     OW16506   2.330   3.464   3.358 -0.3235  0.2165 -0.1463
 5022SOL    HW116507   2.333   3.504   3.445  0.4848 -1.4285  0.6204
 5022SOL    HW216508   2.420   3.438   3.341 -0.3882  0.9357 -1.7015
 5023SOL     OW16509   5.142   6.819   6.858 -0.1376  0.5975  0.2389
 5023SOL    HW116510   5.183   6.762   6.924  1.4827 -0.0651 -1.2389
 5023SOL    HW216511   5.172   6.907   6.881  2.9205  0.0768 -1.1726
 5024SOL     OW16512   4.420   5.421   8.027  0.4989 -0.3564  0.0502
 5024SOL    HW116513   4.508   5.440   8.058  0.5062 -1.8274  1.0184
 5024SOL    HW216514   4.426   5.428   7.932  1.5079  0.1477  0.1392
 5025SOL     OW16515   3.902   6.735   8.236  0.2960  0.5458  0.1698
 5025SOL    HW116516   3.866   6.821   8.258  0.8080  1.0537 -0.9007
 5025SOL    HW216517   3.826   6.677   8.239  0.1153  0.8047  1.9410
 5026SOL     OW16518   1.999   5.480   2.277  0.2690  0.2430  0.4670
 5026SOL    HW116519   1.997   5.575   2.291  0.7178  0.1625  1.1035
 5026SOL    HW216520   1.994   5.443   2.365 -0.2456 -0.3333  0.2017
 5027SOL     OW16521   6.665   4.948   3.105 -0.2466  0.1313  0.6775
 5027SOL    HW116522   6.620   5.015   3.155 -0.0466  0.6166  0.2175
 5027SOL    HW216523   6.720   4.903   3.169 -2.5910 -1.6002  1.6175
 5028SOL     OW16524   0.793   0.942   0.905  0.2053  0.0435 -0.4799
 5028SOL    HW116525   0.710   0.942   0.858 -0.4376 -2.1677  0.5200
 5028SOL    HW216526   0.844   1.012   0.864 -2.1594  1.5479 -1.0432
 5029SOL     OW16527   7.332   0.282   0.428 -0.0504  0.5352  0.4648
 5029SOL    HW116528   7.328   0.220   0.355  1.6601 -0.5123  1.1846
 5029SOL    HW216529   7.291   0.236   0.501 -0.1546  0.8641  0.6135
 5030SOL     OW16530   5.690   2.759   3.492  0.2866  0.3854 -0.2921
 5030SOL    HW116531   5.651   2.776   3.406  0.6080 -0.2468 -0.5704
 5030SOL    HW216532   5.736   2.676   3.481  0.0858  0.1483  0.5762
 5031SOL     OW16533   7.658   0.466   4.673 -0.5261  0.6916 -0.1524
 5031SOL    HW116534   7.733   0.459   4.733  0.4362  1.3530 -1.2398
 5031SOL    HW216535   7.638   0.559   4.670  0.4614  0.8876 -2.0315
 5032SOL     OW16536   5.828   4.155   6.566 -0.7824 -0.0055  0.2063
 5032SOL    HW116537   5.758   4.217   6.583  0.5024  1.2791  0.9905
 5032SOL    HW216538   5.901   4.186   6.618  1.1666  0.1055 -2.4046
 5033SOL     OW16539   3.751   1.975   8.835 -0.1673 -0.9325 -0.3228
 5033SOL    HW116540   3.795   1.896   8.867  1.3285 -0.4148 -0.9785
 5033SOL    HW216541   3.817   2.018   8.781 -0.6993  1.1376  0.5878
 5034SOL     OW16542   6.699   2.968  10.538  0.2150  0.2048 -0.2417
 5034SOL    HW116543   6.693   3.044  10.597 -0.1529 -0.2178  0.2771
 5034SOL    HW216544   6.657   2.897  10.586  0.4387 -0.3003 -0.7786
 5035SOL     OW16545   7.003   3.899  10.773 -0.3122  0.0944  0.1874
 5035SOL    HW116546   6.922   3.945  10.795 -0.2888 -0.0916  0.6744
 5035SOL    HW216547   7.072   3.963  10.789 -0.3965  0.4530 -0.8096
 5036SOL     OW16548   7.374   4.194   9.789  0.3222 -0.0991 -0.1743
 5036SOL    HW116549   7.302   4.251   9.815 -1.8391 -0.7799 -3.8688
 5036SOL    HW216550   7.451   4.250   9.791 -0.9305  1.6863  0.5124
 5037SOL     OW16551   2.545   5.702   1.119 -0.5516 -0.3972 -0.0927
 5037SOL    HW116552   2.452   5.694   1.138 -0.4859 -1.4823 -0.2011
 5037SOL    HW216553   2.566   5.626   1.066  0.6266 -0.7611  0.8500
 5038SOL     OW16554   2.408   1.111   5.674  0.4698 -0.3833  0.2133
 5038SOL    HW116555   2.326   1.148   5.704  1.4104  1.5127  0.5913
 5038SOL    HW216556   2.430   1.160   5.595  1.0323 -1.1607 -0.1356
 5039SOL     OW16557   7.740   0.815   2.525 -0.3483  0.2178 -0.0162
 5039SOL    HW116558   7.772   0.731   2.558  2.6982  1.5542  0.8170
 5039SOL    HW216559   7.704   0.859   2.602 -0.1686  0.4030 -0.0357
 5040SOL     OW16560   2.727   2.668   4.183  0.2270  0.3864 -0.0479
 5040SOL    HW116561   2.790   2.656   4.254 -1.1034  0.7731  1.2482
 5040SOL    HW216562   2.781   2.692   4.107  1.7445 -0.6703  0.6364
 5041SOL     OW16563   3.810   7.866   8.775 -0.8553  0.0806  0.3635
 5041SOL    HW116564   3.818   7.798   8.708 -0.9782 -2.2033  2.4948
 5041SOL    HW216565   3.900   7.893   8.793 -0.8191  0.6785 -0.6581
 5042SOL     OW16566   2.815   0.817   8.934 -0.2063 -0.2258 -0.0955
 5042SOL    HW116567   2.727   0.853   8.945 -0.7950 -1.4797 -0.4836
 5042SOL    HW216568   2.831   0.819   8.840 -0.4344 -1.3292 -0.1770
 5043SOL     OW16569   3.607   7.462   5.755  0.4501 -0.1373  0.1529
 5043SOL    HW116570   3.608   7.383   5.809  2.5460 -0.0055  0.3837
 5043SOL    HW216571   3.531   7.450   5.697 -0.8140 -1.0914  1.9045
 5044SOL     OW16572   3.353   2.991   6.354  0.0315  0.0952 -0.1674
 5044SOL    HW116573   3.385   2.909   6.392 -2.0438 -1.3067 -1.2764
 5044SOL    HW216574   3.372   2.983   6.261 -0.0936  0.9361 -0.2734
 5045SOL     OW16575   0.750   4.078   9.218 -0.2136  0.1954  0.3832
 5045SOL    HW116576   0.806   4.113   9.149  0.6825  0.2069  1.1023
 5045SOL    HW216577   0.763   4.138   9.292 -0.3360 -0.4140  0.9071
 5046SOL     OW16578   1.702   3.421  10.869 -0.2602 -0.0499  0.5406
 5046SOL    HW116579   1.725   3.403  10.960  2.1542  1.6429  0.3715
 5046SOL    HW216580   1.705   3.517  10.862 -1.3610 -0.0900 -1.1146
 5047SOL     OW16581   1.082   1.864  12.206  0.4018 -0.0165 -0.0746
 5047SOL    HW116582   1.058   1.889  12.117 -0.5863  1.4636  0.5655
 5047SOL    HW216583   1.135   1.785  12.196 -1.0529 -0.8313 -1.8671
 5048SOL     OW16584   3.871   4.245   3.081  0.6579  0.0762 -0.1064
 5048SOL    HW116585   3.797   4.305   3.067 -1.1212 -1.8877  0.2888
 5048SOL    HW216586   3.847   4.196   3.160  2.5188 -0.4654  0.1533
 5049SOL     OW16587   1.039   6.835   0.133 -0.6621  0.3657 -0.0439
 5049SOL    HW116588   1.070   6.907   0.188 -0.8106 -0.7845  1.5902
 5049SOL    HW216589   1.110   6.771   0.134 -0.4536  0.5288 -1.6403
 5050SOL     OW16590   1.789   7.565   5.877 -0.3630 -0.3107 -0.1938
 5050SOL    HW116591   1.801   7.610   5.794 -3.1852 -0.4275 -0.7473
 5050SOL    HW216592   1.849   7.491   5.873 -0.2309 -0.1411 -1.9747
 5051SOL     OW16593   5.584   4.697   1.755 -0.0757 -0.4726 -0.1041
 5051SOL    HW116594   5.582   4.792   1.758  0.2041 -0.4993  1.5071
 5051SOL    HW216595   5.573   4.669   1.846 -2.6768 -2.0457 -0.7811
 5052SOL     OW16596   3.201   2.518   7.598  0.2271 -0.3536 -0.0181
 5052SOL    HW116597   3.242   2.435   7.576  2.4585 -0.1421  2.7671
 5052SOL    HW216598   3.171   2.507   7.688 -0.9951  1.3479 -0.1541
 5053SOL     OW16599   3.010   6.423  12.311  0.8691  0.0270 -0.3085
 5053SOL    HW116600   2.984   6.507  12.274 -0.4123 -0.4142 -0.4626
 5053SOL    HW216601   3.024   6.366  12.235  0.1317 -0.3408 -0.1786
 5054SOL     OW16602   5.593   0.208   6.160 -0.3067  0.5615 -0.2164
 5054SOL    HW116603   5.505   0.238   6.181 -1.4477 -1.3090 -1.9370
 5054SOL    HW216604   5.591   0.190   6.066  1.4440 -0.9132 -0.0415
 5055SOL     OW16605   7.739   5.231  10.418  0.1517  0.1163 -0.1931
 5055SOL    HW116606   7.768   5.180  10.342 -0.0210 -0.6376  0.2398
 5055SOL    HW216607   7.657   5.271  10.389  0.2713  0.1239 -0.5259
 5056SOL     OW16608   7.379   0.366   7.519  0.1670  0.2512 -0.2458
 5056SOL    HW116609   7.468   0.333   7.504 -0.4763 -1.8205  0.1237
 5056SOL    HW216610   7.333   0.351   7.437 -0.5152 -1.1874  0.3636
 5057SOL     OW16611   2.762   4.265   2.647 -0.0422 -0.2982  0.3021
 5057SOL    HW116612   2.728   4.177   2.663  1.3497 -1.0615 -0.6941
 5057SOL    HW216613   2.745   4.281   2.554 -0.0294  0.3637  0.4090
 5058SOL     OW16614   4.820   7.225  10.752  0.1919  0.3255  0.1822
 5058SOL    HW116615   4.783   7.156  10.808  0.1018  2.2241  2.6418
 5058SOL    HW216616   4.798   7.307  10.797  0.2688  2.0092 -2.6252
 5059SOL     OW16617   7.557   7.058   1.950  0.5360 -0.1886 -0.0521
 5059SOL    HW116618   7.586   7.000   2.021 -0.1159  0.3695  0.6941
 5059SOL    HW216619   7.607   7.139   1.965 -0.9378  0.5849  0.9053
 5060SOL     OW16620   3.683   5.156   9.114  0.3036 -0.4159  0.2103
 5060SOL    HW116621   3.627   5.079   9.126  1.6174 -1.4224  0.0883
 5060SOL    HW216622   3.771   5.120   9.100  0.9302  1.1092  0.0392
 5061SOL     OW16623   0.455   6.239   8.002 -0.1566 -0.0896  0.3701
 5061SOL    HW116624   0.514   6.232   8.078  0.3585  2.1313  0.2459
 5061SOL    HW216625   0.369   6.258   8.041 -0.2886 -0.8223  0.4516
 5062SOL     OW16626   7.198   6.583   6.770 -0.2989 -0.5236 -0.1229
 5062SOL    HW116627   7.232   6.634   6.843  0.5230 -0.8839 -0.2416
 5062SOL    HW216628   7.129   6.638   6.732 -0.5898 -0.2465  0.7859
 5063SOL     OW16629   2.403   5.693   4.695 -0.0521  0.4739 -0.4803
 5063SOL    HW116630   2.481   5.705   4.640  0.5037  0.6273  0.3324
 5063SOL    HW216631   2.367   5.781   4.704 -0.2635  0.4193 -0.7536
 5064SOL     OW16632   2.056   2.366   6.869 -0.1391  0.7002 -0.1224
 5064SOL    HW116633   2.010   2.304   6.813 -0.7636 -0.3956  1.5349
 5064SOL    HW216634   2.134   2.319   6.899  1.3704  2.0259 -1.7152
 5065SOL     OW16635   1.300   0.788   4.040  0.0440 -0.2818 -0.0353
 5065SOL    HW116636   1.354   0.747   3.972  1.1651 -0.6262  1.0376
 5065SOL    HW216637   1.331   0.878   4.044 -1.3247  0.2860 -1.2699
 5066SOL     OW16638   0.554   4.843   2.055  0.0521  0.2305  0.5120
 5066SOL    HW116639   0.474   4.796   2.033  0.4479 -1.4052  2.2574
 5066SOL    HW216640   0.531   4.936   2.046 -0.8896 -0.1888 -2.6313
 5067SOL     OW16641   5.854   2.790  11.274  0.1306 -1.0444 -0.6210
 5067SOL    HW116642   5.783   2.826  11.221  0.5707 -0.5303 -0.8717
 5067SOL    HW216643   5.885   2.864  11.326 -0.5325 -1.6201  0.6412
 5068SOL     OW16644   3.748   6.830   5.173 -1.0346  0.0973  0.6529
 5068SOL    HW116645   3.810   6.890   5.131 -1.0307  0.9388  1.8009
 5068SOL    HW216646   3.803   6.772   5.226 -1.1521  0.1400  0.8229
 5069SOL     OW16647   5.507   4.609   2.908 -0.5896  0.0369  0.0283
 5069SOL    HW116648   5.486   4.539   2.846 -0.3541  0.3643 -0.4357
 5069SOL    HW216649   5.458   4.588   2.987 -0.4654 -0.6888 -0.0807
 5070SOL     OW16650   7.815   5.002   7.880  0.2963  0.1121  0.4772
 5070SOL    HW116651   7.783   4.922   7.839 -0.9782  0.1423  1.3574
 5070SOL    HW216652   7.898   5.021   7.836  0.7791 -1.8614  0.4752
 5071SOL     OW16653   7.930   2.263   1.885 -0.7824  0.3542 -0.2973
 5071SOL    HW116654   7.853   2.278   1.939 -0.9858 -0.5844 -0.2997
 5071SOL    HW216655   7.978   2.194   1.931 -0.4270  0.2761 -0.7780
 5072SOL     OW16656   6.096   3.984   6.825  0.1166 -0.2010 -0.0768
 5072SOL    HW116657   6.078   4.037   6.903  0.1037  1.1822 -0.9770
 5072SOL    HW216658   6.191   3.980   6.820  0.1204 -0.1219 -0.0831
 5073SOL     OW16659   0.935   1.023   0.311 -0.3857  0.1442  0.3652
 5073SOL    HW116660   1.016   1.054   0.351  0.0888 -0.9113  0.2613
 5073SOL    HW216661   0.867   1.043   0.375  0.1418 -0.1026  1.0081
 5074SOL     OW16662   0.494   5.530   1.049  0.3401  0.2775 -0.2389
 5074SOL    HW116663   0.502   5.581   0.968 -0.1324  1.2385  0.2972
 5074SOL    HW216664   0.572   5.551   1.099 -0.8498  2.2797  0.9358
 5075SOL     OW16665   7.344   4.210   7.638 -0.4539 -0.0535 -0.0948
 5075SOL    HW116666   7.380   4.122   7.636 -1.6651 -0.5525 -0.4961
 5075SOL    HW216667   7.345   4.234   7.731 -0.3010 -0.5621  0.0382
 5076SOL     OW16668   2.534   1.321   8.620  0.0685 -0.1870  0.1734
 5076SOL    HW116669   2.536   1.232   8.584  0.1345  0.5432 -1.7271
 5076SOL    HW216670   2.625   1.348   8.623 -0.0190  0.1504 -0.1473
 5077SOL     OW16671   0.853   4.207   9.632 -0.1428  0.0392 -0.1171
 5077SOL    HW116672   0.822   4.122   9.662  0.7575 -0.7538 -1.3477
 5077SOL    HW216673   0.930   4.226   9.686  0.8022 -0.8579 -1.0954
 5078SOL     OW16674   2.287   4.222   0.601 -0.6460 -0.2247 -0.3177
 5078SOL    HW116675   2.215   4.259   0.650 -0.9141 -0.0282 -0.8575
 5078SOL    HW216676   2.305   4.138   0.644 -0.0120  0.5191  0.9230
 5079SOL     OW16677   5.415   0.966   0.151  0.6917 -0.3071 -0.5176
 5079SOL    HW116678   5.325   0.998   0.145 -0.1969 -2.3402  0.8024
 5079SOL    HW216679   5.416   0.888   0.094  1.0019 -1.4786  1.0377
 5080SOL     OW16680   1.060   6.410   9.752 -0.6142  0.2453  0.1753
 5080SOL    HW116681   1.014   6.352   9.692  0.7799  1.3658 -2.0741
 5080SOL    HW216682   0.991   6.441   9.812 -1.7626 -2.0158  0.1470
 5081SOL     OW16683   1.749   1.907   3.547 -0.4269 -0.1893 -0.1819
 5081SOL    HW116684   1.773   1.875   3.634  1.5269  0.6534 -0.3489
 5081SOL    HW216685   1.726   1.828   3.498 -0.4765 -0.7877  0.7883
 5082SOL     OW16686   6.798   5.867   6.448 -0.5485 -0.1552 -0.3278
 5082SOL    HW116687   6.817   5.836   6.536  0.1112 -0.9790 -0.7374
 5082SOL    HW216688   6.819   5.960   6.450  2.6288 -0.7421 -0.4176
 5083SOL     OW16689   5.675   7.574   8.116  0.4667  0.1723  0.2259
 5083SOL    HW116690   5.631   7.527   8.045  0.8479  1.0485 -0.6161
 5083SOL    HW216691   5.630   7.658   8.122 -0.5803 -0.4595  2.1005
 5084SOL     OW16692   4.183   4.374   6.658  0.2075 -0.0647 -0.1993
 5084SOL    HW116693   4.196   4.469   6.654  2.2226 -0.1258  2.5331
 5084SOL    HW216694   4.097   4.363   6.700 -0.0238  0.5296 -0.5026
 5085SOL     OW16695   7.418   4.825   1.803  0.4300  0.3872  0.3650
 5085SOL    HW116696   7.482   4.829   1.731  1.3604 -1.2473  1.0318
 5085SOL    HW216697   7.429   4.908   1.850 -0.7907  1.8668 -1.8099
 5086SOL     OW16698   3.684   4.536   3.412  0.0044 -0.4492 -0.1708
 5086SOL    HW116699   3.701   4.446   3.441  0.2079 -1.0854 -2.0753
 5086SOL    HW216700   3.771   4.574   3.403 -0.1089  0.2529  1.4488
 5087SOL     OW16701   3.739   7.433   6.999  0.0780 -0.3646 -0.2878
 5087SOL    HW116702   3.787   7.506   6.958  0.6928 -0.1082  0.8418
 5087SOL    HW216703   3.751   7.360   6.938  0.7295  0.0736 -0.7096
 5088SOL     OW16704   5.011   3.244   4.684 -0.2868 -0.3078  0.1043
 5088SOL    HW116705   5.082   3.307   4.681  0.3734 -1.0559 -0.1664
 5088SOL    HW216706   4.931   3.298   4.680  0.2492  0.5335  0.4575
 5089SOL     OW16707   3.691   2.532  12.143  0.2980 -0.0202  0.5018
 5089SOL    HW116708   3.667   2.440  12.129 -0.8531  0.3605 -0.1644
 5089SOL    HW216709   3.772   2.528  12.194  0.5470 -1.4038  0.0406
 5090SOL     OW16710   4.960   4.158  11.733 -0.2169 -0.0104 -0.1315
 5090SOL    HW116711   4.961   4.095  11.806  1.0977  1.6054  1.3322
 5090SOL    HW216712   4.867   4.180  11.723 -0.5748 -1.2963  0.0780
 5091SOL     OW16713   1.580   6.189   0.625  0.3800 -0.1726 -0.2230
 5091SOL    HW116714   1.507   6.239   0.660 -0.9359 -1.1497 -1.4831
 5091SOL    HW216715   1.643   6.256   0.597  0.4068  0.6635  1.6339
 5092SOL     OW16716   7.104   6.484  12.390 -0.0675 -0.0571 -0.1003
 5092SOL    HW116717   7.040   6.502  12.459  0.0951 -0.5373  0.1784
 5092SOL    HW216718   7.187   6.475  12.436  0.1595  0.2859 -0.4349
 5093SOL     OW16719   1.728   5.846   4.686 -0.0576 -0.1653  0.3810
 5093SOL    HW116720   1.651   5.808   4.642 -1.5333  2.0080  0.9438
 5093SOL    HW216721   1.793   5.856   4.616 -1.7654  1.6865 -1.0606
 5094SOL     OW16722   4.917   3.318  11.352  0.7949 -0.4952 -0.5044
 5094SOL    HW116723   4.914   3.299  11.446  1.2596 -1.2728 -0.6305
 5094SOL    HW216724   5.005   3.354  11.338  0.6263 -0.1219 -0.5926
 5095SOL     OW16725   6.996   5.589   1.221 -0.4938  0.3546  0.2667
 5095SOL    HW116726   7.055   5.594   1.296 -0.5909  0.7364  0.3199
 5095SOL    HW216727   6.970   5.497   1.216  0.4991  0.0730 -0.0564
 5096SOL     OW16728   6.271   6.398   8.666 -0.2490 -0.3581  0.3087
 5096SOL    HW116729   6.261   6.417   8.759  0.1310 -0.4426  0.3660
 5096SOL    HW216730   6.328   6.467   8.632 -0.2037 -0.4549  0.1852
 5097SOL     OW16731   1.091   5.261   3.732  0.2823 -0.4666 -0.1866
 5097SOL    HW116732   1.017   5.201   3.741 -0.3451  0.3856  0.6830
 5097SOL    HW216733   1.166   5.214   3.769  0.6008 -1.9916 -2.5846
 5098SOL     OW16734   0.413   4.215   9.683  0.0776  0.2317  0.5591
 5098SOL    HW116735   0.488   4.227   9.625 -0.1366  0.2242  0.2790
 5098SOL    HW216736   0.346   4.273   9.648  0.3377  1.1361  1.5135
 5099SOL     OW16737   3.629   0.287   4.991  0.1952  0.2492  0.3527
 5099SOL    HW116738   3.632   0.191   4.985  1.0311  0.2934 -0.0904
 5099SOL    HW216739   3.692   0.317   4.926  2.2275  1.0319  2.5206
 5100SOL     OW16740   3.908   7.104   4.732 -0.4186  0.5448  0.9803
 5100SOL    HW116741   3.867   7.179   4.775  1.2571  1.9781  0.1919
 5100SOL    HW216742   3.977   7.076   4.792  0.7228  1.3834  0.0919
 5101SOL     OW16743   2.404   3.389   1.541 -0.3470 -0.2595  0.9592
 5101SOL    HW116744   2.396   3.308   1.591 -2.3312  0.1100  1.2794
 5101SOL    HW216745   2.334   3.445   1.572  0.5011  1.3153  0.1826
 5102SOL     OW16746   0.495   2.835   2.571  0.1420  0.0334  0.2328
 5102SOL    HW116747   0.492   2.814   2.664  0.9835  0.8824  0.4619
 5102SOL    HW216748   0.557   2.772   2.534  1.2637  0.8837  0.5995
 5103SOL     OW16749   6.885   0.585   6.126  0.1867 -0.2343 -0.0193
 5103SOL    HW116750   6.824   0.659   6.121  1.2446  0.6030 -1.3701
 5103SOL    HW216751   6.933   0.599   6.208  0.6193  0.8139 -0.4305
 5104SOL     OW16752   4.534   1.380   2.305  0.0129  0.1202  0.6394
 5104SOL    HW116753   4.627   1.379   2.329  0.2005  3.5536  0.5907
 5104SOL    HW216754   4.534   1.360   2.212  0.7318  0.1413  0.6238
 5105SOL     OW16755   7.307   0.556   4.990  0.1433 -0.6969  0.1725
 5105SOL    HW116756   7.315   0.490   4.921 -0.4885  0.2267 -0.8191
 5105SOL    HW216757   7.212   0.567   5.002  0.2317  0.3119  0.0271
 5106SOL     OW16758   2.445   4.913   5.255  1.1225  0.6352  0.0739
 5106SOL    HW116759   2.390   4.933   5.330 -2.2184 -1.2637 -1.6227
 5106SOL    HW216760   2.458   4.997   5.212 -0.2215  1.2178  0.7425
 5107SOL     OW16761   1.320   7.408  10.200 -0.1302 -0.0473  0.0941
 5107SOL    HW116762   1.343   7.346  10.130  0.0233  0.8873 -0.6989
 5107SOL    HW216763   1.296   7.488  10.154 -1.2103  0.2189  1.0694
 5108SOL     OW16764   5.192   0.181   4.751 -0.4945 -0.0016  0.2171
 5108SOL    HW116765   5.127   0.126   4.795 -0.2076 -2.0937 -1.7627
 5108SOL    HW216766   5.273   0.166   4.799 -0.7774 -0.0002  0.6996
 5109SOL     OW16767   1.210   7.745   1.929  0.1200 -0.5302  0.2643
 5109SOL    HW116768   1.147   7.688   1.885 -2.0984  1.2583  0.9282
 5109SOL    HW216769   1.239   7.694   2.005  0.8887 -2.0541 -0.9836
 5110SOL     OW16770   7.747   0.475   5.252  0.3676 -0.2708  0.2354
 5110SOL    HW116771   7.764   0.529   5.329 -1.1118  0.5278  0.0344
 5110SOL    HW216772   7.663   0.507   5.218  0.3385 -1.5008 -0.9335
 5111SOL     OW16773   3.661   2.546   3.526 -0.1119 -0.0728 -0.5483
 5111SOL    HW116774   3.698   2.556   3.614  0.9296  0.0006 -0.9815
 5111SOL    HW216775   3.567   2.552   3.539 -0.0025 -0.7067  0.6513
 5112SOL     OW16776   1.108   2.935   8.823 -0.5868  0.4343  0.0611
 5112SOL    HW116777   1.083   2.887   8.902  1.9064  1.4126  1.5852
 5112SOL    HW216778   1.086   3.026   8.842  0.7707  0.7939  0.0028
 5113SOL     OW16779   6.273   3.053   8.006  0.2220 -0.5322  0.0118
 5113SOL    HW116780   6.275   2.962   7.977  0.7336 -0.4532 -0.2132
 5113SOL    HW216781   6.201   3.057   8.070 -0.6490 -0.7940 -0.9364
 5114SOL     OW16782   5.300   1.930   5.673 -0.0810  0.4034  0.2117
 5114SOL    HW116783   5.257   1.945   5.589  0.1935  1.1869  0.2045
 5114SOL    HW216784   5.376   1.988   5.672  1.7614 -1.8767 -0.3186
 5115SOL     OW16785   1.021   4.416   7.909 -0.5060  0.6729 -0.6495
 5115SOL    HW116786   0.938   4.388   7.946  1.2505 -1.8932  1.7404
 5115SOL    HW216787   1.010   4.510   7.893 -3.0797  0.9037  1.8028
 5116SOL     OW16788   6.961   2.201   6.869  0.0002  0.0541  0.1615
 5116SOL    HW116789   7.029   2.247   6.919  0.5615  1.7679 -1.9952
 5116SOL    HW216790   6.880   2.250   6.888 -0.1006 -0.2701  0.5822
 5117SOL     OW16791   2.578   5.806   1.779 -0.1907 -0.2188 -0.8027
 5117SOL    HW116792   2.654   5.861   1.760 -1.0604  1.2505 -0.2159
 5117SOL    HW216793   2.508   5.868   1.800 -1.3822 -1.5470 -0.6828
 5118SOL     OW16794   7.468   2.977  11.740 -0.1676 -0.1784  0.0475
 5118SOL    HW116795   7.377   2.952  11.759  0.2395 -1.1134  0.8466
 5118SOL    HW216796   7.480   3.061  11.785 -0.3369 -0.5605  0.8243
 5119SOL     OW16797   4.034   1.173   1.766  0.0528 -0.6141  0.1046
 5119SOL    HW116798   4.079   1.258   1.766 -0.1700 -0.3460  3.4015
 5119SOL    HW216799   4.084   1.120   1.828 -0.4001 -2.6155 -1.1601
 5120SOL     OW16800   0.891   1.059   1.353  0.2644  0.4880  0.2510
 5120SOL    HW116801   0.900   1.146   1.314 -0.7898  1.4648  2.0541
 5120SOL    HW216802   0.826   1.015   1.298  0.6588  0.8904 -0.5608
 5121SOL     OW16803   4.499   6.406   1.626  0.2934  0.2440 -0.3663
 5121SOL    HW116804   4.436   6.473   1.655 -0.4526 -0.1954 -0.9548
 5121SOL    HW216805   4.585   6.448   1.637 -0.1221  1.0080  0.0316
 5122SOL     OW16806   6.340   5.776   6.850  0.0819 -0.3044  1.1463
 5122SOL    HW116807   6.289   5.811   6.777 -1.7661  0.4999  2.7222
 5122SOL    HW216808   6.306   5.688   6.863  0.1592 -0.3187  1.2500
 5123SOL     OW16809   7.524   2.554   6.418 -0.4636 -0.3517  0.0556
 5123SOL    HW116810   7.599   2.575   6.363 -1.0441  3.1114  0.3671
 5123SOL    HW216811   7.542   2.596   6.502 -2.2953 -0.2512  0.4520
 5124SOL     OW16812   6.873   0.081   8.483  0.4016 -0.6678 -0.2164
 5124SOL    HW116813   6.910   0.162   8.446  0.0740 -0.1427  0.5686
 5124SOL    HW216814   6.949   0.024   8.497  0.9597  0.3597  1.2910
 5125SOL     OW16815   2.559   0.594   4.114  0.4633 -0.1994  0.2356
 5125SOL    HW116816   2.646   0.609   4.077  0.5082 -2.4675 -0.7669
 5125SOL    HW216817   2.507   0.669   4.085  2.0642  1.2561  0.9471
 5126SOL     OW16818   7.416   6.313   1.078 -0.0657  0.6489  0.2911
 5126SOL    HW116819   7.410   6.287   1.169  1.8463  0.8371  0.5091
 5126SOL    HW216820   7.366   6.247   1.030 -1.1026  0.5628  1.4492
 5127SOL     OW16821   6.190   6.928   6.327 -0.1561  0.1829  0.4075
 5127SOL    HW116822   6.214   7.014   6.293 -0.0192  1.7219  3.9556
 5127SOL    HW216823   6.102   6.913   6.292  1.0144  0.1467 -2.8529
 5128SOL     OW16824   5.386   2.275   2.143 -0.6672 -0.7958 -0.0819
 5128SOL    HW116825   5.302   2.231   2.156 -1.3208 -0.2058 -1.9812
 5128SOL    HW216826   5.364   2.368   2.141  0.1202 -0.6024 -0.0910
 5129SOL     OW16827   4.935   2.653   0.164  0.5378  0.2639 -0.5337
 5129SOL    HW116828   4.957   2.739   0.200  3.9848 -1.2324  1.4937
 5129SOL    HW216829   4.840   2.649   0.168  0.3735  2.9129  1.9999
 5130SOL     OW16830   1.487   4.229   3.309 -0.2267 -0.5648 -0.6127
 5130SOL    HW116831   1.470   4.196   3.221  0.9379 -0.2187 -0.9921
 5130SOL    HW216832   1.560   4.290   3.298  1.8484 -2.5782  0.9434
 5131SOL     OW16833   2.138   2.996   2.524  1.2195 -0.1738  0.1387
 5131SOL    HW116834   2.086   2.990   2.444  0.8269  1.5818  0.2201
 5131SOL    HW216835   2.201   2.924   2.517  0.1257 -1.0681 -0.9389
 5132SOL     OW16836   7.974   1.030   8.507  0.3473  0.2741  0.2835
 5132SOL    HW116837   8.015   1.106   8.465 -1.4912  0.7573 -0.7373
 5132SOL    HW216838   8.028   0.956   8.480 -0.4953  0.6296 -2.6739
 5133SOL     OW16839   0.319   3.288   2.069  0.1008 -0.0190  0.6805
 5133SOL    HW116840   0.415   3.292   2.068  0.0497  2.3102  0.3913
 5133SOL    HW216841   0.295   3.320   2.156 -0.4325 -1.5683  1.1364
 5134SOL     OW16842   4.266   4.909   0.760  0.0342 -0.3463  0.4258
 5134SOL    HW116843   4.361   4.921   0.758 -0.0964  1.1363  1.2184
 5134SOL    HW216844   4.238   4.931   0.671  0.2269  1.8001  0.8322
 5135SOL     OW16845   0.385   5.516   7.199  0.3570  0.5035 -0.0580
 5135SOL    HW116846   0.388   5.455   7.273 -2.1703 -0.2016 -0.4386
 5135SOL    HW216847   0.455   5.488   7.141  0.2363 -1.0678  0.5169
 5136SOL     OW16848   3.310   3.129   2.968  0.1610 -0.1556  0.1924
 5136SOL    HW116849   3.224   3.113   3.006 -0.2574  0.4784 -0.4635
 5136SOL    HW216850   3.361   3.168   3.039 -0.3231  0.1515  0.3718
 5137SOL     OW16851   1.773   6.921   4.719  0.0974  0.3093 -0.0541
 5137SOL    HW116852   1.703   6.958   4.773  0.7001  0.5864  0.5467
 5137SOL    HW216853   1.832   6.994   4.702  0.5700 -0.0592 -0.0295
 5138SOL     OW16854   2.326   5.250   4.176  0.2987  0.2613  0.0730
 5138SOL    HW116855   2.231   5.244   4.173  0.3707 -0.8627 -2.3368
 5138SOL    HW216856   2.353   5.185   4.241 -0.5097 -1.6616 -1.4207
 5139SOL     OW16857   0.966   5.253  10.637  1.0446 -0.1284 -0.6953
 5139SOL    HW116858   1.026   5.203  10.581  0.1046 -0.0169 -1.8573
 5139SOL    HW216859   0.893   5.275  10.579 -0.7446 -1.3362  0.9625
 5140SOL     OW16860   4.500   5.583   6.929 -0.0655  0.3092  0.2850
 5140SOL    HW116861   4.494   5.521   6.856  1.7220  0.2106  0.1847
 5140SOL    HW216862   4.478   5.530   7.006  1.8958 -0.6164  0.2555
 5141SOL     OW16863   6.773   2.033  11.624  0.0565 -0.1791 -0.1898
 5141SOL    HW116864   6.693   2.060  11.579 -1.8836  0.3386  3.1847
 5141SOL    HW216865   6.810   2.115  11.657  1.7774 -0.4716 -1.2849
 5142SOL     OW16866   7.300   7.008  12.269 -0.2425 -0.1296  0.1664
 5142SOL    HW116867   7.235   6.967  12.212  0.1294 -1.0333  0.3707
 5142SOL    HW216868   7.383   6.965  12.245  0.0520  0.0808  0.7973
 5143SOL     OW16869   5.561   4.015   1.263 -0.1382  0.0460  0.7903
 5143SOL    HW116870   5.497   3.954   1.226 -0.4378  0.2480  0.9715
 5143SOL    HW216871   5.527   4.101   1.242  1.7009  0.2382 -1.9992
 5144SOL     OW16872   5.203   4.668   7.640  1.2511  0.4954  0.2254
 5144SOL    HW116873   5.224   4.652   7.548  0.6005  0.8076  0.0159
 5144SOL    HW216874   5.114   4.702   7.639  1.3410  0.7818  0.9506
 5145SOL     OW16875   7.918   4.886   6.104  0.0610 -0.2792 -0.1314
 5145SOL    HW116876   7.901   4.980   6.104 -1.6296 -0.5458 -1.1391
 5145SOL    HW216877   7.951   4.868   6.192 -0.3301  1.1372  0.3318
 5146SOL     OW16878   5.422   2.838   9.302 -0.0058 -0.0205 -0.1342
 5146SOL    HW116879   5.514   2.820   9.319  0.4058  1.6831 -0.3717
 5146SOL    HW216880   5.382   2.845   9.389 -0.2162 -2.0209 -0.0296
 5147SOL     OW16881   5.741   5.293   8.431 -0.1854  0.2684 -0.3120
 5147SOL    HW116882   5.690   5.286   8.350 -2.1302 -1.7326  0.9912
 5147SOL    HW216883   5.723   5.382   8.462  1.1014  1.3123 -2.3123
 5148SOL     OW16884   3.897   2.710   7.539 -0.1034 -0.4958  0.0267
 5148SOL    HW116885   3.805   2.709   7.568  0.2516 -1.5570  1.1763
 5148SOL    HW216886   3.907   2.796   7.498 -1.6203 -0.3715 -0.1556
 5149SOL     OW16887   4.393   2.043   0.619  0.0016 -0.0704  0.0474
 5149SOL    HW116888   4.389   2.118   0.678  3.7896  0.8750 -0.5998
 5149SOL    HW216889   4.364   2.077   0.534  0.4995  0.3343  0.0349
 5150SOL     OW16890   0.555   2.404   5.598  0.2047  0.4594 -0.3910
 5150SOL    HW116891   0.606   2.465   5.545  1.2386  0.2010  0.2719
 5150SOL    HW216892   0.582   2.423   5.688 -2.3564  1.6819  0.2057
 5151SOL     OW16893   7.633   6.418   7.014 -0.4859  0.2267 -0.4688
 5151SOL    HW116894   7.599   6.407   6.925 -0.1780  1.0925 -0.7016
 5151SOL    HW216895   7.615   6.334   7.057 -3.5355  0.8268 -0.3597
 5152SOL     OW16896   0.782   2.785  12.145  0.1135 -0.0279 -0.5052
 5152SOL    HW116897   0.746   2.787  12.056  0.5235  0.4927 -0.6683
 5152SOL    HW216898   0.810   2.694  12.157 -0.9615 -0.3685 -0.4802
 5153SOL     OW16899   1.344   5.713   8.394  0.1685 -0.4529  0.2190
 5153SOL    HW116900   1.275   5.650   8.375 -0.6965  0.8375 -1.1304
 5153SOL    HW216901   1.364   5.752   8.309  1.7020  0.0801  0.7961
 5154SOL     OW16902   2.700   5.166  11.085  0.7608 -0.2284 -0.0089
 5154SOL    HW116903   2.756   5.089  11.097  2.1858  0.7751  0.0168
 5154SOL    HW216904   2.637   5.139  11.018  0.3259 -1.8666  0.9934
 5155SOL     OW16905   3.800   3.569   1.073 -0.1461  0.2743 -0.1478
 5155SOL    HW116906   3.717   3.529   1.102 -0.2229 -0.4223 -1.2739
 5155SOL    HW216907   3.812   3.537   0.984  0.7996  1.2437 -0.3847
 5156SOL     OW16908   7.411   3.707   9.953 -0.1634  0.2343 -0.0398
 5156SOL    HW116909   7.442   3.618   9.968  0.0571  0.5006  1.2150
 5156SOL    HW216910   7.486   3.751   9.912 -0.2445 -0.1279 -0.5875
 5157SOL     OW16911   2.172   7.509   7.128 -0.0217 -0.6660  0.1390
 5157SOL    HW116912   2.122   7.452   7.187 -0.4062 -0.2606  0.2055
 5157SOL    HW216913   2.236   7.552   7.185 -2.3159  2.0291  0.8862
 5158SOL     OW16914   5.867   6.080   8.292 -0.0327 -0.7407 -1.2689
 5158SOL    HW116915   5.879   5.985   8.288  2.7716 -0.5684  0.2502
 5158SOL    HW216916   5.903   6.104   8.377 -1.1161  1.6727 -1.4180
 5159SOL     OW16917   6.011   2.524   3.656 -0.6978  0.1277 -0.0522
 5159SOL    HW116918   5.924   2.510   3.694 -1.3954 -0.6729 -1.8508
 5159SOL    HW216919   6.065   2.454   3.693 -1.0804  0.0010  0.2787
 5160SOL     OW16920   3.664   2.350   1.134  0.0497  0.1999 -0.1522
 5160SOL    HW116921   3.608   2.281   1.097 -1.4595  0.3295  1.7456
 5160SOL    HW216922   3.608   2.394   1.198  1.4166  2.3339 -0.3496
 5161SOL     OW16923   6.634   7.541   5.531  0.2749 -0.3626 -0.7247
 5161SOL    HW116924   6.609   7.461   5.577 -0.2026  0.5839  0.7599
 5161SOL    HW216925   6.728   7.548   5.544  0.7405 -1.7996 -2.7979
 5162SOL     OW16926   5.393   2.989   5.116 -0.5123  0.3646  0.3705
 5162SOL    HW116927   5.395   3.070   5.166  3.2806  0.1648  0.8179
 5162SOL    HW216928   5.480   2.951   5.127 -1.5432 -2.9102 -1.2774
 5163SOL     OW16929   0.988   7.475  10.136  0.0596  0.3226 -0.2992
 5163SOL    HW116930   0.979   7.393  10.088  0.1771 -0.5696  1.1715
 5163SOL    HW216931   0.898   7.502  10.154  0.0193  0.5717 -0.8350
 5164SOL     OW16932   0.445   7.556   8.605 -0.4031  0.2857 -0.1348
 5164SOL    HW116933   0.394   7.609   8.666 -1.5038 -0.8494 -0.0157
 5164SOL    HW216934   0.424   7.591   8.518 -1.2434 -0.0300 -0.0695
 5165SOL     OW16935   2.793   0.169  10.768 -0.0468 -0.1709 -0.0795
 5165SOL    HW116936   2.791   0.145  10.676 -0.2673 -1.0113  0.1375
 5165SOL    HW216937   2.701   0.178  10.793 -0.0753 -1.8551  0.5301
 5166SOL     OW16938   4.496   0.329   9.879 -0.0573 -0.5972  0.7506
 5166SOL    HW116939   4.404   0.307   9.897 -0.3071 -0.0169  0.2045
 5166SOL    HW216940   4.493   0.416   9.840  0.8514  0.1208  2.1973
 5167SOL     OW16941   1.977   5.639   2.743 -0.0279 -0.0538 -0.6090
 5167SOL    HW116942   1.888   5.622   2.714 -0.0053  0.7272 -1.1768
 5167SOL    HW216943   2.023   5.556   2.731 -0.5108 -0.2732 -0.9471
 5168SOL     OW16944   0.209   2.258   0.624  0.6169  0.5851  0.0306
 5168SOL    HW116945   0.167   2.305   0.696  0.3321  1.1772 -0.5205
 5168SOL    HW216946   0.153   2.273   0.549  1.3646  0.6744 -0.5196
 5169SOL     OW16947   3.296   6.257   8.822  0.3413 -0.0742 -0.2173
 5169SOL    HW116948   3.286   6.205   8.902 -0.5089  0.2619 -0.0922
 5169SOL    HW216949   3.282   6.195   8.751 -0.1179 -0.1372 -0.0761
 5170SOL     OW16950   0.579   0.145   0.722  0.0286  0.1831 -0.4698
 5170SOL    HW116951   0.661   0.156   0.675  1.1449  1.0391  1.5608
 5170SOL    HW216952   0.599   0.082   0.791 -1.2520 -0.1974 -0.4097
 5171SOL     OW16953   5.468   4.119   2.471 -0.0005 -0.1356 -0.2903
 5171SOL    HW116954   5.407   4.131   2.398  0.2066  0.7958 -0.3152
 5171SOL    HW216955   5.416   4.138   2.549 -0.3492 -1.5849 -0.1406
 5172SOL     OW16956   1.296   0.333  11.967 -0.4530  0.3223  0.0725
 5172SOL    HW116957   1.287   0.428  11.975  0.1099  0.4361 -0.4861
 5172SOL    HW216958   1.282   0.316  11.873 -1.1078 -0.2138  0.2628
 5173SOL     OW16959   7.391   1.031   2.525  0.0544 -0.6379  0.4034
 5173SOL    HW116960   7.482   1.031   2.554  0.2830  0.3301 -0.2755
 5173SOL    HW216961   7.368   1.123   2.515 -0.8025 -0.8808 -0.0300
 5174SOL     OW16962   7.643   0.382  12.221 -0.5479  0.2675  0.8597
 5174SOL    HW116963   7.652   0.477  12.229  0.3677  0.0826  2.3691
 5174SOL    HW216964   7.569   0.370  12.162 -0.1917  1.9100  0.0144
 5175SOL     OW16965   5.939   4.724   6.884 -0.0712  0.2453  0.3444
 5175SOL    HW116966   5.914   4.633   6.870 -0.9541  0.4993  0.1916
 5175SOL    HW216967   5.868   4.775   6.844  0.2369  0.9981  0.7276
 5176SOL     OW16968   5.472   1.220   5.314 -0.6564 -0.0120 -0.1451
 5176SOL    HW116969   5.414   1.145   5.317 -0.8896  0.0502 -1.9943
 5176SOL    HW216970   5.501   1.225   5.223  2.6373 -0.3076  0.7448
 5177SOL     OW16971   0.988   1.144   6.758 -0.4294  0.6350  0.1403
 5177SOL    HW116972   0.977   1.102   6.844 -3.6112 -0.8980 -0.8615
 5177SOL    HW216973   0.951   1.232   6.769 -1.3813  0.2333  0.2251
 5178SOL     OW16974   2.080   4.589   3.439 -0.2449 -0.6096 -0.1666
 5178SOL    HW116975   2.082   4.588   3.344 -0.1710 -0.5462 -0.1657
 5178SOL    HW216976   2.160   4.635   3.465 -1.0195  0.7806 -0.1176
 5179SOL     OW16977   3.456   1.962   4.779 -0.3463  0.3796  0.0279
 5179SOL    HW116978   3.541   1.949   4.821  1.2017  0.8129 -2.7363
 5179SOL    HW216979   3.454   2.054   4.756 -1.2523  0.2150 -0.6180
 5180SOL     OW16980   6.166   6.098   5.288  0.0606 -0.0731 -0.0479
 5180SOL    HW116981   6.136   6.058   5.370 -0.3185 -0.9840 -0.6245
 5180SOL    HW216982   6.215   6.029   5.244 -2.4477 -0.6947 -2.0838
 5181SOL     OW16983   3.702   2.824  12.392 -0.7634 -0.6835  0.4401
 5181SOL    HW116984   3.787   2.867  12.389 -0.8523 -0.4143  1.3293
 5181SOL    HW216985   3.690   2.787  12.305 -0.3564  0.4532 -0.1199
 5182SOL     OW16986   2.202   0.090   9.704 -0.3508 -0.5851  0.4553
 5182SOL    HW116987   2.230   0.138   9.782  1.0381  0.3652 -0.5863
 5182SOL    HW216988   2.284   0.063   9.662 -0.9862  0.8182 -1.8308
 5183SOL     OW16989   0.386   6.718   2.617  0.3317 -0.1013  0.1548
 5183SOL    HW116990   0.349   6.632   2.596 -0.2827  0.5652 -1.7357
 5183SOL    HW216991   0.398   6.716   2.712  0.8785 -2.4629  0.1123
 5184SOL     OW16992   5.664   5.492   4.771  0.5439 -0.7041 -0.2718
 5184SOL    HW116993   5.642   5.504   4.678 -0.2783  0.1759  0.0277
 5184SOL    HW216994   5.589   5.445   4.807  0.4449 -0.2227  0.1489
 5185SOL     OW16995   6.620   3.652   3.604  0.0068 -0.0268 -0.0883
 5185SOL    HW116996   6.627   3.589   3.676  0.5535 -1.8702 -1.6700
 5185SOL    HW216997   6.528   3.679   3.605 -0.1937 -0.6879  0.7550
 5186SOL     OW16998   0.124   6.840   1.794  0.0436  0.2118  0.1197
 5186SOL    HW116999   0.200   6.795   1.832  1.0725  0.8740 -1.0675
 5186SOL    HW217000   0.154   6.866   1.707 -1.4009  0.9224 -0.1814
 5187SOL     OW17001   5.606   4.598   9.998  0.3550 -0.0987  0.3298
 5187SOL    HW117002   5.529   4.592   9.941 -0.3533  1.1357  1.0911
 5187SOL    HW217003   5.673   4.547   9.954 -0.7505 -0.7875 -0.6173
 5188SOL     OW17004   2.990   3.285   7.301 -0.2267 -0.5566  0.1211
 5188SOL    HW117005   3.002   3.367   7.349 -0.3961 -0.5542  0.1600
 5188SOL    HW217006   3.068   3.278   7.246 -1.2480  0.8413 -1.6385
 5189SOL     OW17007   4.493   5.211   5.689  0.1352  0.2631  0.2107
 5189SOL    HW117008   4.565   5.270   5.710  0.0659  0.7745 -0.9402
 5189SOL    HW217009   4.521   5.166   5.610  0.2797 -1.4338  1.1813
 5190SOL     OW17010   1.647   7.184  10.558  0.4120 -0.0934 -0.0592
 5190SOL    HW117011   1.588   7.109  10.561  1.7351 -1.2222 -1.1992
 5190SOL    HW217012   1.596   7.253  10.516 -0.3710 -0.7761 -0.2403
 5191SOL     OW17013   5.762   0.939   1.529  0.1946  0.0169  0.5028
 5191SOL    HW117014   5.773   0.990   1.609 -0.3297 -1.5226  1.5949
 5191SOL    HW217015   5.805   0.856   1.547 -0.3426 -0.5368 -0.6425
 5192SOL     OW17016   0.610   0.757   9.010  0.2423 -0.1705  0.3391
 5192SOL    HW117017   0.660   0.836   9.033 -0.9691  0.3467  1.2626
 5192SOL    HW217018   0.566   0.732   9.091  0.7094 -1.9038  0.0984
 5193SOL     OW17019   6.795   0.075   1.265 -0.1080  0.0043  0.2079
 5193SOL    HW117020   6.887   0.091   1.244 -0.0238 -0.7706 -0.0695
 5193SOL    HW217021   6.764   0.018   1.194 -0.7753  0.1912  0.3469
 5194SOL     OW17022   2.746   1.923   8.622 -0.3653 -0.1569  0.0515
 5194SOL    HW117023   2.737   2.018   8.626 -1.6340 -0.2598  0.0444
 5194SOL    HW217024   2.792   1.907   8.539 -0.3593  0.4335 -0.0629
 5195SOL     OW17025   6.873   2.718   3.713 -0.1161  0.3627 -0.4212
 5195SOL    HW117026   6.784   2.691   3.690 -1.0610 -0.8362  3.6620
 5195SOL    HW217027   6.864   2.808   3.744 -0.3158 -0.2192  1.3558
 5196SOL     OW17028   6.494   6.711   4.074  0.0673 -0.2175 -0.0388
 5196SOL    HW117029   6.424   6.774   4.088 -0.1168 -0.8020  1.9923
 5196SOL    HW217030   6.461   6.652   4.007 -1.5104 -0.6067  1.0274
 5197SOL     OW17031   4.180   7.976   6.366  0.1453 -0.0453 -0.1660
 5197SOL    HW117032   4.085   7.963   6.366  0.3510 -1.8473 -1.2442
 5197SOL    HW217033   4.209   7.946   6.280  1.7114  0.3340  0.1908
 5198SOL     OW17034   5.951   1.347   6.135  0.6471  0.0179  0.4752
 5198SOL    HW117035   6.022   1.289   6.105  1.2707  1.3653 -0.8329
 5198SOL    HW217036   5.887   1.345   6.064 -0.2008 -0.4765  1.2442
 5199SOL     OW17037   1.799   7.920   3.825 -0.1950  0.2913 -0.3550
 5199SOL    HW117038   1.850   7.883   3.753  0.1466 -1.4777  0.7384
 5199SOL    HW217039   1.714   7.876   3.819  0.5369 -1.5927  1.5483
 5200SOL     OW17040   6.866   5.625   1.469  0.1548 -0.0538 -0.5210
 5200SOL    HW117041   6.882   5.633   1.375  0.6214  2.9544 -0.2577
 5200SOL    HW217042   6.889   5.710   1.505  0.0592 -1.1464  2.3637
 5201SOL     OW17043   7.124   7.538   6.392 -0.0504 -0.3057 -0.0092
 5201SOL    HW117044   7.129   7.536   6.487 -1.1914  0.0611  0.0701
 5201SOL    HW217045   7.089   7.453   6.367  0.3860 -0.4564 -0.1147
 5202SOL     OW17046   6.615   5.374   8.159  0.2051  0.5818 -0.2440
 5202SOL    HW117047   6.548   5.410   8.101 -1.3665 -1.7974 -0.0720
 5202SOL    HW217048   6.679   5.336   8.099 -0.5722 -0.4236 -0.4701
 5203SOL     OW17049   0.019   7.715   8.705  0.6053 -0.2059 -0.0396
 5203SOL    HW117050   0.077   7.658   8.758  1.5824  0.0092 -0.8464
 5203SOL    HW217051   0.067   7.797   8.698  0.8461 -0.4739 -1.8774
 5204SOL     OW17052   2.533   2.307   3.033 -0.2246  0.1990  0.0768
 5204SOL    HW117053   2.509   2.355   2.953 -2.2121 -2.3919 -1.0126
 5204SOL    HW217054   2.464   2.327   3.095 -0.2051 -0.0130  0.1674
 5205SOL     OW17055   3.885   0.816   8.922  0.5923  0.1461  0.3525
 5205SOL    HW117056   3.828   0.784   8.992 -0.1099  0.3835 -0.1109
 5205SOL    HW217057   3.902   0.908   8.946  0.5974  0.1401  0.3722
 5206SOL     OW17058   2.685   7.853   1.183  0.0628 -0.3072  0.1051
 5206SOL    HW117059   2.595   7.849   1.148 -0.2768 -1.6685  1.0592
 5206SOL    HW217060   2.683   7.926   1.245  0.2058  0.9995 -1.3440
 5207SOL     OW17061   5.873   1.368  10.222  0.3964 -0.1139 -0.2309
 5207SOL    HW117062   5.802   1.415  10.265 -1.1048  0.6327 -3.2725
 5207SOL    HW217063   5.948   1.427  10.228 -0.4044  0.9715 -0.5922
 5208SOL     OW17064   5.028   6.770   9.445  0.0681 -0.5251  0.1845
 5208SOL    HW117065   4.979   6.847   9.476  0.7547 -0.1325  0.3046
 5208SOL    HW217066   5.115   6.804   9.425  0.5401 -1.3825  0.7557
 5209SOL     OW17067   6.891   3.358   4.714 -0.5843  0.6420 -0.3326
 5209SOL    HW117068   6.965   3.377   4.657  0.4359  0.0874  0.7708
 5209SOL    HW217069   6.834   3.302   4.661 -0.6302  1.7185 -1.4609
 5210SOL     OW17070   3.643   3.736   0.101  0.0922 -0.1946 -0.5992
 5210SOL    HW117071   3.724   3.698   0.067  1.0839  1.0634  0.2380
 5210SOL    HW217072   3.578   3.666   0.096  2.3577 -2.9328  3.1756
 5211SOL     OW17073   5.755   2.652  10.627 -0.0400 -0.1214  0.3964
 5211SOL    HW117074   5.811   2.729  10.641  0.4306 -0.3018 -0.4507
 5211SOL    HW217075   5.776   2.594  10.700  0.7247 -0.0946  0.2068
 5212SOL     OW17076   2.723   0.346   0.211  0.1096 -0.7028 -0.0190
 5212SOL    HW117077   2.724   0.423   0.154  0.3654 -1.8917 -1.6926
 5212SOL    HW217078   2.798   0.359   0.269  1.2192 -0.4932 -1.4443
 5213SOL     OW17079   4.257   6.620   1.537 -0.1463 -0.6267 -0.2187
 5213SOL    HW117080   4.175   6.571   1.527 -0.7978  0.5184 -0.7357
 5213SOL    HW217081   4.246   6.668   1.619 -0.0972 -0.2759 -0.4164
 5214SOL     OW17082   7.324   6.757  11.589 -0.0456  0.3324  0.2503
 5214SOL    HW117083   7.409   6.777  11.629 -0.1126 -1.4976  1.4060
 5214SOL    HW217084   7.330   6.666  11.561 -1.6348  0.1409  0.4073
 5215SOL     OW17085   1.331   5.298   5.736 -0.5827 -0.3921  0.3432
 5215SOL    HW117086   1.287   5.221   5.772  0.2376 -0.5396  1.0741
 5215SOL    HW217087   1.421   5.290   5.767 -0.4382  0.7475  0.2469
 5216SOL     OW17088   6.929   3.530   3.249 -0.1100  0.2055 -0.0263
 5216SOL    HW117089   6.957   3.527   3.158 -1.1347 -0.5200 -0.3409
 5216SOL    HW217090   7.000   3.574   3.295 -0.2922  2.1154 -1.4451
 5217SOL     OW17091   5.543   5.619   2.025  0.2115 -0.4086 -0.0673
 5217SOL    HW117092   5.600   5.651   2.095  0.4060 -1.1395  0.1112
 5217SOL    HW217093   5.596   5.627   1.945  0.9317 -1.9770  0.2230
 5218SOL     OW17094   6.151   5.049   4.170  0.2610 -0.3373 -0.1431
 5218SOL    HW117095   6.073   4.994   4.174 -0.6197  0.8766  0.0045
 5218SOL    HW217096   6.130   5.116   4.104  1.9606 -1.1245 -1.5945
 5219SOL     OW17097   4.742   6.526   6.238  0.1400 -0.2633  0.3333
 5219SOL    HW117098   4.750   6.490   6.326 -1.2124 -0.7710  0.2686
 5219SOL    HW217099   4.701   6.456   6.187  3.8868 -1.3166 -1.6022
 5220SOL     OW17100   4.084   3.036  10.674 -0.6238 -0.4467 -0.6023
 5220SOL    HW117101   3.989   3.044  10.684 -0.6822 -2.1334  0.5446
 5220SOL    HW217102   4.101   2.942  10.680  1.3070 -0.0554  1.0072
 5221SOL     OW17103   3.016   3.320  10.207  0.3884 -0.2528 -0.4777
 5221SOL    HW117104   3.092   3.377  10.221 -0.3929  0.7138  0.0004
 5221SOL    HW217105   3.042   3.262  10.135  0.3765  2.2632 -2.6558
 5222SOL     OW17106   7.800   0.144   2.229 -0.2059  0.1818  0.2155
 5222SOL    HW117107   7.821   0.167   2.319 -0.9583  2.1013 -0.0726
 5222SOL    HW217108   7.864   0.192   2.176 -1.5755  1.3838 -0.3924
 5223SOL     OW17109   1.676   5.242   7.805  0.1659 -0.6066 -0.3270
 5223SOL    HW117110   1.695   5.230   7.898  0.1356 -1.0182 -0.3734
 5223SOL    HW217111   1.652   5.335   7.798 -2.6089 -1.1402  0.5975
 5224SOL     OW17112   6.469   1.508   8.901 -0.2392 -0.3272  0.5070
 5224SOL    HW117113   6.402   1.561   8.857  1.0559 -0.0614 -1.2332
 5224SOL    HW217114   6.513   1.461   8.830  1.7216 -0.1309  1.5289
 5225SOL     OW17115   6.049   5.678   8.820 -0.1705  0.1794  0.2210
 5225SOL    HW117116   6.048   5.596   8.770 -0.2295 -0.6236  1.4583
 5225SOL    HW217117   5.978   5.730   8.783  0.6921  0.2343 -1.4489
 5226SOL     OW17118   1.310   7.254   8.873 -0.1909  0.5353 -0.6048
 5226SOL    HW117119   1.365   7.327   8.897 -0.7953  0.4363  1.2119
 5226SOL    HW217120   1.257   7.236   8.951  0.6977 -2.5301 -0.5600
 5227SOL     OW17121   0.385   3.911   9.069  0.8038 -0.8882  0.1163
 5227SOL    HW117122   0.469   3.866   9.079  0.2808 -1.9482 -0.1250
 5227SOL    HW217123   0.339   3.860   9.002  0.0428 -0.2042  0.1134
 5228SOL     OW17124   1.798   1.818  11.136  0.5016 -0.0668 -0.2473
 5228SOL    HW117125   1.809   1.804  11.230 -1.7874 -1.2822 -0.0825
 5228SOL    HW217126   1.879   1.786  11.097  0.7596 -1.3161  1.2088
 5229SOL     OW17127   2.326   0.063   3.797  0.1756  0.3492  0.1592
 5229SOL    HW117128   2.414   0.046   3.832 -0.2614 -1.0144  0.6786
 5229SOL    HW217129   2.283   0.113   3.867  0.9983  2.4206 -0.7481
 5230SOL     OW17130   7.136   2.987   0.263 -0.2362  0.2123 -0.4361
 5230SOL    HW117131   7.135   2.962   0.356  0.5475  0.2383 -0.4104
 5230SOL    HW217132   7.052   2.958   0.229 -1.4717  2.0979  0.7699
 5231SOL     OW17133   1.370   5.963   1.100 -0.1287  0.1246 -0.6315
 5231SOL    HW117134   1.383   5.956   1.006 -0.6765 -0.0843 -0.6972
 5231SOL    HW217135   1.458   5.972   1.136  0.0143  1.4570 -1.2569
 5232SOL     OW17136   1.113   6.711   4.712 -0.3427  0.1952  0.5275
 5232SOL    HW117137   1.131   6.752   4.797  0.4156  1.0033 -0.0137
 5232SOL    HW217138   1.030   6.664   4.726 -1.9368  2.8994  0.8455
 5233SOL     OW17139   0.968   0.376  11.113 -0.5154 -0.5822 -0.0836
 5233SOL    HW117140   1.013   0.413  11.038  0.1848 -0.5857  0.3262
 5233SOL    HW217141   0.892   0.433  11.126 -0.7212 -0.6673 -0.8744
 5234SOL     OW17142   2.512   5.156   2.408 -0.5369  0.1212  0.1086
 5234SOL    HW117143   2.557   5.204   2.338  0.2566 -0.8771 -0.1032
 5234SOL    HW217144   2.480   5.224   2.467 -1.3610  1.0068 -1.2835
 5235SOL     OW17145   2.223   7.432  10.457  0.6701  0.3360  0.0741
 5235SOL    HW117146   2.290   7.378  10.415  1.6431  1.1934  0.4703
 5235SOL    HW217147   2.183   7.481  10.385  0.5691 -0.0681 -0.1469
 5236SOL     OW17148   6.004   4.959   4.516  0.2489 -0.6007 -0.2616
 5236SOL    HW117149   5.962   4.929   4.436  1.2374 -0.1671 -0.9598
 5236SOL    HW217150   5.969   5.047   4.531  0.9495 -0.2040 -0.8916
 5237SOL     OW17151   2.665   1.402   2.996  0.1080  0.3209  0.0561
 5237SOL    HW117152   2.697   1.472   2.938 -1.6071  1.7831  0.7516
 5237SOL    HW217153   2.665   1.441   3.083 -2.9364  0.2982  0.1716
 5238SOL     OW17154   6.515   7.749   7.665 -0.4248 -0.1911 -0.6100
 5238SOL    HW117155   6.516   7.689   7.590 -1.5508  1.3871 -1.9707
 5238SOL    HW217156   6.422   7.767   7.680 -0.2397 -0.7626  1.4533
 5239SOL     OW17157   6.790   2.204   3.165  0.2886  0.2595 -0.6329
 5239SOL    HW117158   6.855   2.252   3.114 -0.1774  0.0766 -1.4175
 5239SOL    HW217159   6.710   2.209   3.113 -0.7474  1.7596  0.9991
 5240SOL     OW17160   2.103   7.183  11.517  0.3236 -0.0976  0.5238
 5240SOL    HW117161   2.105   7.218  11.428  0.9833 -1.0151  0.1633
 5240SOL    HW217162   2.088   7.259  11.572  0.0537  0.5084 -0.3607
 5241SOL     OW17163   1.455   5.676  10.210 -0.6383  0.2779 -0.7717
 5241SOL    HW117164   1.422   5.595  10.169  0.1257 -0.4434 -0.0049
 5241SOL    HW217165   1.383   5.706  10.264 -0.3361 -0.8967  0.3382
 5242SOL     OW17166   3.323   5.987   2.806 -0.3072  0.2979  0.3352
 5242SOL    HW117167   3.385   5.996   2.879  0.2526 -0.7837  0.0266
 5242SOL    HW217168   3.374   6.012   2.729  0.8946 -3.5844 -0.3725
 5243SOL     OW17169   4.601   5.048   5.973  0.5545 -0.3458 -0.0743
 5243SOL    HW117170   4.560   4.994   6.040  0.0462 -0.0888 -0.1687
 5243SOL    HW217171   4.573   5.009   5.890  1.7984 -1.1180 -0.1439
 5244SOL     OW17172   7.833   2.073   0.349 -0.4874 -0.3768 -0.5752
 5244SOL    HW117173   7.745   2.076   0.311  0.0060  2.3204 -1.7145
 5244SOL    HW217174   7.878   2.005   0.298 -1.3479 -0.4058 -1.3260
 5245SOL     OW17175   0.029   3.018   2.269  0.1470  0.4990 -0.4994
 5245SOL    HW117176  -0.042   3.013   2.205 -0.5262  0.5217  0.2386
 5245SOL    HW217177   0.105   3.044   2.217 -0.3702  0.4589 -1.3028
 5246SOL     OW17178   7.167   3.707   6.110  0.0590 -0.1148 -0.2296
 5246SOL    HW117179   7.110   3.633   6.092 -0.7068  0.2644  0.5433
 5246SOL    HW217180   7.109   3.783   6.110  0.2650  0.1296  1.9516
 5247SOL     OW17181   2.538   7.769  11.949  0.3801  0.2025 -0.3051
 5247SOL    HW117182   2.618   7.728  11.980 -0.4679 -1.9843 -0.7835
 5247SOL    HW217183   2.475   7.757  12.020  0.0898  0.6091 -0.4865
 5248SOL     OW17184   2.888   6.774   9.293 -0.0073  0.4110 -0.5195
 5248SOL    HW117185   2.887   6.793   9.387  3.3182  0.6042 -0.4066
 5248SOL    HW217186   2.836   6.844   9.254 -1.8688  0.0718  1.1467
 5249SOL     OW17187   0.599   1.065  10.593 -0.7736 -0.5307  0.1835
 5249SOL    HW117188   0.653   1.026  10.662 -0.5536  0.1821  0.4203
 5249SOL    HW217189   0.584   0.993  10.531 -0.5150 -1.0345  0.6923
 5250SOL     OW17190   2.190   2.626  12.449  0.3773  0.2156 -0.3007
 5250SOL    HW117191   2.151   2.630  12.537 -1.5983 -1.1828 -1.0491
 5250SOL    HW217192   2.208   2.717  12.427 -0.4464  0.7190  0.9788
 5251SOL     OW17193   2.674   2.745   8.614 -0.2289 -0.3408  0.2737
 5251SOL    HW117194   2.663   2.691   8.535 -0.3639  0.7493 -0.4756
 5251SOL    HW217195   2.748   2.706   8.660 -0.2828 -1.1229 -0.2830
 5252SOL     OW17196   0.139   4.341  11.980  0.1435 -0.0281  0.2694
 5252SOL    HW117197   0.093   4.272  11.931  0.2422  0.5655 -0.7013
 5252SOL    HW217198   0.229   4.309  11.987 -0.2968 -1.0297  1.8590
 5253SOL     OW17199   5.980   1.562   7.708 -0.2335  0.0978  0.1890
 5253SOL    HW117200   5.985   1.639   7.652  1.5845 -0.4192 -0.4462
 5253SOL    HW217201   5.940   1.494   7.654 -0.2897  0.1365  0.1823
 5254SOL     OW17202   7.738   0.760   1.852 -0.1000 -0.0856  0.2090
 5254SOL    HW117203   7.710   0.849   1.875 -2.9338 -0.9673  0.6135
 5254SOL    HW217204   7.705   0.705   1.923 -2.7067 -1.9935 -2.2074
 5255SOL     OW17205   4.122   1.056  11.551  0.2469 -0.7869 -0.2308
 5255SOL    HW117206   4.099   0.980  11.603  0.5817  0.5246  1.9431
 5255SOL    HW217207   4.134   1.022  11.462 -0.7969 -3.0234  0.4256
 5256SOL     OW17208   7.508   3.551   7.939  0.3721 -0.5440  0.9661
 5256SOL    HW117209   7.474   3.503   7.864 -0.6788  0.5272  0.7152
 5256SOL    HW217210   7.434   3.604   7.969  1.0504 -0.2234  2.1601
 5257SOL     OW17211   2.583   7.958  12.284  0.4813  0.4693  0.2637
 5257SOL    HW117212   2.565   7.867  12.309  0.2833  0.0681 -1.2266
 5257SOL    HW217213   2.556   8.009  12.360  0.1943 -0.6876  0.9737
 5258SOL     OW17214   1.724   7.809   1.891 -0.2647  0.0007  0.4952
 5258SOL    HW117215   1.759   7.869   1.957 -0.5447 -1.4219  2.0127
 5258SOL    HW217216   1.632   7.834   1.882 -0.3409 -0.0867  1.0078
 5259SOL     OW17217   1.826   4.060   3.537  0.0375 -0.4643 -0.2206
 5259SOL    HW117218   1.768   4.134   3.557  0.7499 -0.2159  1.0496
 5259SOL    HW217219   1.782   4.012   3.467 -0.4293  1.1896 -1.1132
 5260SOL     OW17220   3.856   0.844   9.500 -0.0760  0.2968  0.0923
 5260SOL    HW117221   3.899   0.872   9.420  0.3279  0.3331  0.3185
 5260SOL    HW217222   3.864   0.748   9.499 -0.8255  0.2406 -0.3303
 5261SOL     OW17223   3.628   4.902   1.329 -0.3142 -0.4963 -0.5995
 5261SOL    HW117224   3.628   4.924   1.236 -3.2026 -0.3428 -0.6644
 5261SOL    HW217225   3.538   4.874   1.347  0.2910 -1.0348  2.0392
 5262SOL     OW17226   1.313   5.788   2.721  0.6826  0.1677 -0.2870
 5262SOL    HW117227   1.327   5.713   2.780  0.1749  1.9567  2.3027
 5262SOL    HW217228   1.400   5.824   2.707  0.5947  1.5247  2.0586
 5263SOL     OW17229   4.765   7.071   2.596 -0.5522  0.2024 -0.0181
 5263SOL    HW117230   4.765   7.110   2.684 -1.1114 -2.3463  1.2043
 5263SOL    HW217231   4.826   7.126   2.546  0.0707  1.5359  2.0513
 5264SOL     OW17232   1.258   1.209   5.370  0.9226  0.4598 -0.2923
 5264SOL    HW117233   1.248   1.267   5.445  1.6681 -1.5129  1.4231
 5264SOL    HW217234   1.176   1.160   5.367  0.5017  1.2067 -1.4072
 5265SOL     OW17235   3.412   1.462   1.309 -0.2658  0.2807  0.2801
 5265SOL    HW117236   3.426   1.550   1.275 -0.4198 -0.3578 -1.5809
 5265SOL    HW217237   3.454   1.405   1.244  1.0560 -0.9797  2.1380
 5266SOL     OW17238   5.980   7.327   0.369  0.3598  0.5767 -0.2982
 5266SOL    HW117239   6.040   7.393   0.406 -1.0667  1.6662  0.1641
 5266SOL    HW217240   5.947   7.367   0.288  1.5740 -0.7703 -1.5255
 5267SOL     OW17241   5.101   1.740  10.136 -0.2919  0.5344 -0.1058
 5267SOL    HW117242   5.130   1.654  10.168  3.9719  2.1084  0.9486
 5267SOL    HW217243   5.116   1.736  10.042  1.7562  0.6185  0.1665
 5268SOL     OW17244   7.577   5.735   7.871 -0.0328 -0.9990  0.1256
 5268SOL    HW117245   7.641   5.671   7.841 -0.2202 -0.9405 -0.3977
 5268SOL    HW217246   7.547   5.701   7.956 -1.1415 -2.3364 -0.7488
 5269SOL     OW17247   5.571   1.262  11.679  0.1820  0.4865  0.2352
 5269SOL    HW117248   5.498   1.311  11.718  0.1339  2.2092 -1.8227
 5269SOL    HW217249   5.591   1.310  11.599  1.5715 -1.7290 -0.8241
 5270SOL     OW17250   4.336   1.181   3.581  0.8848  0.1200 -0.4292
 5270SOL    HW117251   4.335   1.255   3.520  0.9043  0.9928  0.6025
 5270SOL    HW217252   4.326   1.104   3.525  1.2181  0.8717 -1.5611
 5271SOL     OW17253   7.798   4.298   3.186  0.4105  0.6669 -0.3318
 5271SOL    HW117254   7.857   4.225   3.204  0.3067  0.4132 -0.9949
 5271SOL    HW217255   7.750   4.271   3.108 -1.1528  0.5234  0.6470
 5272SOL     OW17256   3.906   5.969   0.536  0.2403 -0.0547  0.1926
 5272SOL    HW117257   3.900   5.993   0.628  0.6367 -0.8092  0.4127
 5272SOL    HW217258   3.834   6.018   0.495 -3.1948 -3.3795  1.6536
 5273SOL     OW17259   4.537   3.749  10.587 -0.4813  0.3629 -0.1517
 5273SOL    HW117260   4.446   3.777  10.577 -0.2386  0.9191 -0.9023
 5273SOL    HW217261   4.567   3.795  10.665 -1.6504 -2.0450  1.8693
 5274SOL     OW17262   7.329   7.075   7.912 -0.5531 -0.1282  0.0643
 5274SOL    HW117263   7.320   7.022   7.832 -0.1594  0.9846 -0.7433
 5274SOL    HW217264   7.244   7.069   7.955 -0.0055 -2.8515  0.9441
 5275SOL     OW17265   1.547   4.393   2.263 -0.5313 -0.2534  0.1638
 5275SOL    HW117266   1.605   4.370   2.190  0.5730 -0.0693  0.9546
 5275SOL    HW217267   1.500   4.471   2.233  1.0338  0.7493  0.1785
 5276SOL     OW17268   4.318   6.891   5.793  0.5896 -0.7134  0.6220
 5276SOL    HW117269   4.349   6.847   5.872 -1.6585 -1.1174  1.3437
 5276SOL    HW217270   4.295   6.819   5.733  0.6507 -0.4316  0.2538
 5277SOL     OW17271   4.793   2.059   1.468  0.2026  0.2713 -0.0504
 5277SOL    HW117272   4.830   2.033   1.552  0.1496 -0.0592 -0.1275
 5277SOL    HW217273   4.726   2.125   1.490 -2.4583 -2.3922  0.5660
 5278SOL     OW17274   2.161   6.777   3.358  0.1072 -0.0643 -0.3070
 5278SOL    HW117275   2.092   6.826   3.402 -0.4401 -0.3768 -0.8076
 5278SOL    HW217276   2.158   6.690   3.397 -0.4135 -0.3565 -0.9816
 5279SOL     OW17277   5.801   1.550   2.535 -0.0244  0.1512 -0.6252
 5279SOL    HW117278   5.890   1.547   2.498  0.6155  1.6855  0.6565
 5279SOL    HW217279   5.780   1.458   2.554  1.5780 -0.1758 -0.3009
 5280SOL     OW17280   0.859   6.457   7.916  0.0908 -0.2698  0.6287
 5280SOL    HW117281   0.830   6.387   7.974 -1.9031 -0.1235 -0.1142
 5280SOL    HW217282   0.924   6.505   7.968 -1.0432 -0.5998  2.4462
 5281SOL     OW17283   2.783   4.948   8.495  0.5313  0.5390 -0.8990
 5281SOL    HW117284   2.714   4.993   8.448  0.8571  2.7785  0.5971
 5281SOL    HW217285   2.856   5.010   8.496  1.2784 -0.2958  0.6174
 5282SOL     OW17286   7.832   6.969   5.084 -0.3614  0.3803 -0.2017
 5282SOL    HW117287   7.922   6.988   5.059  0.4722 -3.3043 -0.5169
 5282SOL    HW217288   7.779   7.003   5.012  1.2497 -1.5336 -2.4648
 5283SOL     OW17289   1.287   1.169   9.582 -0.4668 -0.0369 -0.3292
 5283SOL    HW117290   1.205   1.125   9.602 -0.2856  0.0545  0.6583
 5283SOL    HW217291   1.341   1.155   9.660 -0.2698  1.5968 -0.1491
 5284SOL     OW17292   5.073   6.490   4.403  0.0652 -0.2264  0.3923
 5284SOL    HW117293   4.994   6.440   4.422 -0.4174 -0.4803 -1.9457
 5284SOL    HW217294   5.048   6.581   4.416 -0.4618 -0.3384  0.1770
 5285SOL     OW17295   5.246   4.672   4.207  0.3924 -0.3836  0.1399
 5285SOL    HW117296   5.264   4.765   4.215 -0.7573 -0.0827 -0.5284
 5285SOL    HW217297   5.209   4.647   4.292 -1.0577  0.2171 -0.2814
 5286SOL     OW17298   0.339   1.824   6.080 -1.0009  0.5909 -0.3366
 5286SOL    HW117299   0.266   1.876   6.116  0.2617  1.4808  1.0851
 5286SOL    HW217300   0.328   1.829   5.985 -3.4598 -0.3301 -0.1959
 5287SOL     OW17301   0.689   3.144   7.663  0.3494 -0.2212  0.2767
 5287SOL    HW117302   0.627   3.098   7.606 -0.1981 -0.9814  1.4501
 5287SOL    HW217303   0.768   3.152   7.610 -0.0031 -1.2959 -0.4508
 5288SOL     OW17304   3.524   7.024   1.394 -0.0763  0.5658  0.5881
 5288SOL    HW117305   3.438   7.042   1.355 -0.1745  0.1905  0.6273
 5288SOL    HW217306   3.531   6.929   1.393  0.4320  0.6008  0.3889
 5289SOL     OW17307   1.540   7.584   9.187  0.3699 -0.0543  0.0622
 5289SOL    HW117308   1.615   7.640   9.166 -0.6584  1.0233 -0.8299
 5289SOL    HW217309   1.530   7.528   9.110  0.6882 -0.6957  0.4801
 5290SOL     OW17310   1.969   7.018   6.420 -0.0251  0.7063 -0.3568
 5290SOL    HW117311   2.041   6.965   6.386  0.5209  0.9939  0.3256
 5290SOL    HW217312   1.912   7.032   6.344 -0.0939 -0.6829 -0.5941
 5291SOL     OW17313   1.506   7.216   0.356  0.0379  0.1256  0.0816
 5291SOL    HW117314   1.490   7.264   0.275 -0.2992 -1.8765 -1.1236
 5291SOL    HW217315   1.429   7.235   0.411 -0.0126  1.0394 -0.2936
 5292SOL     OW17316   7.136   2.428   1.234  0.1672  0.5444 -0.2111
 5292SOL    HW117317   7.154   2.413   1.327  1.8944 -0.4368 -0.6473
 5292SOL    HW217318   7.222   2.423   1.193 -0.5401  1.2188 -1.8373
 5293SOL     OW17319   0.597   6.547   0.884 -0.0412  0.2192 -0.2561
 5293SOL    HW117320   0.666   6.604   0.917  2.2502 -2.3852 -0.2364
 5293SOL    HW217321   0.590   6.477   0.949 -1.0511 -0.8272 -1.4259
 5294SOL     OW17322   3.291   2.791  11.876 -0.3564 -0.4508  0.2932
 5294SOL    HW117323   3.367   2.753  11.920  0.5981 -0.3371 -1.1952
 5294SOL    HW217324   3.230   2.811  11.947  0.9847 -0.5763  1.5261
 5295SOL     OW17325   1.501   6.096   4.465 -0.7908  0.3774  0.7470
 5295SOL    HW117326   1.464   6.153   4.397  1.1623 -1.6305 -2.2640
 5295SOL    HW217327   1.427   6.044   4.496 -1.6099  0.7410 -0.5315
 5296SOL     OW17328   1.712   2.102   4.360  0.2067  0.1325 -0.4517
 5296SOL    HW117329   1.800   2.136   4.347  0.0871  0.5804 -0.1318
 5296SOL    HW217330   1.701   2.035   4.292  0.6001  0.4403 -0.8208
 5297SOL     OW17331   4.015   2.755   4.278  0.2340 -0.2202  0.2246
 5297SOL    HW117332   3.934   2.801   4.261 -0.7116 -1.6365  0.6898
 5297SOL    HW217333   4.066   2.814   4.333 -0.4709  0.6811 -0.0800
 5298SOL     OW17334   6.574   3.333   3.687 -0.2222  0.2959  0.1751
 5298SOL    HW117335   6.514   3.309   3.616 -1.0619  3.8623 -0.5055
 5298SOL    HW217336   6.523   3.322   3.767 -0.6770  0.2113 -0.1248
 5299SOL     OW17337   5.194   5.236  12.230 -0.5177  0.6572 -0.2314
 5299SOL    HW117338   5.136   5.300  12.271 -0.2448 -0.0869  1.3913
 5299SOL    HW217339   5.266   5.226  12.292 -1.8574 -3.2166  0.9837
 5300SOL     OW17340   7.405   3.740   5.430 -0.0536 -0.0478  0.0561
 5300SOL    HW117341   7.471   3.772   5.491  1.8209 -2.7031 -0.3716
 5300SOL    HW217342   7.437   3.769   5.344  0.0235 -0.4803 -0.0638
 5301SOL     OW17343   6.562   0.289  10.698  0.1806  0.1447 -0.3668
 5301SOL    HW117344   6.654   0.277  10.721  0.1794 -0.6370 -0.7640
 5301SOL    HW217345   6.515   0.235  10.761 -0.0151  0.5251 -0.1804
 5302SOL     OW17346   7.871   6.903   2.521 -0.0842  0.3004 -0.1343
 5302SOL    HW117347   7.834   6.824   2.483 -1.2159 -0.2901  2.0239
 5302SOL    HW217348   7.920   6.944   2.449 -1.1479 -1.2827 -1.8505
 5303SOL     OW17349   5.588   6.065   9.358 -0.6090  0.9283 -0.0583
 5303SOL    HW117350   5.525   6.135   9.374  0.1190  1.6920 -0.4697
 5303SOL    HW217351   5.565   5.997   9.422 -1.1789  1.6374  0.5032
 5304SOL     OW17352   1.380   5.833  11.679 -0.1978  0.0663  0.2401
 5304SOL    HW117353   1.433   5.900  11.637  1.5568 -0.8315  0.9255
 5304SOL    HW217354   1.305   5.822  11.621  1.4278 -0.1423 -1.9419
 5305SOL     OW17355   5.529   4.048   5.458  0.6430 -0.2385  0.2519
 5305SOL    HW117356   5.467   4.070   5.389  0.7895 -0.4437  0.0561
 5305SOL    HW217357   5.589   4.123   5.461  1.1790 -0.6361 -0.4574
 5306SOL     OW17358   1.221   6.121   5.433 -0.4349 -0.2867  0.0134
 5306SOL    HW117359   1.313   6.139   5.455 -0.2679  0.3081 -1.0942
 5306SOL    HW217360   1.223   6.105   5.338 -1.8178  2.2446 -0.5284
 5307SOL     OW17361   0.607   4.307  10.082 -0.2036  0.9153  0.0127
 5307SOL    HW117362   0.663   4.370  10.128 -1.4194  2.4688 -0.5360
 5307SOL    HW217363   0.651   4.292   9.999  0.7337  0.0155  0.6404
 5308SOL     OW17364   0.416   3.596   5.654  0.0690 -0.4365 -0.7422
 5308SOL    HW117365   0.457   3.681   5.635  1.1708 -0.6277  0.5811
 5308SOL    HW217366   0.326   3.618   5.679 -0.1485  0.1702 -1.9927
 5309SOL     OW17367   1.331   5.356   2.574  0.2710  0.2907 -0.0223
 5309SOL    HW117368   1.263   5.300   2.612 -0.9524  1.0339 -1.0342
 5309SOL    HW217369   1.399   5.360   2.642 -1.1207  0.3239  1.4446
 5310SOL     OW17370   1.521   5.745   1.862  0.1895 -0.7748  1.0539
 5310SOL    HW117371   1.543   5.837   1.877  0.0188 -0.5940  0.2410
 5310SOL    HW217372   1.569   5.697   1.930  2.1027 -0.3051  0.0883
 5311SOL     OW17373   1.367   4.569  12.165 -0.1121  0.4992  0.0525
 5311SOL    HW117374   1.413   4.653  12.161 -1.8221  1.4711 -0.1250
 5311SOL    HW217375   1.308   4.570  12.090 -1.8992  0.2230  1.4026
 5312SOL     OW17376   4.657   4.390   0.757 -0.1957  0.5174  0.0562
 5312SOL    HW117377   4.594   4.357   0.821 -0.2621  0.7104  0.0919
 5312SOL    HW217378   4.604   4.413   0.681  0.1403 -2.1961 -1.1192
 5313SOL     OW17379   4.509   4.560   1.499 -0.5154  0.4059  0.6963
 5313SOL    HW117380   4.518   4.558   1.595 -2.2500 -0.7585  0.8996
 5313SOL    HW217381   4.583   4.509   1.467 -0.9136 -0.8017  1.5802
 5314SOL     OW17382   4.184   7.578   7.276  0.6656  0.1679  0.7317
 5314SOL    HW117383   4.197   7.630   7.355  2.1802  0.0339  0.5999
 5314SOL    HW217384   4.179   7.642   7.205  1.2690  0.1965  0.7136
 5315SOL     OW17385   2.356   7.955  10.648 -0.0337  0.0740  0.0938
 5315SOL    HW117386   2.274   7.950  10.697 -0.1180 -0.5524 -0.1084
 5315SOL    HW217387   2.392   8.041  10.670  0.7055 -0.7835  2.4872
 5316SOL     OW17388   3.011   0.233  12.295 -0.4895 -0.1921  0.0456
 5316SOL    HW117389   3.041   0.319  12.324  1.4024 -0.4425 -1.0333
 5316SOL    HW217390   2.954   0.252  12.220  0.6153  0.1142 -0.7445
 5317SOL     OW17391   0.632   0.431   5.336 -0.0408 -0.1251 -0.0827
 5317SOL    HW117392   0.562   0.413   5.272  0.9507 -0.7564 -1.0357
 5317SOL    HW217393   0.657   0.344   5.369 -0.3480  0.1740  0.9700
 5318SOL     OW17394   7.693   0.458   8.507 -0.2157 -0.1831  0.2007
 5318SOL    HW117395   7.785   0.433   8.521 -0.1541  0.8263  1.7423
 5318SOL    HW217396   7.650   0.437   8.589 -1.4161 -0.7158 -0.5381
 5319SOL     OW17397   4.630   7.626   8.577  0.2081  0.1160 -0.0282
 5319SOL    HW117398   4.689   7.595   8.508  1.8837  2.3373  0.3066
 5319SOL    HW217399   4.637   7.721   8.573 -0.8632  0.3439  2.2155
 5320SOL     OW17400   6.181   0.532   4.710 -0.3916 -0.3642 -0.7786
 5320SOL    HW117401   6.127   0.492   4.779 -0.7899 -0.5409 -1.1899
 5320SOL    HW217402   6.270   0.502   4.730 -0.5161 -0.4921 -0.3957
 5321SOL     OW17403   3.840   1.032   4.503 -0.0764  0.0464 -0.3724
 5321SOL    HW117404   3.929   1.020   4.471 -0.0191 -1.0703  0.1651
 5321SOL    HW217405   3.840   1.118   4.544  1.8621 -1.4267  3.1020
 5322SOL     OW17406   3.823   1.570   3.137  0.3311 -0.1330  0.5742
 5322SOL    HW117407   3.842   1.537   3.049 -1.1869  0.5770 -0.0549
 5322SOL    HW217408   3.843   1.663   3.133  0.7964 -0.2003  1.1690
 5323SOL     OW17409   1.764   3.994  10.604  0.4107  0.0042  0.0799
 5323SOL    HW117410   1.711   3.915  10.601 -0.1481  0.2095  2.4447
 5323SOL    HW217411   1.853   3.966  10.582  0.0618 -1.1086  0.0689
 5324SOL     OW17412   1.282   4.597   2.827  0.6117  0.5835  0.2174
 5324SOL    HW117413   1.298   4.674   2.882  1.8162  0.5716 -0.0805
 5324SOL    HW217414   1.293   4.630   2.738  1.3076  0.0371  0.0946
 5325SOL     OW17415   1.402   7.736  11.088  0.2186  0.4085 -0.4124
 5325SOL    HW117416   1.307   7.733  11.093  0.1847  0.5824 -0.9229
 5325SOL    HW217417   1.422   7.720  10.996  0.7263 -0.6689 -0.1357
 5326SOL     OW17418   0.039   4.217   4.585  0.2547  0.0949  0.4387
 5326SOL    HW117419   0.129   4.234   4.559 -0.2547 -0.2143 -1.7892
 5326SOL    HW217420  -0.001   4.303   4.592  0.4639  0.1984  0.3784
 5327SOL     OW17421   1.311   6.723   8.189 -0.6015  0.0152 -0.1941
 5327SOL    HW117422   1.270   6.788   8.246 -0.5920 -0.3091  0.1873
 5327SOL    HW217423   1.288   6.751   8.100  1.0214  1.6658 -0.1614
 5328SOL     OW17424   3.876   4.839   6.691 -0.1900 -0.0549  0.2056
 5328SOL    HW117425   3.810   4.780   6.658  1.0364 -0.9461 -0.7400
 5328SOL    HW217426   3.850   4.856   6.782 -1.6830 -0.3707 -0.1412
 5329SOL     OW17427   7.151   6.263   1.500 -0.6232  0.1081 -0.3513
 5329SOL    HW117428   7.120   6.181   1.537 -0.1754  0.8845  1.9410
 5329SOL    HW217429   7.090   6.282   1.429 -0.2315 -2.5838 -1.5011
 5330SOL     OW17430   0.858   3.579   8.595 -0.4221  0.0189  0.0538
 5330SOL    HW117431   0.766   3.554   8.590  0.1317 -2.3169  0.4558
 5330SOL    HW217432   0.905   3.509   8.550  1.3203 -0.0357  1.8135
 5331SOL     OW17433   1.920   1.308   8.260  0.3169  0.1969 -0.0964
 5331SOL    HW117434   2.006   1.342   8.235  1.3946  0.1498  3.1697
 5331SOL    HW217435   1.936   1.217   8.284 -0.5463  0.3108  0.9788
 5332SOL     OW17436   2.923   4.746   6.130 -0.1007  0.1426 -0.0095
 5332SOL    HW117437   2.970   4.664   6.115  1.7568  1.2863 -0.6635
 5332SOL    HW217438   2.971   4.789   6.200 -0.4096  1.1685 -0.4080
 5333SOL     OW17439   7.336   3.251   1.992  0.1700  0.0453 -0.2608
 5333SOL    HW117440   7.341   3.258   2.087  0.4821 -0.9144 -0.1960
 5333SOL    HW217441   7.427   3.255   1.962  0.4548 -3.2504 -0.1982
 5334SOL     OW17442   3.123   1.182   5.922 -0.0772  0.6538 -0.3072
 5334SOL    HW117443   3.185   1.225   5.863  1.1462  0.0131  0.4552
 5334SOL    HW217444   3.038   1.220   5.901  0.3929  0.7809 -2.1442
 5335SOL     OW17445   7.012   2.819  12.012  0.4582 -0.3436 -0.0848
 5335SOL    HW117446   6.993   2.728  11.988 -1.3347 -0.3527  1.2140
 5335SOL    HW217447   7.010   2.819  12.107  0.5582  1.0478 -0.0690
 5336SOL     OW17448   2.605   5.054  10.253  0.3849 -0.4480  0.1875
 5336SOL    HW117449   2.695   5.027  10.236  0.2565 -2.0925  1.7702
 5336SOL    HW217450   2.552   4.978  10.228 -0.3005 -0.5486  1.8368
 5337SOL     OW17451   1.941   7.648   5.641  0.3456  0.6049  0.5884
 5337SOL    HW117452   2.014   7.693   5.683  0.1534  1.4266  0.0786
 5337SOL    HW217453   1.872   7.714   5.637 -0.0655  0.1548  0.1300
 5338SOL     OW17454   4.651   5.653   7.946  0.2504 -0.3358  0.0385
 5338SOL    HW117455   4.645   5.602   8.027 -0.3523  1.0967  0.9456
 5338SOL    HW217456   4.572   5.632   7.898  1.0188 -1.8613 -0.6270
 5339SOL     OW17457   4.937   0.662   0.659 -0.6345 -0.1865 -0.7020
 5339SOL    HW117458   4.944   0.569   0.638  1.0451 -0.0789 -0.7816
 5339SOL    HW217459   4.967   0.669   0.749  0.8902  0.4466 -1.2202
 5340SOL     OW17460   5.465   6.811   0.259  0.8252  0.2656 -0.1064
 5340SOL    HW117461   5.517   6.732   0.242 -0.1873 -0.7713  1.3414
 5340SOL    HW217462   5.388   6.802   0.204  1.2458  0.8577 -0.8165
 5341SOL     OW17463   0.585   4.388   0.353  0.2469  0.2834  0.4417
 5341SOL    HW117464   0.500   4.345   0.363  0.7949 -0.8145  0.5616
 5341SOL    HW217465   0.585   4.419   0.263  0.6256 -1.8469 -0.3610
 5342SOL     OW17466   7.365   6.083   1.281 -0.6021 -1.0066  0.0657
 5342SOL    HW117467   7.353   5.989   1.266  1.3865 -1.4049  0.7677
 5342SOL    HW217468   7.291   6.108   1.337  0.0196 -2.6419  1.6888
 5343SOL     OW17469   5.049   2.988   4.567 -0.1766 -0.1991 -0.5523
 5343SOL    HW117470   5.096   3.065   4.601 -0.2908 -0.7741  0.9898
 5343SOL    HW217471   4.959   3.018   4.555  0.2307  0.5188 -2.1922
 5344SOL     OW17472   1.557   6.317   6.625 -0.6568  0.4987 -0.6079
 5344SOL    HW117473   1.522   6.398   6.663 -0.8912  0.1666 -0.1075
 5344SOL    HW217474   1.558   6.333   6.530  0.3079  1.4843 -0.4505
 5345SOL     OW17475   0.692   4.645   3.376  0.6030 -0.1430  0.5769
 5345SOL    HW117476   0.658   4.638   3.465 -1.3333 -0.1025 -0.1313
 5345SOL    HW217477   0.695   4.555   3.345 -0.8355  0.0207 -0.0661
 5346SOL     OW17478   1.967   0.378  10.036 -0.1458  0.3335 -1.0923
 5346SOL    HW117479   1.905   0.394   9.965  0.4493  2.8188 -1.1495
 5346SOL    HW217480   1.982   0.465  10.074  0.1511 -0.8109  1.5854
 5347SOL     OW17481   1.272   0.110   7.232  0.0816 -0.2636  0.1233
 5347SOL    HW117482   1.177   0.112   7.240 -0.0652 -2.8619 -0.1150
 5347SOL    HW217483   1.296   0.020   7.253  2.1023 -0.8106 -3.6958
 5348SOL     OW17484   6.206   5.981   5.634  0.0295 -0.6742  0.3186
 5348SOL    HW117485   6.122   6.001   5.594  0.3298  1.4422  0.6250
 5348SOL    HW217486   6.184   5.944   5.719 -0.5798 -0.8049  0.1084
 5349SOL     OW17487   7.303   2.312  10.497 -0.2286 -0.2308  0.3912
 5349SOL    HW117488   7.297   2.220  10.473  0.6689 -0.4350  0.8968
 5349SOL    HW217489   7.380   2.317  10.553 -0.5091  0.7579  0.7108
 5350SOL     OW17490   2.916   1.049   0.194  0.0258 -0.6348  0.1110
 5350SOL    HW117491   2.839   1.088   0.236  0.8117 -0.2768  1.2649
 5350SOL    HW217492   2.898   0.955   0.193 -1.4664 -0.4105 -1.8242
 5351SOL     OW17493   7.137   1.244   9.870  0.2697 -0.2153  0.7851
 5351SOL    HW117494   7.076   1.312   9.839  1.6654  1.0423  0.7171
 5351SOL    HW217495   7.183   1.285   9.943  3.2736  0.0748 -1.1372
 5352SOL     OW17496   5.214   4.205  12.469 -0.3127  0.2342 -0.0180
 5352SOL    HW117497   5.237   4.205  12.376 -0.4450 -0.1079 -0.0516
 5352SOL    HW217498   5.147   4.137  12.477  0.2206 -0.2391  0.4542
 5353SOL     OW17499   7.888   7.948   3.059 -0.2452  0.7109 -0.1802
 5353SOL    HW117500   7.835   7.965   3.137  1.3868  0.4275  1.0614
 5353SOL    HW217501   7.969   7.996   3.075 -0.3786  1.7873 -2.3803
 5354SOL     OW17502   4.557   2.813   1.364  0.3180 -0.4833 -0.2293
 5354SOL    HW117503   4.489   2.746   1.368 -0.6861  0.3288 -2.0539
 5354SOL    HW217504   4.540   2.870   1.438  0.6283 -1.6968  0.8120
 5355SOL     OW17505   5.908   4.517   6.602 -0.3057 -0.0534  0.4724
 5355SOL    HW117506   5.868   4.505   6.516 -0.7855  0.5851  0.6001
 5355SOL    HW217507   5.869   4.448   6.656 -0.2293 -0.2665  0.2549
 5356SOL     OW17508   2.124   0.672   9.132 -0.4526  0.4481  0.1327
 5356SOL    HW117509   2.139   0.762   9.103 -0.4482  0.2230 -0.5858
 5356SOL    HW217510   2.123   0.621   9.051  1.1795 -0.4397  0.6183
 5357SOL     OW17511   2.838   4.338   6.982  0.4900  0.5989 -0.2400
 5357SOL    HW117512   2.763   4.299   7.027  0.5056  1.9322  1.0189
 5357SOL    HW217513   2.856   4.279   6.909  0.2696 -1.5196  1.3330
 5358SOL     OW17514   7.387   0.659   3.790  0.2212 -0.2557  0.2842
 5358SOL    HW117515   7.361   0.717   3.719  0.7699 -0.3707 -0.0155
 5358SOL    HW217516   7.314   0.598   3.799  0.7489 -1.1469 -1.1632
 5359SOL     OW17517   4.331   2.303  10.348 -0.0405 -0.3282  0.0396
 5359SOL    HW117518   4.327   2.357  10.427  1.1512  1.0816 -0.8128
 5359SOL    HW217519   4.285   2.354  10.282  2.2980  0.3685 -1.1433
 5360SOL     OW17520   7.835   1.620   3.435 -0.1172 -0.2709 -0.2210
 5360SOL    HW117521   7.894   1.687   3.469 -1.7443  0.6910  0.9223
 5360SOL    HW217522   7.885   1.575   3.368  1.9009  0.4464  0.7034
 5361SOL     OW17523   7.381   3.793   7.719 -0.2024  0.4076 -0.2650
 5361SOL    HW117524   7.394   3.838   7.635 -0.3309 -0.1781 -0.6112
 5361SOL    HW217525   7.342   3.709   7.694  0.7843 -0.2282  0.2862
 5362SOL     OW17526   7.650   5.798   1.795 -0.0553  0.1581 -0.6991
 5362SOL    HW117527   7.681   5.864   1.733  0.6752  2.6076  2.0462
 5362SOL    HW217528   7.721   5.735   1.801  2.9921  3.4204  2.3044
 5363SOL     OW17529   3.137   5.084   6.124  0.0838  0.3223 -0.5613
 5363SOL    HW117530   3.133   5.033   6.204  0.8972  0.7775 -0.2251
 5363SOL    HW217531   3.228   5.078   6.096  0.1022  1.2751 -0.7206
 5364SOL     OW17532   0.732   2.087   8.980 -0.6208 -0.2842  0.2089
 5364SOL    HW117533   0.712   2.181   8.985 -1.5631 -0.4697 -0.0335
 5364SOL    HW217534   0.793   2.080   8.907 -0.7539  0.1066  0.0542
 5365SOL     OW17535   6.594   0.466  11.271  0.4499  0.8815  0.1175
 5365SOL    HW117536   6.595   0.370  11.262 -1.7039  0.9536 -1.7799
 5365SOL    HW217537   6.681   0.493  11.242  0.5121 -0.4027 -0.9963
 5366SOL     OW17538   0.613   6.793   3.180 -0.6733 -0.3739  0.4829
 5366SOL    HW117539   0.648   6.830   3.261  0.0077 -0.1673  0.1077
 5366SOL    HW217540   0.519   6.809   3.185 -0.6578 -0.5229  1.3104
 5367SOL     OW17541   5.867   5.579  11.676  0.5189 -0.5123 -0.1235
 5367SOL    HW117542   5.836   5.600  11.588  1.5068  1.1305 -0.1150
 5367SOL    HW217543   5.962   5.582  11.670  0.6083  0.1752  1.1042
 5368SOL     OW17544   0.867   3.142   3.817 -0.1875 -0.0482 -0.4076
 5368SOL    HW117545   0.848   3.228   3.778  0.4285  0.6007  0.6495
 5368SOL    HW217546   0.959   3.149   3.844 -0.4304 -0.6548  0.6271
 5369SOL     OW17547   6.667   7.912   6.296  0.0111  0.1263  0.3139
 5369SOL    HW117548   6.706   7.997   6.315  0.3763 -0.6581  3.8724
 5369SOL    HW217549   6.735   7.849   6.321 -1.3792 -1.2016  0.8881
 5370SOL     OW17550   3.987   5.376   0.434  0.1353 -0.2834  0.3252
 5370SOL    HW117551   3.938   5.333   0.363 -0.9518 -0.2116  1.0130
 5370SOL    HW217552   3.927   5.376   0.508  1.5328 -1.0799  1.5095
 5371SOL     OW17553   6.901   0.296  11.641  0.2133  0.2373 -0.4090
 5371SOL    HW117554   6.821   0.321  11.686  1.4440  2.6588  0.5847
 5371SOL    HW217555   6.890   0.202  11.625 -1.9704  0.0772  1.4231
 5372SOL     OW17556   7.138   3.525   4.654 -0.3595  0.1615 -0.4377
 5372SOL    HW117557   7.114   3.601   4.708 -0.2820 -0.4517  0.4735
 5372SOL    HW217558   7.072   3.523   4.585 -1.0910  0.3388  0.2442
 5373SOL     OW17559   1.291   3.091   5.640 -0.0947 -0.1308 -0.7731
 5373SOL    HW117560   1.224   3.074   5.707  0.3184  0.2145 -0.2637
 5373SOL    HW217561   1.293   3.011   5.588  1.2856 -1.4336  1.1167
 5374SOL     OW17562   2.085   3.916  12.097  0.1848 -0.4028 -0.2967
 5374SOL    HW117563   2.091   3.836  12.150  0.7349  0.0579  0.3550
 5374SOL    HW217564   2.029   3.974  12.148  1.0363  0.1915 -0.0225
 5375SOL     OW17565   5.211   2.493   9.096 -0.4078  0.2667  0.6295
 5375SOL    HW117566   5.153   2.495   9.020 -0.5368 -3.4020  0.4435
 5375SOL    HW217567   5.223   2.399   9.114  1.4870  0.9706  3.7208
 5376SOL     OW17568   3.526   6.653  11.887  0.0440  0.4483  0.0623
 5376SOL    HW117569   3.462   6.658  11.815 -0.2616  0.2290  0.3135
 5376SOL    HW217570   3.558   6.742  11.897  1.9823  0.0868 -2.0301
 5377SOL     OW17571   7.299   3.547  11.628  0.1489 -0.4057  0.0404
 5377SOL    HW117572   7.205   3.563  11.641  0.3288  1.9539 -0.9595
 5377SOL    HW217573   7.337   3.554  11.715 -0.5071 -0.6247  0.3486
 5378SOL     OW17574   0.376   0.321  10.415  0.0664  0.4959 -0.1995
 5378SOL    HW117575   0.328   0.347  10.494  1.1778  0.3869  0.5255
 5378SOL    HW217576   0.353   0.229  10.403 -1.5561  0.9847 -1.0805
 5379SOL     OW17577   1.486   2.350   0.554 -0.5275  0.4792  0.6573
 5379SOL    HW117578   1.501   2.330   0.462 -1.2734 -0.1300  0.6623
 5379SOL    HW217579   1.563   2.402   0.580  1.6013 -2.4105  0.6693
 5380SOL     OW17580   7.589   7.821   1.833 -0.2336  0.4514 -0.1860
 5380SOL    HW117581   7.514   7.797   1.887  0.3570 -0.0864  0.3979
 5380SOL    HW217582   7.665   7.800   1.886  0.4110 -1.5709 -1.7908
 5381SOL     OW17583   6.825   3.255   3.173 -0.2089 -0.5296  0.4980
 5381SOL    HW117584   6.890   3.318   3.204 -0.3805  0.2620 -0.6883
 5381SOL    HW217585   6.843   3.175   3.223  2.9919 -0.9825 -1.1404
 5382SOL     OW17586   4.887   2.212   4.548 -0.4110 -0.3256 -0.2640
 5382SOL    HW117587   4.956   2.179   4.492 -0.4533 -1.1838  0.1707
 5382SOL    HW217588   4.807   2.204   4.495 -0.4289 -0.9852 -0.1427
 5383SOL     OW17589   1.063   6.599   5.383  0.1241  0.4699  0.7594
 5383SOL    HW117590   1.055   6.503   5.384  0.0026  0.4791  1.8431
 5383SOL    HW217591   1.156   6.615   5.400  0.7431  0.5356 -2.1047
 5384SOL     OW17592   0.173   2.460   1.062 -0.4186 -0.6028  0.2590
 5384SOL    HW117593   0.199   2.369   1.076  1.3068 -0.7053 -2.7437
 5384SOL    HW217594   0.120   2.457   0.982 -2.7500  0.7499  1.6520
 5385SOL     OW17595   1.559   2.462  10.631  0.6149 -0.4346 -0.3761
 5385SOL    HW117596   1.497   2.527  10.666  1.9245  0.9650 -0.5607
 5385SOL    HW217597   1.641   2.479  10.678  1.1319 -1.6218 -0.8062
 5386SOL     OW17598   5.916   0.382  10.522 -0.3722 -0.5036 -0.4652
 5386SOL    HW117599   5.856   0.308  10.515 -0.5429 -0.3948 -0.1888
 5386SOL    HW217600   5.873   0.442  10.583 -0.2656 -0.1467 -0.7373
 5387SOL     OW17601   2.226   5.327   9.459  0.3852  0.3104  0.5045
 5387SOL    HW117602   2.295   5.394   9.452  0.9262 -0.3377 -0.5057
 5387SOL    HW217603   2.270   5.252   9.498  0.2728 -0.1249 -0.1931
 5388SOL     OW17604   7.428   0.085   1.487  0.0735  0.4290 -0.1531
 5388SOL    HW117605   7.463  -0.003   1.474 -1.8952 -0.6484  1.4541
 5388SOL    HW217606   7.505   0.138   1.509  1.2259 -0.9501 -0.6783
 5389SOL     OW17607   1.074   0.992   1.616 -0.3469  0.1678  0.2415
 5389SOL    HW117608   1.100   0.921   1.674  0.9304 -1.0139 -1.6591
 5389SOL    HW217609   1.017   0.950   1.552  1.9031  0.3487 -2.0242
 5390SOL     OW17610   6.935   1.431   6.974  0.4403  0.0466 -0.4934
 5390SOL    HW117611   6.972   1.518   6.985 -0.6369  0.6590 -1.4856
 5390SOL    HW217612   6.849   1.446   6.934 -0.5967 -1.3625  1.0760
 5391SOL     OW17613   7.185   0.638   7.344 -0.2919  0.1217 -0.0647
 5391SOL    HW117614   7.110   0.653   7.286 -0.7926 -1.3356  0.1551
 5391SOL    HW217615   7.260   0.636   7.285 -0.8613 -1.9186 -0.8236
 5392SOL     OW17616   3.636   5.255   2.868 -0.1139 -0.0333  0.0176
 5392SOL    HW117617   3.544   5.247   2.841 -0.5921  1.6049  0.9915
 5392SOL    HW217618   3.680   5.182   2.825 -1.6388 -0.1261 -1.5039
 5393SOL     OW17619   2.477   5.403   5.468  0.1211  0.2164 -0.1997
 5393SOL    HW117620   2.466   5.498   5.477 -0.3842  0.0371  1.3480
 5393SOL    HW217621   2.570   5.389   5.483  0.7829  0.6854 -3.1249
 5394SOL     OW17622   2.282   7.564   7.542 -0.2766 -0.3307  0.5280
 5394SOL    HW117623   2.277   7.474   7.511 -0.0944 -0.7678  1.7226
 5394SOL    HW217624   2.249   7.560   7.632 -0.2742  0.7979  0.5886
 5395SOL     OW17625   7.951   4.626  11.113 -0.2290 -0.2407  0.1742
 5395SOL    HW117626   8.003   4.618  11.033 -1.7417 -1.6201 -0.7172
 5395SOL    HW217627   7.899   4.706  11.100  2.3749  1.8488  1.5857
 5396SOL     OW17628   4.800   1.859   3.546 -0.5029  0.0868 -0.3895
 5396SOL    HW117629   4.749   1.905   3.479 -0.8642  1.2025  0.6197
 5396SOL    HW217630   4.889   1.855   3.509 -0.3723  1.9486 -0.3691
 5397SOL     OW17631   1.077   3.793   8.947 -0.0288  0.1461 -0.3733
 5397SOL    HW117632   1.118   3.718   8.904  0.9107 -0.3211  1.2287
 5397SOL    HW217633   1.130   3.807   9.026  0.2093  2.9020 -0.9117
 5398SOL     OW17634   1.710   2.654   5.182 -0.7542 -0.0478 -0.3917
 5398SOL    HW117635   1.782   2.591   5.172 -0.5092  0.5272 -3.0782
 5398SOL    HW217636   1.651   2.612   5.245  0.6372 -1.7744 -0.1390
 5399SOL     OW17637   0.276   4.002  11.551  0.1191  0.6128  0.0535
 5399SOL    HW117638   0.193   4.047  11.536  0.2093  1.3982  1.6848
 5399SOL    HW217639   0.314   3.993  11.464 -1.4900  0.5712 -0.6894
 5400SOL     OW17640   6.862   4.967   7.117 -0.5721  0.2116 -0.7234
 5400SOL    HW117641   6.812   4.889   7.142 -1.0025  0.7068 -0.0022
 5400SOL    HW217642   6.951   4.949   7.146 -1.4139  1.6548  3.4711
 5401SOL     OW17643   6.095   5.232   5.214  0.1103 -0.1489  0.2046
 5401SOL    HW117644   6.033   5.304   5.231  0.0487  0.3544 -1.8546
 5401SOL    HW217645   6.039   5.157   5.192  0.1865 -0.7755  1.9875
 5402SOL     OW17646   4.092   2.897  11.011  0.6555 -0.6460  0.2006
 5402SOL    HW117647   4.017   2.937  10.965  1.6108 -1.7145 -2.4948
 5402SOL    HW217648   4.095   2.942  11.095 -2.8359 -0.3542  0.3318
 5403SOL     OW17649   0.799   5.001   9.536 -0.6302  0.1075  0.1681
 5403SOL    HW117650   0.801   4.991   9.441 -0.7486 -0.4235  0.2172
 5403SOL    HW217651   0.848   4.925   9.569 -2.6382 -1.0885  0.6049
 5404SOL     OW17652   1.485   6.956  11.842 -0.4068 -0.0811 -0.1054
 5404SOL    HW117653   1.481   6.862  11.828  1.7430 -0.2344 -0.0712
 5404SOL    HW217654   1.394   6.983  11.851 -1.2553 -1.7334 -2.6312
 5405SOL     OW17655   5.940   1.231   0.621 -0.2608  0.5361  0.3876
 5405SOL    HW117656   5.941   1.292   0.547 -1.2515 -0.1623 -0.2374
 5405SOL    HW217657   5.895   1.277   0.691 -1.4400  0.3759 -0.2385
 5406SOL     OW17658   1.996   0.732   6.381 -0.0678 -0.5931 -0.0420
 5406SOL    HW117659   2.047   0.779   6.315 -0.1900 -2.2106 -1.3722
 5406SOL    HW217660   1.926   0.691   6.331 -1.9994  0.5917  1.5822
 5407SOL     OW17661   5.439   7.902   5.398 -0.0333  0.2079  0.2732
 5407SOL    HW117662   5.430   7.807   5.407  0.8047 -0.0449 -1.2861
 5407SOL    HW217663   5.508   7.914   5.333 -1.1942  1.8729 -0.7348
 5408SOL     OW17664   0.463   1.543   1.680 -0.1251 -0.2411  0.1919
 5408SOL    HW117665   0.379   1.542   1.634 -0.1233  2.9000 -0.1267
 5408SOL    HW217666   0.440   1.526   1.772 -1.2392  1.0021  0.1885
 5409SOL     OW17667   3.262   5.705  10.328  0.3265  0.9480 -0.0052
 5409SOL    HW117668   3.344   5.677  10.368  0.4778  0.4939 -0.6098
 5409SOL    HW217669   3.203   5.631  10.340  0.9039  0.0746 -2.1248
 5410SOL     OW17670   0.186   2.136   6.099  0.2767  0.3298 -0.3224
 5410SOL    HW117671   0.272   2.124   6.140 -0.4709  0.6679  1.4190
 5410SOL    HW217672   0.138   2.056   6.120 -0.0422  0.3850 -0.8137
 5411SOL     OW17673   0.998   7.676   6.333 -0.3280 -0.6413  0.4094
 5411SOL    HW117674   0.929   7.729   6.373 -0.6791 -0.9762  0.2468
 5411SOL    HW217675   0.974   7.670   6.241  0.6321  0.3636  0.0763
 5412SOL     OW17676   1.525   5.701   7.763  0.1579  0.2553  0.5482
 5412SOL    HW117677   1.504   5.795   7.769  2.3075  0.7301  1.6274
 5412SOL    HW217678   1.621   5.698   7.766  0.1101 -2.0409  1.2596
 5413SOL     OW17679   7.054   3.351   1.927 -0.0482  0.3968 -0.2583
 5413SOL    HW117680   7.147   3.328   1.929  0.0713  0.9028  0.0522
 5413SOL    HW217681   7.025   3.324   1.839  0.4874  0.6209 -0.5101
 5414SOL     OW17682   4.115   5.236   1.978  0.1877 -0.2277  0.1656
 5414SOL    HW117683   4.152   5.245   1.890 -0.2854 -0.8097 -0.0991
 5414SOL    HW217684   4.186   5.201   2.031  0.7553  0.9738  0.2355
 5415SOL     OW17685   5.472   7.526   1.982 -0.1637  0.1333  0.1965
 5415SOL    HW117686   5.534   7.492   1.917 -1.0961 -0.3355 -0.4597
 5415SOL    HW217687   5.453   7.615   1.953  1.2257  0.7808  1.1589
 5416SOL     OW17688   6.664   3.804   4.228  0.0034  0.3783  0.1270
 5416SOL    HW117689   6.667   3.725   4.174  1.8176 -0.7530  1.7548
 5416SOL    HW217690   6.638   3.874   4.167 -2.6392 -1.5550 -1.1527
 5417SOL     OW17691   6.522   6.815   7.642 -0.3066  0.3163 -0.1227
 5417SOL    HW117692   6.452   6.877   7.620  1.2231  1.2387 -2.8462
 5417SOL    HW217693   6.546   6.838   7.732 -2.2049  1.2246  0.2131
 5418SOL     OW17694   0.101   0.903   1.427  0.0092  0.3229  0.5905
 5418SOL    HW117695   0.092   0.967   1.498 -0.2249  0.0394  0.8214
 5418SOL    HW217696   0.027   0.843   1.439  0.0709  0.1654  0.2149
 5419SOL     OW17697   7.036   0.093  11.984 -0.1595  0.0994 -0.1524
 5419SOL    HW117698   6.942   0.101  12.004  0.1399  0.5200  1.2253
 5419SOL    HW217699   7.051   0.156  11.914 -1.1468 -0.9415 -1.3495
 5420SOL     OW17700   1.579   1.212   4.651 -1.0190 -0.5491 -0.6224
 5420SOL    HW117701   1.625   1.256   4.723  0.1023 -1.5677 -0.6855
 5420SOL    HW217702   1.636   1.223   4.575 -1.3185 -1.0612 -0.9291
 5421SOL     OW17703   0.336   2.860   9.040  0.2482  0.1001 -0.2238
 5421SOL    HW117704   0.351   2.946   9.001  2.4868  0.1784  0.6779
 5421SOL    HW217705   0.355   2.872   9.133 -1.9428 -0.8125  0.3990
 5422SOL     OW17706   3.351   0.894   8.092 -0.3119 -0.0022 -0.1580
 5422SOL    HW117707   3.430   0.930   8.133 -0.1541 -0.3662 -0.1325
 5422SOL    HW217708   3.302   0.970   8.063  0.6319  0.2023 -1.2665
 5423SOL     OW17709   7.963   7.921   3.442  0.2724 -0.5146 -0.0156
 5423SOL    HW117710   7.955   7.828   3.419  1.5287 -0.0232 -2.7628
 5423SOL    HW217711   8.056   7.940   3.437  0.2314  0.5823  2.1380
 5424SOL     OW17712   2.494   6.983   3.754  0.0224  0.0556 -0.5600
 5424SOL    HW117713   2.452   7.008   3.836  0.0982  1.2616 -0.8725
 5424SOL    HW217714   2.426   6.934   3.707  0.3138 -1.6192  0.6337
 5425SOL     OW17715   7.355   3.778  10.920  0.1187  0.0762  0.3077
 5425SOL    HW117716   7.402   3.855  10.951 -0.5328  0.3985  0.5028
 5425SOL    HW217717   7.424   3.720  10.886  0.6244  0.6602  0.3268
 5426SOL     OW17718   4.486   7.298   7.022  0.0390  0.2923 -0.2364
 5426SOL    HW117719   4.429   7.337   7.088 -0.8028 -0.4700 -0.4905
 5426SOL    HW217720   4.426   7.263   6.956  0.7884 -0.7006 -0.4111
 5427SOL     OW17721   6.432   1.832   2.148  0.1746 -0.2998 -0.1429
 5427SOL    HW117722   6.398   1.765   2.207 -0.4363 -0.2690 -0.4586
 5427SOL    HW217723   6.523   1.805   2.132  0.1743 -0.6107  0.3689
 5428SOL     OW17724   0.875   6.921   4.549 -0.2055  0.3371  0.2511
 5428SOL    HW117725   0.839   6.960   4.628  1.9135  1.4966  0.7213
 5428SOL    HW217726   0.883   6.994   4.488 -0.0470 -0.1847 -0.3581
 5429SOL     OW17727   4.011   5.486   1.717  0.1729  0.0842  0.2947
 5429SOL    HW117728   3.958   5.407   1.729 -0.0975 -0.1568 -2.0292
 5429SOL    HW217729   3.948   5.558   1.724  0.1726  0.0260  0.9848
 5430SOL     OW17730   3.888   1.488   7.229  0.8523  0.4206 -0.1545
 5430SOL    HW117731   3.982   1.478   7.215  0.6008  0.5510 -2.2947
 5430SOL    HW217732   3.874   1.583   7.235  0.7353  0.4716 -1.0733
 5431SOL     OW17733   0.248   3.490   0.124  0.4632 -0.0450 -0.5533
 5431SOL    HW117734   0.180   3.501   0.190 -0.2304 -1.5853 -0.9727
 5431SOL    HW217735   0.311   3.560   0.143 -1.9644  2.4456 -1.1193
 5432SOL     OW17736   0.194   0.037  10.814 -0.4783  0.0858 -0.1035
 5432SOL    HW117737   0.105  -0.000  10.811  0.4037 -2.1089 -0.9864
 5432SOL    HW217738   0.215   0.039  10.908 -1.3546  0.4549  0.1067
 5433SOL     OW17739   2.284   2.929   7.610 -0.7298 -0.0270 -0.3202
 5433SOL    HW117740   2.208   2.986   7.598  0.0721  0.8984 -1.2039
 5433SOL    HW217741   2.305   2.935   7.703 -1.0669  0.5870 -0.2850
 5434SOL     OW17742   5.753   5.074   2.907 -0.0235 -0.0393  0.9751
 5434SOL    HW117743   5.666   5.093   2.940 -0.6624  1.9764 -1.5615
 5434SOL    HW217744   5.747   4.984   2.872 -1.7369  0.7243 -0.8966
 5435SOL     OW17745   2.832   7.168   2.649 -0.2171  0.0838  0.6869
 5435SOL    HW117746   2.861   7.100   2.588 -0.6775  0.4237  0.0790
 5435SOL    HW217747   2.777   7.122   2.712  0.6586 -0.3547  1.1423
 5436SOL     OW17748   2.237   4.719   7.825  0.0252 -0.1037 -0.5576
 5436SOL    HW117749   2.170   4.754   7.883  0.3279  0.2427 -0.4189
 5436SOL    HW217750   2.280   4.795   7.787  1.2865 -0.2898  0.4353
 5437SOL     OW17751   1.135   7.687   6.953 -0.0221  0.0246 -0.0989
 5437SOL    HW117752   1.195   7.758   6.932 -0.0560  0.4786  1.2366
 5437SOL    HW217753   1.154   7.619   6.889  0.6984  0.8514 -0.7774
 5438SOL     OW17754   2.717   3.504   9.627 -0.2010  0.9387 -0.8284
 5438SOL    HW117755   2.768   3.584   9.611  0.9316  0.6013  0.8985
 5438SOL    HW217756   2.783   3.438   9.649 -1.1012 -0.5552 -2.3919
 5439SOL     OW17757   1.053   3.261   6.173  0.3457  0.5729  0.3702
 5439SOL    HW117758   0.980   3.292   6.120  0.3923 -0.6593 -0.4628
 5439SOL    HW217759   1.121   3.327   6.160 -0.1002  0.9664 -0.0498
 5440SOL     OW17760   2.128   6.551   6.134 -0.0996 -0.4362 -0.1008
 5440SOL    HW117761   2.038   6.580   6.149 -0.7911 -2.7446  0.6021
 5440SOL    HW217762   2.140   6.559   6.039 -0.1646  2.1396  0.0534
 5441SOL     OW17763   3.784   0.439   0.423 -0.3562  0.2842 -0.0788
 5441SOL    HW117764   3.879   0.450   0.428 -0.4025  0.2553  1.8126
 5441SOL    HW217765   3.771   0.350   0.392  0.2699 -0.2103  1.0324
 5442SOL     OW17766   3.954   5.256  12.199 -0.2192  0.4123  0.2046
 5442SOL    HW117767   4.014   5.224  12.266  0.2146  1.2367  0.2224
 5442SOL    HW217768   3.893   5.312  12.247 -0.7560 -0.1033  0.1249
 5443SOL     OW17769   2.678   6.298   9.967 -0.2961  0.7087  0.1703
 5443SOL    HW117770   2.612   6.298  10.036 -0.3532  0.7537  0.1164
 5443SOL    HW217771   2.759   6.272  10.011 -0.9599 -2.6752 -0.3321
 5444SOL     OW17772   0.467   4.256   1.759  0.1819 -0.2465  0.2074
 5444SOL    HW117773   0.470   4.276   1.665 -1.2786 -0.6120  0.0547
 5444SOL    HW217774   0.379   4.282   1.786  0.7440  0.2828  1.5971
 5445SOL     OW17775   2.589   3.842   2.323  0.5018  0.4704  0.1913
 5445SOL    HW117776   2.651   3.783   2.367 -0.3092  0.0432  0.7682
 5445SOL    HW217777   2.513   3.787   2.303  0.6096  0.7994 -1.2372
 5446SOL     OW17778   3.890   4.039  12.228  0.4405 -0.3498 -0.0073
 5446SOL    HW117779   3.798   4.017  12.243  0.3410 -0.0843 -0.2002
 5446SOL    HW217780   3.925   4.057  12.315  0.7911 -2.2205  0.2664
 5447SOL     OW17781   2.735   3.475   1.330  0.0881 -0.0120  0.6404
 5447SOL    HW117782   2.828   3.467   1.307 -0.3344 -3.3974 -0.5684
 5447SOL    HW217783   2.732   3.453   1.423  0.4582 -0.7627  0.4884
 5448SOL     OW17784   7.642   5.777  11.588 -0.0511 -0.1212  0.0341
 5448SOL    HW117785   7.549   5.794  11.603 -0.1559 -0.4916 -0.1684
 5448SOL    HW217786   7.676   5.859  11.552 -0.6955 -0.5143 -1.5869
 5449SOL     OW17787   7.327   2.714   0.396  0.1079  0.0848 -0.6287
 5449SOL    HW117788   7.341   2.808   0.395 -0.9690  0.2752 -2.4448
 5449SOL    HW217789   7.290   2.696   0.482  0.1451  1.3493 -0.3331
 5450SOL     OW17790   1.124   4.784  10.047  0.9372 -0.0840 -0.4492
 5450SOL    HW117791   1.165   4.712   9.999  1.8973  0.6580 -0.7651
 5450SOL    HW217792   1.150   4.863  10.000  0.5653  0.5351  0.3607
 5451SOL     OW17793   5.511   5.044   3.068 -0.0255 -0.0863 -0.0717
 5451SOL    HW117794   5.545   5.128   3.099 -1.0736  0.9334 -1.5473
 5451SOL    HW217795   5.418   5.045   3.092 -0.2022 -0.5063 -0.7306
 5452SOL     OW17796   0.626   0.005   5.632 -0.2151  0.3053 -0.3210
 5452SOL    HW117797   0.708   0.018   5.680 -0.1817  0.0912 -0.3213
 5452SOL    HW217798   0.564   0.065   5.674 -0.7643 -1.3650  1.3838
 5453SOL     OW17799   1.476   0.861   7.338 -0.3325 -0.2132  0.3771
 5453SOL    HW117800   1.569   0.878   7.326 -0.5041  0.5103  0.0365
 5453SOL    HW217801   1.472   0.769   7.363  0.4978 -0.1582  0.7400
 5454SOL     OW17802   0.922   2.240   3.042  0.0721 -0.1983 -0.6940
 5454SOL    HW117803   0.929   2.326   3.000 -0.2237  0.3701  0.3957
 5454SOL    HW217804   0.966   2.251   3.127  1.0288 -1.4425 -0.9929
 5455SOL     OW17805   6.286   4.218   1.297  0.7177  0.2433  0.4093
 5455SOL    HW117806   6.344   4.161   1.245 -0.3928 -0.2872 -0.2761
 5455SOL    HW217807   6.205   4.222   1.246 -0.4232 -0.3160  2.1145
 5456SOL     OW17808   3.642   6.104   9.758 -0.2728  0.1207  0.7788
 5456SOL    HW117809   3.657   6.075   9.668 -0.9789 -0.1625  0.7376
 5456SOL    HW217810   3.687   6.039   9.812  1.5328  1.1936  0.6135
 5457SOL     OW17811   5.928   0.508   5.977 -0.0649 -0.1071 -0.6276
 5457SOL    HW117812   6.002   0.465   6.019 -0.8020 -0.1391  0.7078
 5457SOL    HW217813   5.950   0.601   5.978 -0.1192 -0.0978 -0.0636
 5458SOL     OW17814   5.295   2.933   8.257  0.1449  0.2341  0.0428
 5458SOL    HW117815   5.307   2.910   8.165 -2.0703  1.5387 -0.6639
 5458SOL    HW217816   5.254   2.856   8.296  0.0808  0.0739 -0.3393
 5459SOL     OW17817   1.061   3.466   1.125  0.2015  0.1133 -0.0614
 5459SOL    HW117818   1.006   3.388   1.126 -0.3404  0.4749 -0.8454
 5459SOL    HW217819   1.007   3.532   1.082  1.1389  0.5596 -0.5602
 5460SOL     OW17820   7.797   6.530   1.062  0.1570 -0.1371  0.1739
 5460SOL    HW117821   7.768   6.616   1.092  1.6984  0.3174  0.4598
 5460SOL    HW217822   7.886   6.522   1.097  0.2080 -1.6452 -0.2574
 5461SOL     OW17823   2.468   5.838   2.930  0.0567 -0.0730 -0.2395
 5461SOL    HW117824   2.433   5.814   3.016  1.3225 -1.9596 -0.1853
 5461SOL    HW217825   2.441   5.929   2.917  0.8454  0.6790  2.6644
 5462SOL     OW17826   5.440   6.232   1.381  0.1859 -0.6180  0.5392
 5462SOL    HW117827   5.415   6.146   1.346  1.3636 -0.2205 -1.4677
 5462SOL    HW217828   5.381   6.293   1.336  1.4118 -0.1322 -0.4541
 5463SOL     OW17829   5.771   7.470   2.139 -0.4640  0.8310  0.2063
 5463SOL    HW117830   5.742   7.382   2.113 -1.2568  1.3036 -0.5342
 5463SOL    HW217831   5.758   7.524   2.061  1.9549  1.1996 -0.0154
 5464SOL     OW17832   4.084   3.792   7.102 -0.1385  0.4889 -0.0459
 5464SOL    HW117833   4.107   3.853   7.032 -2.2537 -0.2806 -1.5247
 5464SOL    HW217834   4.167   3.755   7.130  0.9381  2.1052 -0.9225
 5465SOL     OW17835   6.295   1.573   8.365 -0.1573 -0.4496  0.6007
 5465SOL    HW117836   6.248   1.526   8.296 -0.4768 -1.3817  1.4239
 5465SOL    HW217837   6.245   1.653   8.379 -0.6587 -0.7358  0.4467
 5466SOL     OW17838   4.778   6.725   3.227  0.4823  0.1773 -0.1570
 5466SOL    HW117839   4.719   6.723   3.152  1.4302 -0.5279 -0.9099
 5466SOL    HW217840   4.866   6.728   3.189  0.9587  1.9953  0.9180
 5467SOL     OW17841   1.030   1.356   4.906  0.1912  0.1356  0.2389
 5467SOL    HW117842   0.951   1.403   4.935 -0.7314 -1.6713  0.7837
 5467SOL    HW217843   1.040   1.284   4.968  0.0306 -1.9283 -1.9559
 5468SOL     OW17844   7.985   5.158   4.536  0.0204  0.1705 -0.4976
 5468SOL    HW117845   8.060   5.125   4.585  0.0637 -0.2407 -0.8357
 5468SOL    HW217846   7.981   5.103   4.458 -0.7784  0.0285 -0.3663
 5469SOL     OW17847   7.686   2.240  10.270  0.0921 -0.3814  0.1260
 5469SOL    HW117848   7.625   2.210  10.338  1.4677 -1.2627  1.0040
 5469SOL    HW217849   7.731   2.160  10.242  0.3130  0.1483 -1.0669
 5470SOL     OW17850   3.612   6.745   1.671 -0.4178 -0.1173  0.0448
 5470SOL    HW117851   3.699   6.710   1.650 -0.4434 -0.1150 -0.0651
 5470SOL    HW217852   3.629   6.830   1.710 -0.4062  0.2429 -0.7195
 5471SOL     OW17853   0.102   7.558   2.081  0.9561  0.2120 -0.2549
 5471SOL    HW117854   0.135   7.497   2.147 -0.7687 -0.4798  0.0183
 5471SOL    HW217855   0.151   7.639   2.098  3.4638 -1.0814 -0.7660
 5472SOL     OW17856   0.913   2.425   3.260 -0.1984  0.2200  0.2636
 5472SOL    HW117857   0.917   2.390   3.349  1.3251 -0.3710 -0.0076
 5472SOL    HW217858   0.974   2.499   3.260 -0.1353  0.1712 -0.3193
 5473SOL     OW17859   1.940   1.992   0.350 -0.4950 -0.3973 -0.3511
 5473SOL    HW117860   2.014   2.052   0.339  0.7701 -1.4880  1.5872
 5473SOL    HW217861   1.890   2.001   0.268  1.7612  0.3908 -1.7563
 5474SOL     OW17862   6.460   1.878   9.741 -0.8427 -0.4878 -0.4685
 5474SOL    HW117863   6.421   1.884   9.829 -1.5461  1.2459 -0.8661
 5474SOL    HW217864   6.388   1.896   9.681 -0.1669 -0.7190 -1.3771
 5475SOL     OW17865   3.112   4.087   1.719 -0.2048  0.2621 -0.6829
 5475SOL    HW117866   3.164   4.028   1.773 -0.0217 -1.0893 -2.2577
 5475SOL    HW217867   3.030   4.098   1.767 -0.5115 -1.8393 -0.6452
 5476SOL     OW17868   2.177   7.383   3.209  0.0001  0.0200  0.4326
 5476SOL    HW117869   2.197   7.382   3.303  0.0316  2.0175  0.4957
 5476SOL    HW217870   2.189   7.475   3.183 -0.8073 -0.3390 -1.3591
 5477SOL     OW17871   3.903   4.772  11.983  0.9789 -0.2050 -0.5700
 5477SOL    HW117872   3.884   4.696  12.039 -2.3487  1.0737  0.2808
 5477SOL    HW217873   3.957   4.829  12.038  0.5813 -0.4602  0.1060
 5478SOL     OW17874   0.627   0.436   8.431  0.1635 -0.2332 -0.6028
 5478SOL    HW117875   0.692   0.374   8.397  0.4448 -0.9603  1.1321
 5478SOL    HW217876   0.674   0.483   8.500 -0.6363  0.5133 -0.5609
 5479SOL     OW17877   5.395   4.393   1.903  0.0603 -0.7598 -0.0340
 5479SOL    HW117878   5.435   4.321   1.854  0.8981 -0.5687  0.3578
 5479SOL    HW217879   5.323   4.353   1.952  1.0724 -1.5045  0.8790
 5480SOL     OW17880   3.982   5.222   3.413  0.3086 -0.3214  0.0153
 5480SOL    HW117881   4.057   5.272   3.381  0.4924 -0.8623 -0.4041
 5480SOL    HW217882   4.019   5.138   3.441  0.1253  0.0461  1.4510
 5481SOL     OW17883   3.130   5.235  11.529  0.1536 -0.8464  0.4241
 5481SOL    HW117884   3.083   5.317  11.518  0.5342 -0.7316 -0.4018
 5481SOL    HW217885   3.201   5.255  11.590  0.0965 -0.6248  0.4154
 5482SOL     OW17886   5.411   4.541   9.498  0.1126 -0.3239  0.0960
 5482SOL    HW117887   5.377   4.546   9.409 -0.1704  4.5492  0.2365
 5482SOL    HW217888   5.505   4.554   9.488  0.1383 -0.2125  0.4688
 5483SOL     OW17889   1.945   1.227   0.030  0.6997  0.0475  0.0136
 5483SOL    HW117890   1.984   1.207  -0.055  1.2717 -0.1144  0.3098
 5483SOL    HW217891   1.904   1.145   0.058 -1.6523  0.7202 -1.2077
 5484SOL     OW17892   1.092   2.541   1.690 -0.2046  0.3188 -0.2042
 5484SOL    HW117893   1.187   2.538   1.703 -0.1662  1.3534 -0.1819
 5484SOL    HW217894   1.062   2.454   1.715  0.6599  0.1890  0.4393
 5485SOL     OW17895   6.729   1.660   8.760 -0.2411 -0.5876  0.4731
 5485SOL    HW117896   6.767   1.618   8.837 -1.0556 -2.2966 -0.0125
 5485SOL    HW217897   6.798   1.718   8.728  1.5990 -2.7487  0.2598
 5486SOL     OW17898   7.811   0.137   9.625  0.0923 -0.2413  0.4912
 5486SOL    HW117899   7.818   0.069   9.692  0.6877 -2.8452 -1.9834
 5486SOL    HW217900   7.750   0.100   9.561 -0.9193  2.3745 -0.1863
 5487SOL     OW17901   2.365   3.698   8.414  0.4534 -0.4151 -0.2898
 5487SOL    HW117902   2.382   3.744   8.496 -0.4021  0.7981 -0.7483
 5487SOL    HW217903   2.375   3.766   8.347  0.3111 -1.1911 -1.1083
 5488SOL     OW17904   5.496   0.055   6.695 -0.4675  0.3364 -0.4927
 5488SOL    HW117905   5.481   0.013   6.610 -0.5367  0.6386 -0.6330
 5488SOL    HW217906   5.408   0.077   6.726 -0.4805 -0.3659 -0.0385
 5489SOL     OW17907   5.658   4.898   0.452 -0.4964 -0.5985  0.5653
 5489SOL    HW117908   5.742   4.934   0.424 -1.1480 -1.3790 -2.8246
 5489SOL    HW217909   5.613   4.971   0.492  1.4611  0.0331  1.7605
 5490SOL     OW17910   4.594   2.217   0.863  0.7654 -0.4882  0.1638
 5490SOL    HW117911   4.669   2.277   0.866  0.3740 -0.0300  1.1913
 5490SOL    HW217912   4.630   2.136   0.828  1.7234 -0.2320  0.5221
 5491SOL     OW17913   0.298   7.794   6.575  0.2881 -0.1313  0.3098
 5491SOL    HW117914   0.362   7.848   6.620  1.6648 -0.5570 -1.0690
 5491SOL    HW217915   0.329   7.704   6.586 -0.1557 -0.3572 -0.2033
 5492SOL     OW17916   0.279   6.115   8.289  0.0974  0.0066  0.0350
 5492SOL    HW117917   0.281   6.206   8.319 -2.4033  0.2662 -0.3220
 5492SOL    HW217918   0.345   6.070   8.341  0.2715  1.7198  1.3574
 5493SOL     OW17919   1.955   0.069   8.886 -0.1029  0.1284  0.2514
 5493SOL    HW117920   2.011   0.014   8.941 -0.5633 -0.9070 -0.2936
 5493SOL    HW217921   1.954   0.154   8.931 -0.6788 -0.7479  1.9800
 5494SOL     OW17922   1.059   7.226   1.486  0.6258  0.0513  0.1947
 5494SOL    HW117923   0.977   7.184   1.516 -0.0437 -0.1485 -1.7893
 5494SOL    HW217924   1.127   7.163   1.508  0.0741 -0.4197  0.5979
 5495SOL     OW17925   2.239   0.361   2.361  0.1604  0.4931 -0.1479
 5495SOL    HW117926   2.188   0.344   2.441  0.6669  2.4982  0.6626
 5495SOL    HW217927   2.179   0.410   2.305  0.3192  0.4682 -0.3396
 5496SOL     OW17928   6.788   7.147   3.387 -0.1476 -0.3857  0.1780
 5496SOL    HW117929   6.834   7.214   3.437 -0.6774 -2.1116  3.1673
 5496SOL    HW217930   6.840   7.068   3.399 -0.1895 -0.8832 -2.2829
 5497SOL     OW17931   7.176   0.463   0.778 -0.4384  0.4864  0.3446
 5497SOL    HW117932   7.221   0.497   0.856  2.0725 -0.3963 -0.6069
 5497SOL    HW217933   7.169   0.369   0.794  0.2134  0.2790 -0.5365
 5498SOL     OW17934   3.206   6.814   8.033  0.1241  0.0951  0.1166
 5498SOL    HW117935   3.269   6.756   7.991  0.9227  1.0871 -0.1025
 5498SOL    HW217936   3.229   6.901   8.001 -0.7399  0.5961  0.8128
 5499SOL     OW17937   3.089   2.580   6.397  0.3726  0.8469  0.0654
 5499SOL    HW117938   3.162   2.524   6.370  0.6320  1.1897  0.0471
 5499SOL    HW217939   3.129   2.643   6.457  0.1217  1.1371 -0.0721
 5500SOL     OW17940   4.883   7.738   2.433 -0.1188  0.1968  0.3454
 5500SOL    HW117941   4.818   7.672   2.458 -0.7328  1.0241  0.9885
 5500SOL    HW217942   4.879   7.803   2.503 -1.9552  2.6677 -1.8406
 5501SOL     OW17943   7.325   0.156  10.971 -0.1019  0.4054 -0.2073
 5501SOL    HW117944   7.414   0.134  10.999 -0.4978 -0.5011  0.3782
 5501SOL    HW217945   7.288   0.203  11.045  0.1348  1.4896 -0.7549
 5502SOL     OW17946   3.215   1.304   6.492 -0.6780  0.2377  0.0494
 5502SOL    HW117947   3.138   1.360   6.500 -1.1542 -0.3142 -0.5039
 5502SOL    HW217948   3.187   1.235   6.431  0.1797 -0.0970  0.0306
 5503SOL     OW17949   0.559   0.841  10.456 -0.1789 -0.4765  0.3106
 5503SOL    HW117950   0.489   0.856  10.392 -1.2611  0.8160  1.7095
 5503SOL    HW217951   0.539   0.756  10.495 -0.5773 -0.4183  0.2326
 5504SOL     OW17952   7.042   4.629   3.525 -0.2718 -0.3047  0.5610
 5504SOL    HW117953   6.980   4.702   3.533 -0.3320 -0.1258 -1.1353
 5504SOL    HW217954   7.025   4.574   3.601 -0.6054  1.1569  1.5859
 5505SOL     OW17955   7.422   0.670   7.142  0.2862 -0.0410  0.0806
 5505SOL    HW117956   7.470   0.650   7.062 -0.7488 -0.1493 -0.5321
 5505SOL    HW217957   7.399   0.762   7.134 -2.2564 -0.6861 -1.1388
 5506SOL     OW17958   2.710   1.430   8.259 -0.3429  0.1438  0.7538
 5506SOL    HW117959   2.802   1.408   8.243  0.2455 -0.6893  4.3406
 5506SOL    HW217960   2.708   1.525   8.263 -0.1201  0.2741 -1.4633
 5507SOL     OW17961   4.503   2.352   3.899  0.5593  0.3198 -0.1129
 5507SOL    HW117962   4.440   2.287   3.868  2.6043 -1.0310 -1.6794
 5507SOL    HW217963   4.459   2.436   3.886 -1.1202 -0.5957 -0.6151
 5508SOL     OW17964   3.113   3.076  12.260 -0.3229  0.5865  0.9000
 5508SOL    HW117965   3.072   3.023  12.328  1.0987  0.9722  2.0954
 5508SOL    HW217966   3.172   3.135  12.307  1.8692 -0.1660 -0.7406
 5509SOL     OW17967   5.638   1.595   5.496  0.8214 -0.1359  0.7952
 5509SOL    HW117968   5.584   1.516   5.495 -0.0397  0.4366 -0.8771
 5509SOL    HW217969   5.616   1.637   5.580  0.7277 -1.2757  1.3617
 5510SOL     OW17970   3.769   0.452   5.888  0.1690 -0.0093 -0.6926
 5510SOL    HW117971   3.814   0.410   5.815  0.6522  0.1859 -0.5099
 5510SOL    HW217972   3.690   0.491   5.849  0.5032  0.2302 -1.1329
 5511SOL     OW17973   4.468   2.054   8.905 -0.1824 -0.2546  0.1736
 5511SOL    HW117974   4.390   2.104   8.930 -0.4815 -0.9171  0.5806
 5511SOL    HW217975   4.482   2.077   8.813  0.5066  1.6630  0.7047
 5512SOL     OW17976   1.236   1.517   3.185  0.2961  0.0117  0.3043
 5512SOL    HW117977   1.271   1.569   3.112 -1.9055 -0.1061 -0.9301
 5512SOL    HW217978   1.290   1.439   3.187  1.6689  0.9283  0.1383
 5513SOL     OW17979   1.505   6.337   7.695 -0.0780 -0.1063 -0.2297
 5513SOL    HW117980   1.483   6.246   7.673  0.5865 -0.6467  1.1846
 5513SOL    HW217981   1.552   6.369   7.618 -0.6452 -0.8342 -0.8966
 5514SOL     OW17982   5.432   0.025   9.352  0.0336  0.4980 -0.0133
 5514SOL    HW117983   5.424   0.059   9.263  0.3337  1.2027  0.2209
 5514SOL    HW217984   5.361   0.068   9.400  0.1042  0.4038  0.1757
 5515SOL     OW17985   7.353   0.713  10.516  0.4604 -0.2024  0.5513
 5515SOL    HW117986   7.281   0.750  10.566  1.0393 -0.3559  1.5175
 5515SOL    HW217987   7.386   0.787  10.463 -1.5083 -0.5346 -1.2916
 5516SOL     OW17988   2.109   6.067   5.311  0.1645 -0.1964  0.6777
 5516SOL    HW117989   2.044   6.137   5.303  1.1378  0.8046  1.2869
 5516SOL    HW217990   2.173   6.085   5.242  0.7705 -0.0779  1.2567
 5517SOL     OW17991   0.724   4.437   0.951  0.0912  0.3643 -0.5539
 5517SOL    HW117992   0.672   4.517   0.946 -0.1423  0.1710 -1.3692
 5517SOL    HW217993   0.672   4.372   0.904 -0.1609 -0.5140  0.8729
 5518SOL     OW17994   4.783   1.326   6.643 -0.4818 -0.3294 -0.3660
 5518SOL    HW117995   4.851   1.370   6.592  0.1626 -0.7861  0.0812
 5518SOL    HW217996   4.728   1.397   6.677 -1.8172 -0.0498 -2.8547
 5519SOL     OW17997   0.314   6.266   4.878 -0.6547  0.7641  0.4814
 5519SOL    HW117998   0.337   6.225   4.794  0.1979 -1.3902  1.6688
 5519SOL    HW217999   0.398   6.294   4.914 -0.4512 -1.7863  2.2314
 5520SOL     OW18000   3.058   1.801   9.597  0.0228  0.2490 -0.3804
 5520SOL    HW118001   3.025   1.774   9.683  0.2304  1.7436  0.2131
 5520SOL    HW218002   3.061   1.721   9.546 -2.2341 -0.3338  0.2867
 5521SOL     OW18003   0.474   1.016   6.130 -0.6007 -0.2334  0.3088
 5521SOL    HW118004   0.478   1.092   6.072 -2.2120 -0.2473  0.1163
 5521SOL    HW218005   0.555   0.968   6.113  0.3414  1.3028  0.2674
 5522SOL     OW18006   7.851   3.823  11.046 -0.2100 -0.4531 -0.8881
 5522SOL    HW118007   7.889   3.758  10.987 -0.0433  0.0192 -1.3053
 5522SOL    HW218008   7.843   3.777  11.129  3.2269 -0.0006 -0.1618
 5523SOL     OW18009   6.422   4.321   3.252 -0.0122  0.5560  0.2748
 5523SOL    HW118010   6.356   4.276   3.200  0.8232  0.0636 -0.3868
 5523SOL    HW218011   6.393   4.310   3.342 -0.7973  0.2990 -0.0042
 5524SOL     OW18012   3.508   6.337  12.205 -0.0122  0.1334  0.1010
 5524SOL    HW118013   3.430   6.312  12.255 -1.0529  2.3584 -0.2690
 5524SOL    HW218014   3.528   6.426  12.234 -0.0367  1.1297 -2.6186
 5525SOL     OW18015   5.167   0.528   8.613 -0.8042 -0.0028 -0.0465
 5525SOL    HW118016   5.150   0.473   8.536  0.9570 -2.0226  0.9043
 5525SOL    HW218017   5.118   0.485   8.683  1.6118 -1.2681  0.9923
 5526SOL     OW18018   1.539   3.012   6.409  0.0071 -0.1105 -0.7817
 5526SOL    HW118019   1.549   2.930   6.361 -0.1720 -0.6444  0.0715
 5526SOL    HW218020   1.445   3.033   6.400 -0.6705 -1.7281  1.6796
 5527SOL     OW18021   3.409   1.744   7.044 -1.1257 -0.0314 -0.1498
 5527SOL    HW118022   3.390   1.658   7.007 -2.4206  0.6440 -1.1636
 5527SOL    HW218023   3.486   1.775   6.995 -0.9885 -0.3868 -0.1591
 5528SOL     OW18024   5.531   7.651  12.113  0.1262 -0.2703  0.0646
 5528SOL    HW118025   5.493   7.647  12.201  1.8779  0.1435  0.9080
 5528SOL    HW218026   5.600   7.584  12.114  1.5106  1.0875 -0.2544
 5529SOL     OW18027   0.383   3.075   9.514  0.2733  0.3172 -0.3306
 5529SOL    HW118028   0.397   3.064   9.609  0.5385 -2.0284 -0.5930
 5529SOL    HW218029   0.437   3.151   9.492  0.5605  0.6521  1.3286
 5530SOL     OW18030   0.289   6.327   9.666  0.7232  0.1169  0.4284
 5530SOL    HW118031   0.323   6.412   9.640  0.8245  0.4601  1.6224
 5530SOL    HW218032   0.221   6.307   9.602  1.0843  0.8338 -0.1864
 5531SOL     OW18033   4.799   0.938   9.783  0.8285 -0.6079  0.1406
 5531SOL    HW118034   4.761   0.905   9.864  0.5265 -1.1413 -0.2115
 5531SOL    HW218035   4.872   0.994   9.811  1.4107 -1.6483  0.7492
 5532SOL     OW18036   7.767   6.770   7.694 -0.2420  0.1437  0.3382
 5532SOL    HW118037   7.758   6.703   7.762 -0.0973 -0.0600  0.1556
 5532SOL    HW218038   7.858   6.762   7.665  0.3486  1.6754  1.6380
 5533SOL     OW18039   0.497   6.945   4.543 -0.0785  0.1671 -0.4954
 5533SOL    HW118040   0.539   6.876   4.595 -3.0400 -3.4469 -2.3044
 5533SOL    HW218041   0.469   7.010   4.607  2.6766 -0.3615  1.3971
 5534SOL     OW18042   3.964   6.680   5.339  0.0155  0.4506  0.4251
 5534SOL    HW118043   4.004   6.593   5.330  1.5399  1.0431  1.1270
 5534SOL    HW218044   3.908   6.673   5.416  0.5885  0.2529  0.8247
 5535SOL     OW18045   3.929   6.048   0.795  0.3173 -0.0766 -0.1114
 5535SOL    HW118046   4.007   6.076   0.843 -0.4738 -0.3396  1.3760
 5535SOL    HW218047   3.862   6.113   0.817 -0.9907 -1.9549  1.8739
 5536SOL     OW18048   0.679   0.603   6.132 -0.4103 -0.0707 -0.0578
 5536SOL    HW118049   0.749   0.551   6.094  0.4850 -0.1183  1.5633
 5536SOL    HW218050   0.694   0.692   6.099 -0.3092 -0.3038 -0.6550
 5537SOL     OW18051   7.126   0.206   9.219  0.5752  0.5631  0.5065
 5537SOL    HW118052   7.064   0.151   9.172 -0.4625  1.6045  0.6266
 5537SOL    HW218053   7.104   0.194   9.312 -0.9958  2.6594  0.4639
 5538SOL     OW18054   3.265   1.559  10.716 -0.0221 -0.1593 -0.0128
 5538SOL    HW118055   3.352   1.589  10.746  0.0301 -0.0334 -0.2895
 5538SOL    HW218056   3.209   1.637  10.725  0.1264  0.0465 -0.7872
 5539SOL     OW18057   6.656   2.316   6.693 -0.0503  0.5925 -0.2453
 5539SOL    HW118058   6.700   2.315   6.777  0.0270  0.1095 -0.2874
 5539SOL    HW218059   6.598   2.240   6.695 -0.2916  0.7657 -0.4983
 5540SOL     OW18060   6.042   5.888   9.832  0.0705  0.1069 -0.4132
 5540SOL    HW118061   6.075   5.957   9.775  2.8101  1.0992  2.1311
 5540SOL    HW218062   6.088   5.809   9.803 -0.3738  0.0776 -1.0610
 5541SOL     OW18063   2.640   0.511   9.611  0.4526  0.0164 -0.1216
 5541SOL    HW118064   2.633   0.421   9.645 -0.2054  0.0868 -0.0524
 5541SOL    HW218065   2.666   0.563   9.686  0.0431  0.0079  0.0260
 5542SOL     OW18066   7.894   1.685  11.002  0.7265 -0.2133  0.5647
 5542SOL    HW118067   7.969   1.641  11.043  0.6767 -0.6908  0.1441
 5542SOL    HW218068   7.908   1.778  11.023  2.3687 -0.0590 -0.9280
 5543SOL     OW18069   4.147   4.743   3.164  0.5246 -0.7766 -0.1799
 5543SOL    HW118070   4.154   4.720   3.072 -0.6017  1.3318 -0.8659
 5543SOL    HW218071   4.089   4.677   3.202  0.5296 -1.3214 -1.1045
 5544SOL     OW18072   7.746   7.832   4.840 -0.1685  0.6577  0.2924
 5544SOL    HW118073   7.722   7.751   4.887  2.2356 -0.5247 -0.3528
 5544SOL    HW218074   7.753   7.805   4.748 -1.3559  2.1288 -0.2646
 5545SOL     OW18075   4.394   1.127   4.573  0.1566 -0.7422 -0.3802
 5545SOL    HW118076   4.468   1.080   4.610 -1.0047 -1.6723  0.8461
 5545SOL    HW218077   4.353   1.170   4.648 -2.9888 -3.6761 -0.1651
 5546SOL     OW18078   5.407   5.733  10.429 -0.3119  0.0733 -0.2544
 5546SOL    HW118079   5.461   5.674  10.481  1.0092 -0.0737 -1.7191
 5546SOL    HW218080   5.467   5.801  10.399 -0.7388 -0.4881 -2.5493
 5547SOL     OW18081   6.740   2.633   0.385  0.3191  0.2719 -0.0840
 5547SOL    HW118082   6.750   2.568   0.455  0.8792  0.6229  0.1736
 5547SOL    HW218083   6.830   2.659   0.364  0.3359 -1.2391 -2.3069
 5548SOL     OW18084   3.997   3.979   7.766 -0.0573 -0.4890 -0.6747
 5548SOL    HW118085   4.091   3.965   7.753  0.2548  0.9287 -0.1490
 5548SOL    HW218086   3.982   3.964   7.859 -0.0570  0.7359 -0.4665
 5549SOL     OW18087   6.733   4.787   9.412 -0.4662  0.3697 -0.2889
 5549SOL    HW118088   6.757   4.796   9.504  0.2113 -0.2454 -0.3977
 5549SOL    HW218089   6.806   4.827   9.364 -0.2679 -0.3455 -0.5894
 5550SOL     OW18090   7.747   7.352   2.461 -0.1840  0.3067  0.2481
 5550SOL    HW118091   7.783   7.281   2.515  1.1511  1.8837  1.5218
 5550SOL    HW218092   7.653   7.353   2.483  0.1992  0.4629  2.1009
 5551SOL     OW18093   7.287   2.957   1.194  0.2667  0.6049 -0.1711
 5551SOL    HW118094   7.255   2.879   1.239 -0.5664  0.9419 -0.1561
 5551SOL    HW218095   7.336   2.924   1.119  0.5248  0.0640  0.2315
 5552SOL     OW18096   6.621   4.229   4.887 -0.1653  0.7354  0.0138
 5552SOL    HW118097   6.705   4.205   4.848 -0.4838  0.2578 -0.3989
 5552SOL    HW218098   6.581   4.146   4.911 -1.5328  0.7399 -1.9594
 5553SOL     OW18099   0.767   0.932   6.290  0.0330  0.0365  0.6270
 5553SOL    HW118100   0.764   1.010   6.345 -2.4500 -0.9054  1.9557
 5553SOL    HW218101   0.834   0.877   6.330 -0.9874 -0.1691  2.1450
 5554SOL     OW18102   3.532   6.396   3.759 -0.0152 -0.3012  0.1185
 5554SOL    HW118103   3.475   6.424   3.830  0.7466 -1.2624  1.1463
 5554SOL    HW218104   3.525   6.300   3.759  0.6542 -0.3606 -0.5296
 5555SOL     OW18105   2.637   0.359   1.230 -0.2767 -0.1438  0.2461
 5555SOL    HW118106   2.582   0.313   1.167  0.5265  0.5926 -1.0278
 5555SOL    HW218107   2.726   0.326   1.212  0.0845  0.7455  0.3568
 5556SOL     OW18108   0.857   1.244   3.822  0.4776  0.1969 -0.0895
 5556SOL    HW118109   0.807   1.289   3.754  2.8171  3.7136  0.2747
 5556SOL    HW218110   0.941   1.223   3.781  0.3849 -1.5872  0.5468
 5557SOL     OW18111   7.023   3.482   3.657  0.7868  0.2137 -0.6820
 5557SOL    HW118112   7.050   3.390   3.653  0.7311  0.2304 -2.1981
 5557SOL    HW218113   7.041   3.516   3.569 -1.0099  1.1317 -0.7448
 5558SOL     OW18114   7.932   4.530   8.537 -0.0724 -0.0218 -0.6494
 5558SOL    HW118115   8.002   4.505   8.598  0.5763 -0.0214 -1.3803
 5558SOL    HW218116   7.851   4.515   8.586  0.4266 -0.3579  0.0890
 5559SOL     OW18117   5.035   4.423   8.690 -1.1324 -0.0735 -0.4684
 5559SOL    HW118118   4.998   4.355   8.746  0.7587 -0.9004 -0.1679
 5559SOL    HW218119   4.987   4.503   8.714  0.3060 -0.1220  3.1725
 5560SOL     OW18120   2.624   4.457   8.169 -0.3958  0.1280  0.4941
 5560SOL    HW118121   2.552   4.515   8.143  1.4481  1.8286 -1.2601
 5560SOL    HW218122   2.602   4.429   8.257 -2.5612  1.6269  0.5053
 5561SOL     OW18123   4.611   5.526  10.330  0.1634 -0.5982  0.2669
 5561SOL    HW118124   4.578   5.438  10.349 -1.2449 -0.0157  0.6864
 5561SOL    HW218125   4.691   5.512  10.279  0.0278 -2.1122  0.4296
 5562SOL     OW18126   7.425   6.444   7.272  0.4965  0.1156  0.3285
 5562SOL    HW118127   7.441   6.358   7.234  0.5617  0.6354 -0.8640
 5562SOL    HW218128   7.350   6.479   7.223  2.1022  1.8034 -1.0504
 5563SOL     OW18129   4.856   6.385   7.460  0.2098 -0.5342 -0.1615
 5563SOL    HW118130   4.862   6.474   7.424  0.4194 -0.1009  0.8939
 5563SOL    HW218131   4.795   6.340   7.402 -0.5145  0.5382 -0.2698
 5564SOL     OW18132   5.083   5.986   6.570 -0.1561  0.6491  0.0279
 5564SOL    HW118133   5.024   5.936   6.514  0.4125 -1.1399  0.9396
 5564SOL    HW218134   5.032   6.007   6.648 -0.3911  1.5310 -0.3485
 5565SOL     OW18135   6.636   2.806   6.328 -0.6051  0.2626 -0.1939
 5565SOL    HW118136   6.653   2.818   6.422 -1.1994  0.0886 -0.0594
 5565SOL    HW218137   6.717   2.768   6.294  0.5249  2.5303 -0.2281
 5566SOL     OW18138   4.423   7.766  10.998 -0.8089  0.0342  0.7520
 5566SOL    HW118139   4.429   7.859  11.020  1.3333  0.2244 -0.3552
 5566SOL    HW218140   4.346   7.735  11.046 -0.4553  1.9378  2.7132
 5567SOL     OW18141   4.767   2.890   3.705  0.0730 -0.8667  0.1076
 5567SOL    HW118142   4.752   2.796   3.707  0.3227 -0.9167 -0.3325
 5567SOL    HW218143   4.747   2.916   3.615  0.8219 -0.6407 -0.0065
 5568SOL     OW18144   2.074   7.787   6.582 -0.7442 -0.0880 -0.2157
 5568SOL    HW118145   2.120   7.772   6.499  1.7263 -1.5371  1.2718
 5568SOL    HW218146   2.033   7.703   6.601  1.1144 -0.7154  1.3190
 5569SOL     OW18147   2.864   4.068  11.941 -0.4049  0.0017 -0.4393
 5569SOL    HW118148   2.920   3.992  11.925  0.0780  0.0256  1.0456
 5569SOL    HW218149   2.915   4.142  11.909 -0.1624 -0.1179 -0.3299
 5570SOL     OW18150   4.920   3.001   2.300 -0.4181  0.0725  0.0646
 5570SOL    HW118151   4.929   2.913   2.262 -0.7532  0.1158 -0.1188
 5570SOL    HW218152   5.002   3.045   2.278  0.6928 -0.8875  1.9984
 5571SOL     OW18153   4.589   5.816  10.036  0.1135 -0.2193 -0.4148
 5571SOL    HW118154   4.581   5.906  10.068  1.8030 -0.1242 -0.1377
 5571SOL    HW218155   4.683   5.804  10.024 -0.0179 -2.1816  0.2258
 5572SOL     OW18156   2.846   1.487   8.998  0.7242 -0.2983 -0.1855
 5572SOL    HW118157   2.766   1.441   8.974  0.9165 -1.4493  1.2570
 5572SOL    HW218158   2.872   1.533   8.918 -2.0265  1.1686 -0.3604
 5573SOL     OW18159   1.669   7.272  11.035 -0.0712 -0.1954  0.2411
 5573SOL    HW118160   1.697   7.363  11.040 -1.5947  0.4539 -1.7507
 5573SOL    HW218161   1.701   7.241  10.950 -2.4019 -0.4167 -0.6231
 5574SOL     OW18162   0.621   5.553   6.434 -0.4870 -0.7750 -0.4310
 5574SOL    HW118163   0.668   5.471   6.453 -2.5458 -1.5972  1.7004
 5574SOL    HW218164   0.593   5.544   6.343 -2.3350 -3.4340  0.2748
 5575SOL     OW18165   5.755   6.687   1.950  0.0753  0.1055  0.0271
 5575SOL    HW118166   5.814   6.707   1.877  0.5406 -0.8225  0.1309
 5575SOL    HW218167   5.670   6.721   1.922  0.4118  0.4259 -0.6288
 5576SOL     OW18168   4.656   1.308   5.192  0.3233 -0.0671  0.0894
 5576SOL    HW118169   4.577   1.298   5.140  0.2715  0.6007  0.0424
 5576SOL    HW218170   4.629   1.360   5.268  0.3582 -1.1678  0.8823
 5577SOL     OW18171   4.263   5.446   9.663 -0.0170  0.4389 -0.5713
 5577SOL    HW118172   4.325   5.492   9.606  0.7956  0.5332  0.3779
 5577SOL    HW218173   4.301   5.359   9.675  0.4323  0.7986  0.7722
 5578SOL     OW18174   4.887   2.566   9.212  0.3373  0.0359 -0.2744
 5578SOL    HW118175   4.828   2.541   9.140 -1.1226 -0.1430  0.9285
 5578SOL    HW218176   4.929   2.484   9.237  0.0551 -0.0985 -0.2357
 5579SOL     OW18177   7.972   1.776   6.869 -0.1436 -0.1530 -0.8146
 5579SOL    HW118178   7.952   1.855   6.919  0.8298  0.0581 -0.7351
 5579SOL    HW218179   8.066   1.784   6.849 -0.0153 -1.3310 -0.7342
 5580SOL     OW18180   4.230   0.962  12.243 -0.6563 -0.1631  0.0149
 5580SOL    HW118181   4.170   0.994  12.176 -2.4301 -0.8746  1.2004
 5580SOL    HW218182   4.264   0.880  12.207 -1.8276 -0.6935  0.0654
 5581SOL     OW18183   0.654   2.135   9.438  0.4394  0.6499  0.1043
 5581SOL    HW118184   0.599   2.085   9.377 -2.0614  1.5930  1.4386
 5581SOL    HW218185   0.739   2.093   9.434 -0.2764 -0.7331 -2.3085
 5582SOL     OW18186   1.697   5.196   6.839  0.3491 -0.4384 -0.2620
 5582SOL    HW118187   1.648   5.141   6.778  0.8935 -0.5776 -0.5791
 5582SOL    HW218188   1.632   5.226   6.902 -0.5673  0.9821 -1.7870
 5583SOL     OW18189   5.429   0.501   1.910 -0.0896  0.3567 -0.3997
 5583SOL    HW118190   5.455   0.515   1.819  0.1284  1.6905 -0.1605
 5583SOL    HW218191   5.445   0.586   1.952  0.4242 -0.4193  1.0303
 5584SOL     OW18192   1.692   5.765   0.458 -0.6095 -0.0834 -0.6073
 5584SOL    HW118193   1.672   5.684   0.505 -0.6584  0.6452  0.6694
 5584SOL    HW218194   1.616   5.821   0.473 -0.6813  0.1250 -1.6822
 5585SOL     OW18195   7.598   4.278   8.026 -0.0788 -0.0662  0.7916
 5585SOL    HW118196   7.576   4.296   8.117 -0.6153  2.8580  0.1749
 5585SOL    HW218197   7.694   4.277   8.024  0.0343  2.7940  0.9974
 5586SOL     OW18198   3.335   1.936   7.913  0.0797 -0.2041 -0.0725
 5586SOL    HW118199   3.369   1.869   7.971 -1.1901 -0.3819  0.5117
 5586SOL    HW218200   3.379   1.921   7.829  0.4303 -1.2258  0.2887
 5587SOL     OW18201   1.169   7.648   7.877  0.2298  0.4910  0.6926
 5587SOL    HW118202   1.215   7.632   7.960 -2.5064  0.0079  2.2384
 5587SOL    HW218203   1.133   7.736   7.887  0.6591  0.8019 -0.4071
 5588SOL     OW18204   2.900   3.963  12.270  0.1537 -0.0101 -0.2990
 5588SOL    HW118205   2.928   3.874  12.247 -0.0576 -0.5742  1.4922
 5588SOL    HW218206   2.888   4.007  12.186  0.2497 -1.6787 -1.2171
 5589SOL     OW18207   1.144   2.583   1.156  0.1692 -0.3127 -0.5030
 5589SOL    HW118208   1.111   2.493   1.155 -0.6638 -0.0333  0.2310
 5589SOL    HW218209   1.184   2.592   1.243  0.2695  0.0181 -0.5829
 5590SOL     OW18210   6.146   4.676   2.704 -0.1638 -0.0829 -0.5350
 5590SOL    HW118211   6.174   4.622   2.630 -0.4511  0.8713 -1.3667
 5590SOL    HW218212   6.228   4.699   2.748 -0.1224 -2.3808  0.7352
 5591SOL     OW18213   5.452   5.180   1.467  0.0768  0.1527  0.2171
 5591SOL    HW118214   5.459   5.111   1.402 -0.4216  1.0174 -0.7820
 5591SOL    HW218215   5.377   5.155   1.521  0.5066 -0.5774  0.4941
 5592SOL     OW18216   7.846   7.427   6.348  0.4626 -0.3300 -0.0439
 5592SOL    HW118217   7.819   7.517   6.329  3.2624  0.6141 -0.0717
 5592SOL    HW218218   7.809   7.409   6.435  0.2312  1.0303  0.1690
 5593SOL     OW18219   2.501   1.692   8.867 -0.4824  0.4008 -0.0866
 5593SOL    HW118220   2.457   1.741   8.936 -2.3494  0.3302 -1.1417
 5593SOL    HW218221   2.586   1.735   8.857 -1.0558  1.7995  0.7400
 5594SOL     OW18222   6.675   1.153   8.681 -0.1845 -0.2493  0.2431
 5594SOL    HW118223   6.646   1.243   8.663  0.8727 -0.3928 -2.7840
 5594SOL    HW218224   6.740   1.162   8.751  1.0880  1.6071 -1.0981
 5595SOL     OW18225   6.573   1.050   0.201  0.0253 -0.0470 -0.3631
 5595SOL    HW118226   6.654   1.001   0.182 -1.1592 -2.6132  0.7286
 5595SOL    HW218227   6.537   1.071   0.115 -0.4064 -2.9813 -1.0182
 5596SOL     OW18228   1.900   2.704   9.863 -0.1008  0.2748 -0.6804
 5596SOL    HW118229   1.982   2.736   9.826 -0.2625 -0.3566 -1.6123
 5596SOL    HW218230   1.844   2.689   9.787 -0.6592 -0.4471 -0.1376
 5597SOL     OW18231   7.472   6.663   4.921  1.0800 -0.4490  0.2398
 5597SOL    HW118232   7.403   6.671   4.855  2.3996  1.2102 -1.0229
 5597SOL    HW218233   7.425   6.643   5.002 -0.8714  0.4069 -0.6152
 5598SOL     OW18234   0.425   7.391  12.387  0.2072 -0.2693  0.5578
 5598SOL    HW118235   0.435   7.298  12.368  1.7592  0.0748 -0.5449
 5598SOL    HW218236   0.334   7.400  12.414 -0.0017 -2.0861  0.5957
 5599SOL     OW18237   5.137   4.734  10.187 -0.1700  0.0955 -0.0156
 5599SOL    HW118238   5.136   4.829  10.200  2.0838  0.4436 -1.8285
 5599SOL    HW218239   5.155   4.722  10.094 -0.3639 -2.1388  0.1741
 5600SOL     OW18240   6.839   6.592   0.897  0.2537  0.0255  0.1188
 5600SOL    HW118241   6.844   6.595   0.992 -0.9707 -1.4991  0.2634
 5600SOL    HW218242   6.839   6.684   0.871 -0.5311  0.5028  1.6648
 5601SOL     OW18243   0.405   5.322   4.322  0.0685 -0.5013 -0.1428
 5601SOL    HW118244   0.346   5.386   4.360  0.4791  0.2588 -0.7534
 5601SOL    HW218245   0.476   5.374   4.284  0.9377 -1.3720  0.2456
 5602SOL     OW18246   3.987   7.038   9.893 -0.3716 -0.0578  0.3431
 5602SOL    HW118247   3.951   7.069   9.975  1.2577  1.8920  0.4075
 5602SOL    HW218248   4.077   7.012   9.915 -0.4884 -1.2460 -0.4858
 5603SOL     OW18249   1.995   6.548   7.993  0.7905 -0.5033 -0.4195
 5603SOL    HW118250   1.987   6.473   8.052  1.4723  0.2637  0.6909
 5603SOL    HW218251   1.913   6.597   8.005  0.2787 -1.1201 -1.2585
 5604SOL     OW18252   0.899   5.943   8.652  0.1932  0.0452 -0.5916
 5604SOL    HW118253   0.946   5.920   8.732  0.5897 -1.9300 -1.3284
 5604SOL    HW218254   0.969   5.955   8.586 -0.2251 -1.6676 -1.3987
 5605SOL     OW18255   1.144   6.339  11.827  0.0781  0.1457 -0.2916
 5605SOL    HW118256   1.129   6.264  11.770 -0.7240  0.0245  0.0697
 5605SOL    HW218257   1.204   6.305  11.894 -2.1814 -0.9439  1.3094
 5606SOL     OW18258   7.160   5.745   9.358 -0.1536  0.3406  0.2411
 5606SOL    HW118259   7.101   5.714   9.427  1.0643  0.8228  1.5646
 5606SOL    HW218260   7.131   5.699   9.279 -1.7147 -0.0945  1.0222
 5607SOL     OW18261   2.552   4.045   8.719 -0.5334 -0.0382  0.0682
 5607SOL    HW118262   2.619   4.112   8.709 -2.0846  1.5109 -0.6382
 5607SOL    HW218263   2.597   3.971   8.758  1.6543  0.7670 -0.7830
 5608SOL     OW18264   2.453   5.575   2.591  0.2594  0.4102  0.2890
 5608SOL    HW118265   2.436   5.488   2.553 -0.8807  1.6474 -2.2757
 5608SOL    HW218266   2.543   5.569   2.624  0.5571 -1.4723 -0.7099
 5609SOL     OW18267   3.096   3.081   6.668 -0.1330 -0.0640 -0.0585
 5609SOL    HW118268   3.123   2.998   6.707 -0.3665  0.2538  0.7860
 5609SOL    HW218269   3.154   3.146   6.708  0.5703  0.1003 -1.2827
 5610SOL     OW18270   2.649   2.365   6.967  0.1077  0.0887 -0.4157
 5610SOL    HW118271   2.703   2.353   6.889 -0.7405  0.8440 -1.1444
 5610SOL    HW218272   2.682   2.446   7.007  1.4771 -1.0325  0.8316
 5611SOL     OW18273   4.832   5.420   8.428 -0.5653  0.2561 -0.0473
 5611SOL    HW118274   4.801   5.337   8.391 -2.2697  0.6806  0.3497
 5611SOL    HW218275   4.885   5.459   8.358 -3.9580  1.2108 -2.3186
 5612SOL     OW18276   1.091   5.345   3.210  0.0082 -0.0210 -0.3142
 5612SOL    HW118277   1.129   5.312   3.130  0.8572  0.3740 -0.0824
 5612SOL    HW218278   1.045   5.270   3.248  1.2001 -0.7052 -0.2058
 5613SOL     OW18279   3.296   1.657   9.563  0.3463  0.1541  0.5282
 5613SOL    HW118280   3.389   1.670   9.544  0.0249  0.5541 -0.9093
 5613SOL    HW218281   3.257   1.744   9.549 -0.3440 -0.1713  0.3983
 5614SOL     OW18282   3.629   7.451   7.643 -0.7375 -0.1734 -0.1483
 5614SOL    HW118283   3.597   7.447   7.553 -0.5703 -2.8286 -0.1538
 5614SOL    HW218284   3.708   7.398   7.643 -1.5434 -1.4905  1.8599
 5615SOL     OW18285   0.630   3.599   8.246 -0.3264 -0.0470 -0.1332
 5615SOL    HW118286   0.536   3.608   8.238 -0.2904  0.2039 -0.2771
 5615SOL    HW218287   0.660   3.579   8.157 -0.4387 -1.9451  0.2126
 5616SOL     OW18288   0.254   1.898   3.629 -0.3975 -0.5797 -0.3848
 5616SOL    HW118289   0.281   1.914   3.719  1.1317 -0.5800 -0.8251
 5616SOL    HW218290   0.230   1.984   3.596 -0.9189 -0.5727 -0.0002
 5617SOL     OW18291   2.455   7.938   1.529 -0.0003 -0.3844  0.1803
 5617SOL    HW118292   2.462   7.988   1.447 -1.8340 -0.6506 -0.1807
 5617SOL    HW218293   2.449   7.847   1.500  1.0522 -0.6497  0.7307
 5618SOL     OW18294   2.894   7.681   1.731 -0.5057  0.2021  0.2938
 5618SOL    HW118295   2.889   7.645   1.820  0.5387 -1.1276 -0.1351
 5618SOL    HW218296   2.986   7.670   1.707 -1.0674 -1.0157 -1.5292
 5619SOL     OW18297   4.046   0.817  12.387  0.3057  0.3587 -0.1555
 5619SOL    HW118298   4.110   0.881  12.357 -0.8001  0.9049 -1.4291
 5619SOL    HW218299   4.007   0.782  12.307 -0.6086 -0.3437  0.5728
 5620SOL     OW18300   0.239   6.169   6.329  0.0881  0.1172  0.5186
 5620SOL    HW118301   0.273   6.190   6.242  0.6058 -0.6036  0.5362
 5620SOL    HW218302   0.310   6.193   6.388 -0.0679  0.1305  0.7002
 5621SOL     OW18303   0.636   1.458   1.450 -0.1322  0.6363  0.2414
 5621SOL    HW118304   0.688   1.378   1.464 -1.4852 -0.3730 -0.2933
 5621SOL    HW218305   0.577   1.461   1.526 -1.4885 -0.0259 -0.7536
 5622SOL     OW18306   0.194   2.340   1.466  0.5543 -0.3133  0.3179
 5622SOL    HW118307   0.129   2.338   1.395  0.2391 -1.0609  0.6110
 5622SOL    HW218308   0.173   2.263   1.519  0.3180  0.6105  1.6358
 5623SOL     OW18309   6.958   6.702   6.216  0.0862  0.1521  0.2245
 5623SOL    HW118310   6.978   6.683   6.124 -1.4957 -1.4594  0.1688
 5623SOL    HW218311   6.897   6.776   6.212 -0.9187 -0.6712 -0.1268
 5624SOL     OW18312   1.926   2.507   4.314 -0.4087  0.9284  0.1316
 5624SOL    HW118313   1.913   2.598   4.288  1.0783  1.0734 -0.2061
 5624SOL    HW218314   2.006   2.481   4.270 -0.3221 -0.2649  0.9500
 5625SOL     OW18315   5.303   5.460   2.361 -0.3383 -0.2522  0.5177
 5625SOL    HW118316   5.265   5.403   2.427  0.2021  0.8727  1.8378
 5625SOL    HW218317   5.244   5.535   2.356 -0.6929 -0.5894 -0.7292
 5626SOL     OW18318   4.575   5.923   8.958  0.1977 -0.3245  0.3876
 5626SOL    HW118319   4.565   5.828   8.967 -1.4103 -0.1718  0.6166
 5626SOL    HW218320   4.609   5.936   8.869 -0.8303 -1.0846 -0.1420
 5627SOL     OW18321   1.842   3.763   1.908  0.2341 -0.2802 -0.0669
 5627SOL    HW118322   1.881   3.747   1.822 -0.2232  1.4587 -0.6405
 5627SOL    HW218323   1.770   3.700   1.914 -0.6474  0.5066 -1.6191
 5628SOL     OW18324   7.634   6.227   7.701  0.1541  0.1190 -0.2600
 5628SOL    HW118325   7.582   6.305   7.681  1.7383  1.2377 -0.1578
 5628SOL    HW218326   7.720   6.261   7.726  1.1402 -1.7001 -1.0051
 5629SOL     OW18327   5.449   0.075   7.092 -0.2653 -0.2280  0.0848
 5629SOL    HW118328   5.530   0.028   7.111  0.8685  1.2066 -0.9812
 5629SOL    HW218329   5.402   0.020   7.029 -0.5509 -1.4580  1.3249
 5630SOL     OW18330   5.662   6.415  11.838  0.4525  0.1023 -0.7084
 5630SOL    HW118331   5.617   6.355  11.778  1.5181 -1.3059 -0.1591
 5630SOL    HW218332   5.595   6.441  11.900 -0.5027  1.0387 -2.0726
 5631SOL     OW18333   7.109   7.016   8.496  0.0689 -0.6819 -0.0567
 5631SOL    HW118334   7.075   6.964   8.569 -0.5087 -0.7981 -0.4055
 5631SOL    HW218335   7.081   7.106   8.515 -2.3873 -1.0660 -1.4223
 5632SOL     OW18336   2.737   3.087   7.577  0.4469  0.1999 -0.0361
 5632SOL    HW118337   2.675   3.119   7.643 -0.6646  1.5418 -1.6287
 5632SOL    HW218338   2.775   3.009   7.615 -3.6082 -1.8781  0.3516
 5633SOL     OW18339   1.249   6.813   8.975 -0.3606 -0.0111 -0.3820
 5633SOL    HW118340   1.172   6.825   8.919 -1.9652  0.5737  1.8064
 5633SOL    HW218341   1.311   6.880   8.946 -0.5596 -0.5959 -2.2947
 5634SOL     OW18342   0.732   0.046  10.422  0.1859  0.2914 -0.6787
 5634SOL    HW118343   0.687  -0.011  10.359 -0.8202  0.5688 -0.2332
 5634SOL    HW218344   0.769  -0.015  10.487 -0.9958  0.1250 -0.1310
 5635SOL     OW18345   4.066   2.305   8.254  0.2308  0.1371 -0.1970
 5635SOL    HW118346   3.979   2.341   8.272 -0.7414 -2.3021  0.4427
 5635SOL    HW218347   4.068   2.292   8.159 -0.5599 -0.7411 -0.1141
 5636SOL     OW18348   3.019   0.648  11.872  0.7541 -0.3531  0.2361
 5636SOL    HW118349   3.037   0.589  11.946  0.1892 -0.7463  0.0699
 5636SOL    HW218350   3.026   0.592  11.795  1.5080  0.0942 -0.0205
 5637SOL     OW18351   0.195   4.667   6.187 -0.4823 -0.3363 -0.0108
 5637SOL    HW118352   0.117   4.650   6.239 -0.0468 -0.0808  0.7524
 5637SOL    HW218353   0.249   4.588   6.197 -1.4413 -1.3367 -2.1002
 5638SOL     OW18354   6.979   5.774  10.845  0.3324  0.5231  0.1845
 5638SOL    HW118355   6.931   5.842  10.891 -0.0062 -0.0613  0.7144
 5638SOL    HW218356   6.922   5.697  10.850  0.6742  0.2178 -0.4644
 5639SOL     OW18357   3.534   2.561  10.769 -0.0165 -0.8849 -0.8556
 5639SOL    HW118358   3.461   2.581  10.711 -0.1070  1.9584  0.0695
 5639SOL    HW218359   3.612   2.583  10.717  0.0594 -1.3440 -0.9389
 5640SOL     OW18360   4.384   6.469   6.339 -0.4087  0.5031  0.2959
 5640SOL    HW118361   4.418   6.476   6.428 -1.8794 -1.1371  1.0449
 5640SOL    HW218362   4.296   6.505   6.344 -1.0647 -0.9460 -0.0862
 5641SOL     OW18363   2.421   4.117   2.047  0.0077 -0.2259  0.5892
 5641SOL    HW118364   2.387   4.043   2.096 -1.0402  0.8393  1.5373
 5641SOL    HW218365   2.484   4.079   1.986 -1.8930 -2.1291 -0.2900
 5642SOL     OW18366   1.942   1.303   6.464 -0.1440  0.1894 -0.4278
 5642SOL    HW118367   2.022   1.275   6.418 -0.8017  0.8839 -2.0895
 5642SOL    HW218368   1.877   1.312   6.394 -1.2697  1.0883  0.6974
 5643SOL     OW18369   7.902   5.610   8.048  0.1226  0.2672  0.3668
 5643SOL    HW118370   7.897   5.532   8.104 -2.7302  0.9385  1.2158
 5643SOL    HW218371   7.876   5.682   8.105  2.8652  1.9662 -0.3511
 5644SOL     OW18372   4.209   1.572   0.963 -0.5186  0.4416  0.1379
 5644SOL    HW118373   4.140   1.511   0.935 -0.8358  0.9851 -0.3100
 5644SOL    HW218374   4.166   1.658   0.959  0.0448  0.7325  0.3489
 5645SOL     OW18375   7.432   5.088   2.355  0.1370  0.2506  0.1606
 5645SOL    HW118376   7.491   5.015   2.336  0.7523  1.1222 -1.4942
 5645SOL    HW218377   7.375   5.055   2.425  1.4821 -1.2047  0.6389
 5646SOL     OW18378   6.152   7.265  11.597  0.3458  0.1809 -0.1490
 5646SOL    HW118379   6.194   7.188  11.557  0.2012 -0.2133  0.4452
 5646SOL    HW218380   6.179   7.338  11.541 -0.6554 -0.4804 -1.5533
 5647SOL     OW18381   0.721   3.953   7.946 -0.5872  0.0180  0.2199
 5647SOL    HW118382   0.681   3.973   8.031 -1.3272 -0.0079 -0.1130
 5647SOL    HW218383   0.814   3.942   7.965 -0.6100  0.9012  0.8747
 5648SOL     OW18384   2.868   1.603   9.412 -0.5280 -0.1098 -0.2472
 5648SOL    HW118385   2.903   1.526   9.368 -0.7184 -0.9642  1.0634
 5648SOL    HW218386   2.904   1.599   9.501  0.3651  1.9133 -0.4423
 5649SOL     OW18387   1.232   4.972   7.674  0.1211 -0.1711  0.1308
 5649SOL    HW118388   1.197   5.059   7.693 -0.8998 -0.7503  0.9991
 5649SOL    HW218389   1.170   4.935   7.611  1.5972  0.4144 -1.7787
 5650SOL     OW18390   3.294   4.597   0.315  0.1345 -0.0369 -0.6716
 5650SOL    HW118391   3.360   4.616   0.248  0.9513 -2.0762 -0.5297
 5650SOL    HW218392   3.310   4.661   0.383 -1.1703  2.5636 -2.6462
 5651SOL     OW18393   4.138   6.822  11.535 -0.3064  0.3718  0.1343
 5651SOL    HW118394   4.097   6.781  11.458 -0.9844 -1.2913  1.3303
 5651SOL    HW218395   4.195   6.754  11.571 -1.9966  0.1341  2.5929
 5652SOL     OW18396   5.102   0.377  11.439  0.0166 -0.0430 -0.2402
 5652SOL    HW118397   5.196   0.386  11.449 -0.0708  2.2012 -0.7395
 5652SOL    HW218398   5.089   0.370  11.344 -0.2958 -1.0296 -0.1342
 5653SOL     OW18399   6.275   7.470   0.486  0.7271  0.2602  0.5011
 5653SOL    HW118400   6.349   7.493   0.430  1.6877 -0.6381  1.3597
 5653SOL    HW218401   6.292   7.380   0.512 -0.0092  0.4605  1.7458
 5654SOL     OW18402   7.019   5.149   6.886  0.3964  0.1935  0.2308
 5654SOL    HW118403   7.077   5.158   6.962  1.1421  1.7555 -0.4613
 5654SOL    HW218404   6.948   5.211   6.903  0.7024  0.7425 -0.4426
 5655SOL     OW18405   3.903   6.714   6.186  0.6407 -0.2666  0.0233
 5655SOL    HW118406   3.839   6.696   6.254  1.0412  0.3881  0.5812
 5655SOL    HW218407   3.956   6.785   6.221  0.6603  0.2901 -1.1001
 5656SOL     OW18408   1.752   5.867   6.876  0.1421 -0.3631 -0.3984
 5656SOL    HW118409   1.743   5.906   6.789  0.5091  0.7079  0.0238
 5656SOL    HW218410   1.844   5.881   6.899  0.3612 -1.7579 -0.3429
 5657SOL     OW18411   2.815   5.885  12.239  0.1943 -0.3114  0.4097
 5657SOL    HW118412   2.881   5.929  12.186 -0.7869 -0.7086 -1.1855
 5657SOL    HW218413   2.811   5.796  12.204 -1.2985 -0.2452  0.3569
 5658SOL     OW18414   6.071   3.638   0.857  0.0363 -0.1489 -0.2469
 5658SOL    HW118415   6.008   3.568   0.867  0.1475 -0.3741 -1.0678
 5658SOL    HW218416   6.026   3.716   0.890 -0.1181 -0.5822  0.5800
 5659SOL     OW18417   5.831   1.135   6.888 -0.0549  0.3206  0.1008
 5659SOL    HW118418   5.782   1.167   6.812 -1.0777 -1.8076 -0.2095
 5659SOL    HW218419   5.765   1.093   6.943  1.1350 -1.0986  0.5157
 5660SOL     OW18420   7.180   6.197   9.507  0.0060 -0.7569 -0.6983
 5660SOL    HW118421   7.198   6.139   9.433  0.0911 -2.1332  0.3423
 5660SOL    HW218422   7.228   6.158   9.580  1.9227  1.9099 -0.3885
 5661SOL     OW18423   0.754   3.074   3.357 -0.0731 -0.0376  0.0218
 5661SOL    HW118424   0.809   3.060   3.435  0.5050 -0.7036 -0.4994
 5661SOL    HW218425   0.665   3.074   3.391  0.1672 -0.4335  0.6743
 5662SOL     OW18426   1.911   4.370   6.065 -0.0196  0.9850 -0.2529
 5662SOL    HW118427   1.896   4.315   6.142  1.6417  1.2454  0.2861
 5662SOL    HW218428   1.918   4.308   5.992  0.8096  0.5393  0.1893
 5663SOL     OW18429   1.996   4.061   5.017 -0.1102 -0.4771 -0.0220
 5663SOL    HW118430   2.044   4.118   5.077 -0.5479 -0.6669  0.5154
 5663SOL    HW218431   1.922   4.029   5.068 -0.3285 -0.8742 -0.5750
 5664SOL     OW18432   0.189   5.223   9.124  0.4162  0.1720 -0.4286
 5664SOL    HW118433   0.257   5.156   9.113  0.7861  0.7615 -2.1403
 5664SOL    HW218434   0.171   5.225   9.218 -0.6285 -3.3160 -0.4072
 5665SOL     OW18435   5.508   7.161   6.449  0.0638 -0.1788 -0.5688
 5665SOL    HW118436   5.529   7.068   6.455  2.2292  0.3047  0.4547
 5665SOL    HW218437   5.450   7.178   6.523  1.1104 -0.3960  0.3168
 5666SOL     OW18438   5.575   1.357   8.651 -0.2566 -0.1822  0.3742
 5666SOL    HW118439   5.638   1.377   8.721  0.6663  0.1196 -0.5096
 5666SOL    HW218440   5.618   1.388   8.571 -1.8191  0.6718 -0.1939
 5667SOL     OW18441   1.285   6.412  11.095 -0.1001 -0.4828 -0.1171
 5667SOL    HW118442   1.216   6.435  11.156  0.4060 -0.2383  0.3658
 5667SOL    HW218443   1.240   6.402  11.011 -0.6011  0.4441  0.0338
 5668SOL     OW18444   0.640   2.942   6.398 -0.1633  0.1235  0.4209
 5668SOL    HW118445   0.700   2.992   6.453 -1.6062  1.0800  1.1892
 5668SOL    HW218446   0.609   2.871   6.453 -0.0561 -0.1224  0.1665
 5669SOL     OW18447   4.295   3.388  12.157 -0.2521  0.0121  0.2448
 5669SOL    HW118448   4.360   3.338  12.109 -2.7468 -0.2738 -3.2199
 5669SOL    HW218449   4.335   3.474  12.169  0.7425 -0.0591 -2.0360
 5670SOL     OW18450   2.394   5.637  10.822 -0.2068 -0.3286  0.7412
 5670SOL    HW118451   2.481   5.676  10.829 -0.1325 -0.3678  0.0676
 5670SOL    HW218452   2.392   5.572  10.892  0.4008 -0.5083  0.6015
 5671SOL     OW18453   7.056   6.288   1.226 -0.2714  0.3058  0.0539
 5671SOL    HW118454   7.141   6.253   1.199  0.2743  1.8427 -0.3414
 5671SOL    HW218455   6.993   6.238   1.175  0.4699 -0.0290 -0.5678
 5672SOL     OW18456   4.754   1.987   3.291  0.4421  0.6329  0.7838
 5672SOL    HW118457   4.786   2.059   3.237 -0.2333 -0.2248 -0.8407
 5672SOL    HW218458   4.670   2.017   3.325 -1.2993 -0.3488 -2.2740
 5673SOL     OW18459   7.927   6.335   2.950 -0.2453 -0.4625  0.1538
 5673SOL    HW118460   7.978   6.307   3.027  0.3951  2.0588  0.7363
 5673SOL    HW218461   7.964   6.285   2.877 -1.3002 -3.4320  1.4781
 5674SOL     OW18462   3.149   7.237   6.009 -0.1043  0.5067  0.0468
 5674SOL    HW118463   3.170   7.305   6.073 -0.0922  1.3989 -0.8916
 5674SOL    HW218464   3.055   7.224   6.018 -0.0124  0.2260  0.6308
 5675SOL     OW18465   6.511   1.744   6.978 -0.1453 -0.3899  0.7202
 5675SOL    HW118466   6.424   1.712   6.953  0.0042 -0.1482 -0.1348
 5675SOL    HW218467   6.513   1.834   6.946 -0.1317  0.1160  2.0732
 5676SOL     OW18468   7.360   5.990   2.068 -0.2247  0.4067  0.0852
 5676SOL    HW118469   7.345   5.918   2.006  2.2573 -1.1221  1.0811
 5676SOL    HW218470   7.422   6.047   2.024 -2.5466  2.3332 -0.8925
 5677SOL     OW18471   2.577   6.203   4.830 -0.1532  0.3091  0.2217
 5677SOL    HW118472   2.559   6.221   4.923  1.9001  0.3384  0.6744
 5677SOL    HW218473   2.575   6.107   4.824 -2.3152  0.3503 -0.1945
 5678SOL     OW18474   6.324   6.299   2.308 -0.4742 -0.4582  0.1365
 5678SOL    HW118475   6.417   6.309   2.285 -0.6915  0.3091 -0.4420
 5678SOL    HW218476   6.294   6.227   2.251 -0.6000  0.3287 -0.8274
 5679SOL     OW18477   0.838   0.230   5.973  0.1199  0.3867  0.6998
 5679SOL    HW118478   0.884   0.176   6.037 -0.6454 -2.6383 -1.0709
 5679SOL    HW218479   0.745   0.216   5.993 -0.0956  1.1578  0.2548
 5680SOL     OW18480   2.699   7.638   9.634 -0.0147 -0.3515  0.5878
 5680SOL    HW118481   2.634   7.676   9.575  0.8530 -0.0201 -0.1822
 5680SOL    HW218482   2.757   7.711   9.656  0.6416 -0.8326  0.5009
 5681SOL     OW18483   0.670   2.381   3.813  0.6884  0.5335 -0.8614
 5681SOL    HW118484   0.714   2.434   3.746 -2.9689  0.6839 -3.4041
 5681SOL    HW218485   0.676   2.292   3.780 -0.7788  0.5582 -1.2738
 5682SOL     OW18486   3.531   1.619  10.804 -0.2183  0.5734  0.6532
 5682SOL    HW118487   3.603   1.662  10.849 -1.4535  0.2853  3.0784
 5682SOL    HW218488   3.552   1.628  10.711  2.4525  1.2518  1.2419
 5683SOL     OW18489   5.152   7.598  10.188  0.1761 -0.1268  0.8771
 5683SOL    HW118490   5.135   7.529  10.124  0.0784  0.6507  0.0418
 5683SOL    HW218491   5.081   7.661  10.175  1.6807  1.4753 -0.3035
 5684SOL     OW18492   4.631   5.492  11.441  0.1065  0.1780  0.3223
 5684SOL    HW118493   4.642   5.398  11.430  0.2075  0.0413  1.4052
 5684SOL    HW218494   4.651   5.508  11.534  0.2782  1.2923  0.1124
 5685SOL     OW18495   1.927   5.662   7.904  0.1915 -0.0916 -0.3497
 5685SOL    HW118496   1.969   5.727   7.961 -1.0897  0.5699 -0.1094
 5685SOL    HW218497   1.985   5.587   7.907  0.2998  0.0060  1.6750
 5686SOL     OW18498   6.807   7.058   6.432 -0.1078  0.2692 -0.2049
 5686SOL    HW118499   6.886   7.100   6.397  0.1327 -1.7201 -2.2791
 5686SOL    HW218500   6.830   7.035   6.522  1.7563 -0.3335 -0.7836
 5687SOL     OW18501   6.745   5.226   3.370  0.0117 -0.2681  0.4365
 5687SOL    HW118502   6.820   5.177   3.403 -0.4907 -0.1474  1.7836
 5687SOL    HW218503   6.784   5.305   3.332  0.5367  0.1051  1.6928
 5688SOL     OW18504   0.086   0.677  11.999 -0.2964 -0.0931 -0.7273
 5688SOL    HW118505   0.031   0.599  11.995  0.9199 -0.9380 -2.1100
 5688SOL    HW218506   0.038   0.743  11.948  0.0489 -0.9035 -2.1558
 5689SOL     OW18507   2.588   5.384  11.769 -0.3769  0.2943 -0.3410
 5689SOL    HW118508   2.537   5.309  11.741 -1.0930  1.0419 -1.1165
 5689SOL    HW218509   2.560   5.455  11.711  1.5365  0.7421 -0.8134
 5690SOL     OW18510   4.719   1.575   4.338 -0.4952 -0.2096 -0.0400
 5690SOL    HW118511   4.722   1.667   4.309 -2.9850 -0.4952 -1.4495
 5690SOL    HW218512   4.699   1.580   4.431  0.2543  0.6738  0.0890
 5691SOL     OW18513   7.069   6.314   5.650  0.2555  0.4433  0.8083
 5691SOL    HW118514   6.992   6.258   5.657 -0.7132  1.9069  2.9273
 5691SOL    HW218515   7.068   6.346   5.560 -1.0883 -0.3067  0.5390
 5692SOL     OW18516   1.800   5.606   4.512  0.3527 -0.4457 -0.1192
 5692SOL    HW118517   1.769   5.568   4.430  0.8465 -1.1913  0.0243
 5692SOL    HW218518   1.743   5.567   4.579  0.9408 -1.0493  0.0424
 5693SOL     OW18519   7.859   3.726   4.397 -0.1050 -0.6343  0.3211
 5693SOL    HW118520   7.773   3.691   4.424 -0.3269 -1.1019 -0.9382
 5693SOL    HW218521   7.870   3.805   4.450  0.3890 -2.5000  3.2508
 5694SOL     OW18522   2.800   2.447   5.774 -0.0820  0.2505  0.1133
 5694SOL    HW118523   2.836   2.383   5.835 -0.8861  0.4829  0.8480
 5694SOL    HW218524   2.871   2.462   5.711  0.1695 -1.2372  0.0014
 5695SOL     OW18525   7.567   3.666  10.779 -0.7816 -0.4034 -0.2769
 5695SOL    HW118526   7.637   3.611  10.745 -1.3909 -1.0591 -0.4959
 5695SOL    HW218527   7.537   3.716  10.703 -1.2173 -0.8571 -0.4077
 5696SOL     OW18528   6.614   4.238   9.970  0.6337  0.3830  1.1736
 5696SOL    HW118529   6.528   4.270   9.942  0.6574  0.5051  1.2392
 5696SOL    HW218530   6.618   4.257  10.063  1.1479  1.3337  0.9723
 5697SOL     OW18531   5.270   2.621   4.315  0.3481  0.0909 -0.5552
 5697SOL    HW118532   5.263   2.677   4.238 -1.2194  0.1966 -0.3758
 5697SOL    HW218533   5.188   2.572   4.317  0.5189 -0.2040  0.8175
 5698SOL     OW18534   5.798   0.609  11.157 -0.0950 -0.5179 -1.0355
 5698SOL    HW118535   5.824   0.555  11.231 -0.5408  0.4495 -0.1458
 5698SOL    HW218536   5.864   0.592  11.090  1.5857  0.2343  0.3762
 5699SOL     OW18537   5.478   4.849   7.200  0.7853  0.4284  0.3205
 5699SOL    HW118538   5.569   4.866   7.223  1.0736 -0.1402 -0.3671
 5699SOL    HW218539   5.477   4.758   7.170  0.1542  0.6838 -0.4787
 5700SOL     OW18540   1.720   2.036   3.172 -0.6427  0.0384  0.1574
 5700SOL    HW118541   1.685   1.948   3.158 -0.5412  0.1990 -1.2294
 5700SOL    HW218542   1.815   2.025   3.170 -0.6060 -0.0359  1.5284
 5701SOL     OW18543   2.322   0.655   8.628 -0.0649  0.8387  0.3386
 5701SOL    HW118544   2.324   0.597   8.704 -0.3391  0.3015 -0.0625
 5701SOL    HW218545   2.394   0.624   8.573 -1.1506 -0.0893 -0.5843
 5702SOL     OW18546   7.680   2.059   0.601  0.4236 -0.1435  0.1626
 5702SOL    HW118547   7.740   2.023   0.666 -0.3535 -2.0091 -0.0832
 5702SOL    HW218548   7.718   2.036   0.517 -0.2958 -0.8252  0.0048
 5703SOL     OW18549   6.635   3.304   0.030  0.1076  0.2217 -0.0435
 5703SOL    HW118550   6.592   3.389   0.018 -1.2495 -0.3201  0.7526
 5703SOL    HW218551   6.595   3.248  -0.037  0.5771  0.0565 -0.1858
 5704SOL     OW18552   2.287   1.804  12.430  0.2878  0.0615 -0.1907
 5704SOL    HW118553   2.289   1.853  12.512  1.3467 -0.3669  0.0491
 5704SOL    HW218554   2.340   1.726  12.447  0.7704  0.1167 -1.3750
 5705SOL     OW18555   4.083   3.148  11.493  0.4674  0.1483  0.0155
 5705SOL    HW118556   4.005   3.094  11.506  0.8375 -1.0897 -2.3330
 5705SOL    HW218557   4.138   3.130  11.569 -0.5583 -0.7094  0.5858
 5706SOL     OW18558   2.083   4.988  10.512  0.0308 -0.2194 -0.6224
 5706SOL    HW118559   2.148   4.997  10.442  2.4223 -0.0640  1.4840
 5706SOL    HW218560   2.133   4.994  10.593 -2.4326 -1.7529  1.1615
 5707SOL     OW18561   0.557   4.607   1.854  0.2887  0.8195 -0.4808
 5707SOL    HW118562   0.532   4.586   1.764 -1.1945 -0.2567  0.1308
 5707SOL    HW218563   0.622   4.541   1.877 -0.4463  0.1401 -0.2976
 5708SOL     OW18564   5.178   1.353   1.843  0.1770  0.2408  0.5217
 5708SOL    HW118565   5.229   1.285   1.798 -0.3156 -0.1494  0.5446
 5708SOL    HW218566   5.208   1.349   1.934  0.1721  0.0791  0.5158
 5709SOL     OW18567   5.562   3.462   4.049  0.8718  0.5008  0.2066
 5709SOL    HW118568   5.557   3.413   3.967 -2.7180 -0.3344  0.7969
 5709SOL    HW218569   5.543   3.553   4.024 -1.4970  0.0459  0.1978
 5710SOL     OW18570   0.972   4.970   4.288  0.2045 -0.0056 -0.0153
 5710SOL    HW118571   1.009   4.903   4.346  1.0098 -2.0451 -2.6841
 5710SOL    HW218572   1.025   5.047   4.304  0.3998 -0.4940  1.9141
 5711SOL     OW18573   6.663   5.597  12.114 -0.4740  0.0271 -0.2448
 5711SOL    HW118574   6.585   5.652  12.123  0.4164  1.2529  0.2852
 5711SOL    HW218575   6.695   5.614  12.025  0.5478  1.4644  0.3493
 5712SOL     OW18576   7.191   2.162   1.505  0.2988  0.2693  0.0993
 5712SOL    HW118577   7.244   2.239   1.484  0.2387  1.0655  2.5855
 5712SOL    HW218578   7.112   2.197   1.545 -0.4050 -1.0669 -0.0525
 5713SOL     OW18579   0.987   7.230   7.151  0.1629 -0.5201 -0.3790
 5713SOL    HW118580   1.064   7.218   7.096  0.9536  0.1084  0.5504
 5713SOL    HW218581   1.009   7.304   7.208 -1.3514  0.0546 -0.4719
 5714SOL     OW18582   3.353   1.026   6.706 -0.2238 -0.1217 -0.1532
 5714SOL    HW118583   3.401   1.107   6.688 -0.5531  0.4794  1.5317
 5714SOL    HW218584   3.261   1.053   6.706 -0.3266 -0.4720  0.5212
 5715SOL     OW18585   0.378   7.503  12.106  0.4550 -0.4188 -0.5861
 5715SOL    HW118586   0.293   7.513  12.149  0.4454  0.5939 -0.8302
 5715SOL    HW218587   0.389   7.408  12.098  0.0433 -0.6060  0.8177
 5716SOL     OW18588   3.215   4.260   0.997 -0.3734  0.3794  0.1961
 5716SOL    HW118589   3.156   4.334   1.007  0.3539  0.8478  1.2164
 5716SOL    HW218590   3.262   4.255   1.080  1.6881  0.6264 -0.8865
 5717SOL     OW18591   2.806   5.912   2.195  0.7662 -0.0987 -0.0232
 5717SOL    HW118592   2.736   5.858   2.160 -1.4959  1.9235  1.0512
 5717SOL    HW218593   2.825   5.874   2.281 -0.9557  0.8308  0.8163
 5718SOL     OW18594   1.101   4.645   6.938  0.8552  0.0285 -0.2718
 5718SOL    HW118595   1.192   4.631   6.912  1.7145  1.4922  1.6715
 5718SOL    HW218596   1.074   4.561   6.976  2.8333  0.5896  2.7813
 5719SOL     OW18597   6.283   7.763   5.173 -0.8086  0.2091  0.3641
 5719SOL    HW118598   6.355   7.749   5.234  0.2478  2.6489 -0.2038
 5719SOL    HW218599   6.219   7.815   5.222 -0.6351  0.9108 -0.1448
 5720SOL     OW18600   2.625   1.906  10.624 -0.2485  0.0062 -0.0060
 5720SOL    HW118601   2.603   1.961  10.549 -1.9948  0.7648  0.9995
 5720SOL    HW218602   2.540   1.873  10.655  0.2352  0.9050  2.5016
 5721SOL     OW18603   6.059   3.113   6.894 -0.5769  0.4464  0.0005
 5721SOL    HW118604   6.050   3.065   6.977  0.6509 -0.1202 -0.1757
 5721SOL    HW218605   5.992   3.074   6.837  0.4975 -1.2420 -0.1900
 5722SOL     OW18606   4.972   3.289   2.486 -0.5050  0.0716  0.5110
 5722SOL    HW118607   4.981   3.288   2.391 -1.2224  0.6523  0.4260
 5722SOL    HW218608   4.897   3.346   2.502  0.3049  0.8995  1.4823
 5723SOL     OW18609   1.766   3.192   6.342 -0.1159  0.1114  0.4023
 5723SOL    HW118610   1.723   3.113   6.376 -0.3491  0.7598  1.6690
 5723SOL    HW218611   1.833   3.158   6.282 -0.9747 -0.9969  0.0263
 5724SOL     OW18612   2.062   2.666   5.226  0.0636  0.3085 -0.3723
 5724SOL    HW118613   2.043   2.659   5.133 -1.6272 -0.9953  0.0257
 5724SOL    HW218614   2.003   2.735   5.257 -0.5645 -0.3829  0.0035
 5725SOL     OW18615   7.466   0.354   4.076  0.3034  0.2258 -0.2309
 5725SOL    HW118616   7.554   0.359   4.037  0.7709 -2.6886  0.2262
 5725SOL    HW218617   7.472   0.283   4.140 -2.2360  0.4075  0.3109
 5726SOL     OW18618   2.542   4.869   8.709  0.2532  0.6971  0.3480
 5726SOL    HW118619   2.466   4.842   8.658  1.3138 -2.4240  0.2050
 5726SOL    HW218620   2.564   4.956   8.675 -0.4851 -0.2591 -2.8916
 5727SOL     OW18621   0.201   4.455  12.265  0.2316  0.5650 -0.3966
 5727SOL    HW118622   0.289   4.493  12.260  0.3245  0.5849  0.8720
 5727SOL    HW218623   0.142   4.530  12.262  0.4190  0.9113  2.2480
 5728SOL     OW18624   6.912   4.404   3.784 -0.7207 -0.2788  0.2172
 5728SOL    HW118625   6.837   4.351   3.814 -0.9473 -0.1687 -0.1459
 5728SOL    HW218626   6.982   4.383   3.845 -1.3582  0.4335  1.2437
 5729SOL     OW18627   5.558   6.453   0.718 -0.2817  0.1787 -0.3583
 5729SOL    HW118628   5.620   6.471   0.788 -0.0203  0.4071 -0.6442
 5729SOL    HW218629   5.473   6.479   0.753 -0.4647 -1.5405  0.5971
 5730SOL     OW18630   6.530   7.625   4.658  0.2296 -0.1578 -0.0471
 5730SOL    HW118631   6.447   7.622   4.706 -1.1804  0.2444 -2.3070
 5730SOL    HW218632   6.585   7.685   4.709 -0.1223 -1.7919  2.4801
 5731SOL     OW18633   0.225   3.220   1.673 -0.4044 -0.2209 -0.1888
 5731SOL    HW118634   0.311   3.215   1.715 -0.2452  2.1876 -0.1038
 5731SOL    HW218635   0.174   3.151   1.716  1.2231 -1.1711  0.3250
 5732SOL     OW18636   3.406   5.918   6.799 -0.3896 -0.4519 -0.2544
 5732SOL    HW118637   3.313   5.895   6.794 -0.4068 -0.1309 -2.1537
 5732SOL    HW218638   3.407   6.013   6.800 -0.0819 -0.4477 -0.6578
 5733SOL     OW18639   1.422   2.812  11.809  0.7741 -0.3662 -0.0417
 5733SOL    HW118640   1.422   2.868  11.887  0.6709  0.3820 -0.5698
 5733SOL    HW218641   1.338   2.829  11.767  1.6591  0.8534 -1.4424
 5734SOL     OW18642   5.702   3.347  11.299 -0.6900 -0.5425  0.0784
 5734SOL    HW118643   5.693   3.269  11.355 -0.0245 -0.8789 -0.2789
 5734SOL    HW218644   5.786   3.335  11.255 -0.6261  0.3440 -0.0419
 5735SOL     OW18645   6.650   7.272   6.806  0.0602 -0.1994 -0.0850
 5735SOL    HW118646   6.685   7.349   6.761  0.6531 -0.7987 -0.6797
 5735SOL    HW218647   6.557   7.290   6.816  0.6703  2.1471  2.9194
 5736SOL     OW18648   3.845   6.427   0.214  0.4069 -0.1271  0.3334
 5736SOL    HW118649   3.872   6.395   0.128  0.2544 -2.2570  1.0275
 5736SOL    HW218650   3.750   6.438   0.207  0.2669 -1.1744  0.4779
 5737SOL     OW18651   3.714   7.305  10.976  0.3314  0.0323  0.4949
 5737SOL    HW118652   3.711   7.385  11.029  1.5096  0.9239 -0.7223
 5737SOL    HW218653   3.789   7.256  11.011  0.7306  0.3340  0.0801
 5738SOL     OW18654   6.941   5.009   3.046  0.2525  0.0008  0.0950
 5738SOL    HW118655   6.856   5.021   3.088  1.2129 -1.1576  2.5632
 5738SOL    HW218656   6.989   5.090   3.066  0.3716 -0.1305  0.3378
 5739SOL     OW18657   3.334   4.385   4.372  0.3350 -0.3193 -0.3429
 5739SOL    HW118658   3.430   4.385   4.373  0.3542  0.9136  1.1057
 5739SOL    HW218659   3.311   4.474   4.343 -0.3369 -0.0712  0.8949
 5740SOL     OW18660   4.260   4.069   3.110  0.1741 -0.2043 -0.0318
 5740SOL    HW118661   4.213   4.093   3.031 -0.0232 -2.0583 -0.5359
 5740SOL    HW218662   4.343   4.034   3.079  0.3057 -0.4791  0.6078
 5741SOL     OW18663   4.722   0.886   5.675  0.3391  0.0327 -0.1584
 5741SOL    HW118664   4.778   0.912   5.748 -0.1281  1.8721 -0.4104
 5741SOL    HW218665   4.709   0.966   5.624 -2.0852 -0.4292 -0.4005
 5742SOL     OW18666   3.278   1.213   1.659  0.0058 -0.2346 -0.6128
 5742SOL    HW118667   3.256   1.220   1.752 -0.3663  0.7335 -0.7565
 5742SOL    HW218668   3.355   1.157   1.657 -0.4378 -0.9161  0.2075
 5743SOL     OW18669   0.409   4.270  11.592  0.0317  0.5480  0.0403
 5743SOL    HW118670   0.456   4.286  11.674 -0.1597  0.6978  0.1193
 5743SOL    HW218671   0.475   4.231  11.534  0.2546  0.7683  0.1476
 5744SOL     OW18672   0.217   2.508   0.435 -0.0050 -0.1376  0.4583
 5744SOL    HW118673   0.136   2.462   0.460 -0.2416 -0.0132 -0.0592
 5744SOL    HW218674   0.273   2.439   0.398 -0.1514 -0.1052  0.1720
 5745SOL     OW18675   0.074   1.524  10.226  0.5058 -0.1477 -0.9642
 5745SOL    HW118676   0.086   1.564  10.312 -1.3565 -0.2268 -0.6216
 5745SOL    HW218677   0.051   1.433  10.245 -2.3628  0.3870 -1.3301
 5746SOL     OW18678   3.954   2.351   6.026  0.0982  0.6900 -0.2948
 5746SOL    HW118679   3.871   2.342   6.073 -1.0609 -0.2421 -2.3558
 5746SOL    HW218680   3.990   2.434   6.055  0.2410 -0.4454  3.2930
 5747SOL     OW18681   7.971   2.872   5.164  0.3122 -0.9631  0.0449
 5747SOL    HW118682   7.991   2.782   5.192  0.0416 -0.5986  1.4880
 5747SOL    HW218683   7.879   2.884   5.188  0.3492 -0.2879 -0.1474
 5748SOL     OW18684   7.788   1.551   1.086 -0.0400 -0.2592 -0.5704
 5748SOL    HW118685   7.875   1.547   1.046  0.3316  0.5935  0.1170
 5748SOL    HW218686   7.728   1.542   1.012  0.6264 -1.0900 -1.0267
 5749SOL     OW18687   4.770   2.895   9.752  0.1264 -0.1481  0.2384
 5749SOL    HW118688   4.708   2.879   9.681  1.3932  0.8044 -1.1427
 5749SOL    HW218689   4.819   2.813   9.759 -0.1008 -0.2958  0.1237
 5750SOL     OW18690   6.039   3.541   7.816  0.1360  0.5260 -0.4036
 5750SOL    HW118691   6.031   3.509   7.726 -0.3737 -1.0780  0.1832
 5750SOL    HW218692   6.126   3.514   7.844  0.0587  0.4825 -0.2023
 5751SOL     OW18693   2.486   0.021   9.642  0.5906 -0.0816  0.3711
 5751SOL    HW118694   2.573   0.032   9.679  2.1685 -1.6809 -2.4773
 5751SOL    HW218695   2.486  -0.069   9.608 -1.3376  0.5823 -1.6221
 5752SOL     OW18696   3.626   5.835   0.667  0.2617  0.4644  0.8080
 5752SOL    HW118697   3.619   5.918   0.714 -0.6877  0.0591  1.4104
 5752SOL    HW218698   3.541   5.793   0.679  0.4754 -0.2792 -0.1022
 5753SOL     OW18699   7.337   0.449   1.495 -0.4799 -0.3238 -1.1213
 5753SOL    HW118700   7.338   0.389   1.420 -0.3803 -0.5670 -0.9261
 5753SOL    HW218701   7.419   0.497   1.488 -0.8320  0.2282 -1.6253
 5754SOL     OW18702   0.653   1.431   0.393 -0.1279  0.0186  0.0602
 5754SOL    HW118703   0.739   1.411   0.358 -0.6413  0.4321 -1.5149
 5754SOL    HW218704   0.669   1.462   0.482  1.2191 -1.1124  0.2362
 5755SOL     OW18705   6.392   6.990   3.506 -0.0080 -0.6754 -0.5126
 5755SOL    HW118706   6.416   6.905   3.469  0.0211  0.0543 -2.2372
 5755SOL    HW218707   6.474   7.027   3.537  0.0661 -1.0033 -0.3073
 5756SOL     OW18708   1.894   0.924   0.928  0.6032 -0.2430 -0.1040
 5756SOL    HW118709   1.808   0.927   0.970 -0.0752 -0.9059 -1.3874
 5756SOL    HW218710   1.947   0.868   0.985  0.3004  0.4501  0.8789
 5757SOL     OW18711   4.217   3.662   0.406 -0.6018 -0.3894 -0.0709
 5757SOL    HW118712   4.248   3.700   0.324 -0.0382 -1.2742 -0.2873
 5757SOL    HW218713   4.282   3.593   0.426  0.7956  1.4868  2.4581
 5758SOL     OW18714   6.485   4.417   6.795  0.8159  0.0890 -0.4287
 5758SOL    HW118715   6.554   4.437   6.857  1.1440 -0.3737 -0.6390
 5758SOL    HW218716   6.465   4.500   6.752  0.7731  0.3552  0.1005
 5759SOL     OW18717   2.774   3.231   9.419  0.3667  0.1690  0.2967
 5759SOL    HW118718   2.711   3.195   9.482  0.9649 -0.5721  0.4818
 5759SOL    HW218719   2.762   3.326   9.425 -1.6061  0.0212 -0.5872
 5760SOL     OW18720   5.376   4.795   3.292 -0.3970  0.9071  0.5825
 5760SOL    HW118721   5.286   4.827   3.298 -0.1771  1.8108 -0.4921
 5760SOL    HW218722   5.370   4.721   3.231 -0.2378  1.8461 -0.6255
 5761SOL     OW18723   7.297   3.809   2.952 -0.1069  0.6889 -0.3365
 5761SOL    HW118724   7.382   3.802   2.996  0.8651  4.0561 -1.3181
 5761SOL    HW218725   7.242   3.859   3.013 -0.6307  0.4780 -0.6278
 5762SOL     OW18726   0.701   7.605   5.314  0.0048 -0.1872 -0.4602
 5762SOL    HW118727   0.679   7.611   5.220 -1.5575  0.5371 -0.0888
 5762SOL    HW218728   0.658   7.681   5.353 -1.5301 -1.8125  1.2078
 5763SOL     OW18729   2.666   5.444  12.023 -0.0406 -0.3223  0.5524
 5763SOL    HW118730   2.643   5.420  11.933  0.3689 -1.0756  0.6410
 5763SOL    HW218731   2.588   5.424  12.073 -0.4266  0.5177  0.3035
 5764SOL     OW18732   5.128   6.554  10.549 -0.0778  0.0486  0.0494
 5764SOL    HW118733   5.155   6.498  10.477 -2.8291 -1.7862  0.2763
 5764SOL    HW218734   5.206   6.563  10.604  1.0837 -1.6070 -1.2273
 5765SOL     OW18735   0.929   6.511   5.141 -0.1428  0.3893 -0.6132
 5765SOL    HW118736   0.918   6.521   5.236  0.4794 -1.1198 -0.3413
 5765SOL    HW218737   0.870   6.439   5.118  0.4437  0.0851 -1.1874
 5766SOL     OW18738   0.274   4.351  10.595  0.0848 -0.0745  0.1860
 5766SOL    HW118739   0.358   4.318  10.563 -1.2036 -1.7622 -1.7021
 5766SOL    HW218740   0.225   4.273  10.620 -1.2187  0.8056  0.5138
 5767SOL     OW18741   0.799   6.531   6.681 -0.5158  0.2147  0.0840
 5767SOL    HW118742   0.847   6.449   6.694  2.8337  2.0671  0.4442
 5767SOL    HW218743   0.764   6.524   6.592 -1.9281 -2.2773  0.7401
 5768SOL     OW18744   2.398   2.744   3.933 -0.5693  0.3882 -0.1496
 5768SOL    HW118745   2.377   2.821   3.881 -0.3964  1.4150  1.2351
 5768SOL    HW218746   2.320   2.730   3.987 -0.2668  0.1381  0.2312
 5769SOL     OW18747   4.517   2.816   3.323 -0.0050  0.0819  0.0531
 5769SOL    HW118748   4.464   2.781   3.395  0.2560  0.0904  0.2537
 5769SOL    HW218749   4.464   2.886   3.286  0.4547  1.0787  1.1902
 5770SOL     OW18750   4.735   3.800   9.747 -0.6535 -0.2649  0.2219
 5770SOL    HW118751   4.728   3.886   9.704  1.4055  0.9415  2.1394
 5770SOL    HW218752   4.814   3.761   9.710 -0.0789 -0.1409  1.2801
 5771SOL     OW18753   2.562   1.069   8.460 -0.2895  0.0740  0.3660
 5771SOL    HW118754   2.542   0.988   8.413 -1.2808  0.1227  0.6857
 5771SOL    HW218755   2.658   1.071   8.465 -0.1987 -0.4011 -0.8172
 5772SOL     OW18756   6.619   4.119   5.352  0.2500  1.0017  0.0832
 5772SOL    HW118757   6.611   4.100   5.446 -2.5766 -1.5367 -0.4945
 5772SOL    HW218758   6.534   4.157   5.329  0.6944  1.0449 -1.5428
 5773SOL     OW18759   7.226   3.760   2.019 -0.8521  0.0858 -0.9758
 5773SOL    HW118760   7.146   3.731   2.064  0.4479  0.1441  1.5319
 5773SOL    HW218761   7.288   3.689   2.032 -0.2263  0.3652 -2.2596
 5774SOL     OW18762   0.850   2.763   6.677  0.0032 -0.1805  0.0890
 5774SOL    HW118763   0.830   2.856   6.668 -0.4429 -0.3879 -1.1229
 5774SOL    HW218764   0.810   2.738   6.761 -1.7457  0.2330 -0.5900
 5775SOL     OW18765   3.226   0.081   0.309 -0.2746 -0.4545 -0.0248
 5775SOL    HW118766   3.201   0.059   0.219 -0.0830  1.5720 -0.6239
 5775SOL    HW218767   3.207   0.174   0.317  1.4280 -0.1702  1.4393
 5776SOL     OW18768   2.339   7.499   6.499  0.1115 -0.3064 -0.2939
 5776SOL    HW118769   2.394   7.498   6.421 -0.9222 -1.8609 -1.0707
 5776SOL    HW218770   2.381   7.438   6.559 -0.9551 -1.8922 -1.0878
 5777SOL     OW18771   2.876   1.695   5.766 -0.2596  0.1362  0.6936
 5777SOL    HW118772   2.897   1.649   5.847  0.5812  1.1671  1.0884
 5777SOL    HW218773   2.889   1.788   5.787  0.1252  0.4141 -0.6667
 5778SOL     OW18774   2.590   3.723   6.927 -0.0396 -0.3808  0.1205
 5778SOL    HW118775   2.529   3.703   6.998 -0.1647  0.5725  0.2837
 5778SOL    HW218776   2.559   3.806   6.890  0.7667 -0.2254 -0.2303
 5779SOL     OW18777   1.286   7.249   6.952  0.0762 -0.0954  0.0215
 5779SOL    HW118778   1.364   7.236   7.007  0.3620  2.8284  0.4685
 5779SOL    HW218779   1.278   7.168   6.902  2.4772 -1.0963  1.0999
 5780SOL     OW18780   3.398   5.256   5.568  0.5477  0.0319 -0.0876
 5780SOL    HW118781   3.319   5.263   5.516  0.4120  1.3820  0.2666
 5780SOL    HW218782   3.370   5.277   5.658  1.0833 -0.6274  0.2446
 5781SOL     OW18783   7.915   0.568   3.186  0.3980  0.3664 -0.0566
 5781SOL    HW118784   7.977   0.606   3.124 -0.2988  1.5934 -0.0413
 5781SOL    HW218785   7.932   0.615   3.268  0.0860  0.0408  0.1981
 5782SOL     OW18786   1.463   3.954  12.228  0.3593  0.2506 -0.6916
 5782SOL    HW118787   1.528   3.933  12.295 -0.1741 -2.0514 -0.7945
 5782SOL    HW218788   1.480   3.890  12.158 -0.0112  1.6614 -2.1352
 5783SOL     OW18789   2.231   5.352  11.859  0.2235  0.0386  0.1411
 5783SOL    HW118790   2.271   5.419  11.914 -0.2378  0.5923 -0.1781
 5783SOL    HW218791   2.267   5.269  11.890  1.3112  0.4856  0.1147
 5784SOL     OW18792   3.712   2.001   2.239  0.0028  0.0076  0.8455
 5784SOL    HW118793   3.780   1.946   2.277 -0.3558  0.4857  2.2347
 5784SOL    HW218794   3.653   2.021   2.311 -0.9701  0.5814 -0.0652
 5785SOL     OW18795   7.639   5.054  12.050 -0.5035  0.7171  0.4361
 5785SOL    HW118796   7.680   5.141  12.049 -1.8254  1.3730 -0.1739
 5785SOL    HW218797   7.602   5.046  12.138 -0.6630  0.9269  0.3901
 5786SOL     OW18798   1.620   4.345   2.004  0.0057 -0.6129 -0.0707
 5786SOL    HW118799   1.532   4.379   1.990  0.8034  0.9775 -1.6038
 5786SOL    HW218800   1.641   4.299   1.922  1.1164  0.2555 -0.2918
 5787SOL     OW18801   7.406   0.600   6.363 -0.1014  0.1669 -0.7914
 5787SOL    HW118802   7.479   0.628   6.308  0.3353  0.9860  0.1625
 5787SOL    HW218803   7.388   0.677   6.418 -1.4783 -0.1346 -0.8040
 5788SOL     OW18804   6.055   0.678   7.056 -0.2483  0.0669  0.2313
 5788SOL    HW118805   6.135   0.632   7.030 -0.6151 -0.2118 -0.4363
 5788SOL    HW218806   6.049   0.665   7.150 -0.6836 -1.8290 -0.0204
 5789SOL     OW18807   7.248   1.898   2.079  0.2553  0.0196 -0.1593
 5789SOL    HW118808   7.219   1.989   2.093  2.5766  0.7757  0.0670
 5789SOL    HW218809   7.174   1.845   2.109 -0.6675  1.8194  0.9347
 5790SOL     OW18810   5.229   5.115   6.544  0.3094 -0.2341  0.1324
 5790SOL    HW118811   5.239   5.146   6.454  2.3836 -0.5804  0.1971
 5790SOL    HW218812   5.209   5.194   6.595 -1.2238 -0.0801 -0.6207
 5791SOL     OW18813   0.662   6.119  10.985 -0.4081 -0.4738 -0.7814
 5791SOL    HW118814   0.695   6.030  10.987 -1.3406 -0.8183  0.0375
 5791SOL    HW218815   0.728   6.171  11.031 -0.4453 -0.9483 -0.1900
 5792SOL     OW18816   7.952   4.760   2.106 -0.4604  0.1201 -0.2066
 5792SOL    HW118817   7.987   4.718   2.028 -2.5846  0.4799 -1.4547
 5792SOL    HW218818   7.921   4.688   2.161 -3.4332 -0.1637 -2.0117
 5793SOL     OW18819   7.576   4.081   3.458 -0.2059 -0.5517  0.4017
 5793SOL    HW118820   7.613   4.047   3.376  2.0979  0.0121  1.1498
 5793SOL    HW218821   7.640   4.057   3.525 -0.2889  2.0638  1.5071
 5794SOL     OW18822   2.066   6.411  11.530  0.7057  0.2067  0.1445
 5794SOL    HW118823   1.986   6.358  11.530 -0.3965  1.5878  3.8409
 5794SOL    HW218824   2.040   6.495  11.492  1.0832 -0.1238 -0.8770
 5795SOL     OW18825   3.915   2.123   4.617 -0.0564 -0.1656 -0.0053
 5795SOL    HW118826   3.846   2.126   4.550  0.0188 -1.2312 -0.1477
 5795SOL    HW218827   3.884   2.182   4.686 -2.6292 -2.7923  1.3267
 5796SOL     OW18828   2.804   0.862   2.867  0.0932 -0.1019 -0.2904
 5796SOL    HW118829   2.804   0.957   2.877 -0.9059 -0.2770  1.9508
 5796SOL    HW218830   2.894   0.836   2.887 -0.0762  0.2643  1.0851
 5797SOL     OW18831   0.589   4.639   5.854  0.6385 -0.2432  0.8585
 5797SOL    HW118832   0.547   4.715   5.814  0.3772 -0.2635  1.0939
 5797SOL    HW218833   0.673   4.631   5.808  0.8850  0.4808  1.1702
 5798SOL     OW18834   2.692   0.486   5.222 -0.5134 -0.5136 -0.2024
 5798SOL    HW118835   2.706   0.575   5.191  0.8632 -0.6255  0.0583
 5798SOL    HW218836   2.677   0.435   5.143 -0.6571 -0.1743 -0.3982
 5799SOL     OW18837   0.437   4.877   5.837 -0.2410  0.6669  0.1132
 5799SOL    HW118838   0.363   4.902   5.893 -0.0613 -0.6178  0.9843
 5799SOL    HW218839   0.510   4.931   5.867  0.1196 -0.7128  1.8891
 5800SOL     OW18840   7.884   1.295   4.134 -0.0604  0.3439 -0.2112
 5800SOL    HW118841   7.847   1.243   4.063  0.2239  0.7501 -0.6621
 5800SOL    HW218842   7.966   1.250   4.156  0.5459  0.9720 -1.0848
 5801SOL     OW18843   6.713   5.984   7.964 -0.4604  0.8439 -0.0618
 5801SOL    HW118844   6.771   6.057   7.942  0.5185 -0.2132 -1.1313
 5801SOL    HW218845   6.703   5.989   8.059  0.9644  1.3674  0.0840
 5802SOL     OW18846   6.181   3.802  10.229  0.2376 -0.0501  0.3217
 5802SOL    HW118847   6.185   3.789  10.134 -0.6225 -0.9064  0.3806
 5802SOL    HW218848   6.103   3.856  10.241 -1.0966 -1.9623  0.6860
 5803SOL     OW18849   6.920   7.959   9.624 -0.3202 -0.0666 -0.1258
 5803SOL    HW118850   6.863   7.899   9.576 -0.4309  1.0415 -1.4537
 5803SOL    HW218851   6.866   8.036   9.641  0.0320 -0.0270  0.9105
 5804SOL     OW18852   0.006   5.439   7.134 -0.1179  0.2995  0.1901
 5804SOL    HW118853  -0.032   5.434   7.046 -1.3063 -0.0103  0.7076
 5804SOL    HW218854  -0.028   5.363   7.180 -0.1055  0.8556  1.1480
 5805SOL     OW18855   2.293   6.975   9.191 -0.7896 -0.2646  0.3452
 5805SOL    HW118856   2.225   6.982   9.124 -0.3831  0.0451 -0.0419
 5805SOL    HW218857   2.361   6.922   9.151 -1.2473 -1.4804  1.1142
 5806SOL     OW18858   4.262   7.920   8.549  0.3334 -0.3230  0.3802
 5806SOL    HW118859   4.178   7.964   8.562  0.4929  0.4802 -1.0680
 5806SOL    HW218860   4.238   7.833   8.515  0.0860  0.0276 -0.3562
 5807SOL     OW18861   6.248   2.305  11.299  0.4876  0.0462  0.0119
 5807SOL    HW118862   6.272   2.357  11.376 -0.5255 -0.4287  0.6755
 5807SOL    HW218863   6.187   2.360  11.251 -2.2052 -1.1896  1.7677
 5808SOL     OW18864   4.394   0.702   6.111  0.1270 -0.0631  0.7586
 5808SOL    HW118865   4.439   0.657   6.039  0.9635  1.8990  0.0025
 5808SOL    HW218866   4.301   0.687   6.094  0.3291 -0.0611 -0.4363
 5809SOL     OW18867   7.270   1.594   0.016 -0.4051  0.2545  0.6446
 5809SOL    HW118868   7.290   1.502  -0.002 -2.2474 -0.0199 -0.1742
 5809SOL    HW218869   7.220   1.592   0.097 -1.2291  0.4299  0.1491
 5810SOL     OW18870   1.573   3.805   0.566  0.4047  0.2295 -0.5598
 5810SOL    HW118871   1.620   3.727   0.597 -0.4659  0.0542  0.3827
 5810SOL    HW218872   1.519   3.772   0.493 -0.2857 -0.1627  0.1117
 5811SOL     OW18873   7.948   5.472   1.354 -0.2083 -0.0465  0.4229
 5811SOL    HW118874   7.961   5.490   1.261 -0.1130  1.8054  0.7566
 5811SOL    HW218875   8.036   5.458   1.388 -0.3038 -1.6511  0.1059
 5812SOL     OW18876   4.075   1.824   3.110 -0.1389  0.2916  0.9402
 5812SOL    HW118877   3.992   1.870   3.096  0.0722  0.5219  0.4310
 5812SOL    HW218878   4.134   1.892   3.143 -0.0074  0.2409  0.8061
 5813SOL     OW18879   1.934   2.465  11.014 -0.2611  0.3776 -0.1279
 5813SOL    HW118880   1.870   2.410  11.060  0.9108 -0.2355  0.8245
 5813SOL    HW218881   1.983   2.507  11.085  0.7528  0.4008 -0.8354
 5814SOL     OW18882   3.075   6.189   9.895 -0.0456  0.4740  0.1613
 5814SOL    HW118883   3.061   6.112   9.839 -0.6961  0.4964  0.2832
 5814SOL    HW218884   3.133   6.245   9.844  0.9985 -0.3975  0.3603
 5815SOL     OW18885   7.198   4.746   2.459  0.7347  0.1342  0.0430
 5815SOL    HW118886   7.124   4.694   2.491  2.3505 -2.2033  0.2111
 5815SOL    HW218887   7.244   4.687   2.399  3.6286  0.7057  1.5434
 5816SOL     OW18888   1.296   1.685   5.218  0.3459  0.8412 -0.1209
 5816SOL    HW118889   1.314   1.769   5.259  0.0705  1.3831 -1.0995
 5816SOL    HW218890   1.360   1.625   5.258  0.8881  1.6137  0.1932
 5817SOL     OW18891   0.203   3.540   7.024 -0.4481  0.2143  0.3529
 5817SOL    HW118892   0.152   3.610   7.066  0.2592  1.1592 -0.2987
 5817SOL    HW218893   0.221   3.574   6.936  1.7736  0.2065  0.7240
 5818SOL     OW18894   4.324   7.548   9.931  0.1739  0.0256  0.4842
 5818SOL    HW118895   4.245   7.599   9.910  0.2540  0.0433  0.2279
 5818SOL    HW218896   4.396   7.597   9.891  0.3855  0.3094  1.2000
 5819SOL     OW18897   4.879   4.640   0.544 -0.1059  0.3689 -0.1358
 5819SOL    HW118898   4.826   4.622   0.622  1.3768  0.5906  0.9640
 5819SOL    HW218899   4.830   4.707   0.497 -0.7047  0.7044  0.9373
 5820SOL     OW18900   1.610   1.400   6.930 -0.1812  0.0563  0.0003
 5820SOL    HW118901   1.697   1.411   6.890  0.0529  0.2958  0.5587
 5820SOL    HW218902   1.626   1.347   7.007 -0.5339  0.1010  0.1064
 5821SOL     OW18903   4.188   7.956  10.894  0.9453  0.0533  0.7009
 5821SOL    HW118904   4.093   7.970  10.894  0.6416 -1.1359 -2.6405
 5821SOL    HW218905   4.221   8.013  10.963 -1.8662  3.2210 -0.3401
 5822SOL     OW18906   4.530   0.841  11.026 -0.1676  0.7788  0.1641
 5822SOL    HW118907   4.485   0.923  11.009 -1.6372  0.1756  0.9500
 5822SOL    HW218908   4.542   0.802  10.939 -1.0486  1.0297 -0.0867
 5823SOL     OW18909   1.352   4.359  11.317  0.0172  0.2895 -0.2826
 5823SOL    HW118910   1.309   4.303  11.253 -0.1445 -1.2002  1.0479
 5823SOL    HW218911   1.281   4.392  11.372  0.4072 -1.7759  1.6112
 5824SOL     OW18912   0.945   0.737   5.323 -0.1024  0.3229 -0.0099
 5824SOL    HW118913   0.855   0.760   5.347 -0.2553 -1.4644  1.3389
 5824SOL    HW218914   0.935   0.666   5.259  0.3272 -0.0781  0.3592
 5825SOL     OW18915   7.860   4.847   0.191 -0.5364  0.2385  0.4075
 5825SOL    HW118916   7.772   4.811   0.177 -0.5808  0.9934 -1.7588
 5825SOL    HW218917   7.917   4.770   0.195 -1.4453 -0.4419  4.4479
 5826SOL     OW18918   6.265   1.849   8.678  0.0415 -0.4260 -0.2586
 5826SOL    HW118919   6.331   1.780   8.681 -0.9636 -1.4365 -0.4803
 5826SOL    HW218920   6.189   1.807   8.637 -0.5113  0.8952 -0.6419
 5827SOL     OW18921   7.576   5.024   0.001 -0.7776 -0.2800  0.5680
 5827SOL    HW118922   7.570   4.937  -0.039 -1.4907  1.1610 -2.7460
 5827SOL    HW218923   7.496   5.031   0.054 -0.4162 -1.7982  1.3848
 5828SOL     OW18924   1.421   1.572   6.831 -0.6187 -0.1770  0.1874
 5828SOL    HW118925   1.382   1.611   6.910  2.0085  1.1307  0.9322
 5828SOL    HW218926   1.478   1.503   6.864  0.9262  0.7381 -0.4782
 5829SOL     OW18927   4.751   4.252   9.965  0.2979 -0.3127  0.3204
 5829SOL    HW118928   4.786   4.251  10.054  0.1657  2.6792  0.5031
 5829SOL    HW218929   4.666   4.209   9.972  0.8656 -1.3229  1.3322
 5830SOL     OW18930   3.803   1.394   7.885  0.1160 -0.2295  0.2339
 5830SOL    HW118931   3.785   1.303   7.911  0.5242  0.0171  1.4643
 5830SOL    HW218932   3.804   1.442   7.968 -0.1793  0.9185 -0.4179
 5831SOL     OW18933   3.277   5.059   6.837 -0.3341  0.3675  0.2190
 5831SOL    HW118934   3.247   5.150   6.835  0.5593  0.6726  0.2983
 5831SOL    HW218935   3.313   5.047   6.924  2.0608  0.7915 -0.6426
 5832SOL     OW18936   0.588   6.315  10.233  0.5035  0.0528 -0.1795
 5832SOL    HW118937   0.646   6.382  10.270 -0.0323  0.2633  0.2795
 5832SOL    HW218938   0.514   6.364  10.197  0.5536 -0.2260 -0.6841
 5833SOL     OW18939   1.847   2.870   6.418 -0.2694  0.2029 -0.8209
 5833SOL    HW118940   1.795   2.938   6.460  0.3269  0.0651  0.1718
 5833SOL    HW218941   1.936   2.906   6.415  0.3415 -1.0620  1.0019
 5834SOL     OW18942   2.823   7.466   0.743  0.5102 -0.9794  0.6778
 5834SOL    HW118943   2.785   7.549   0.715  0.6042 -0.9738  0.5670
 5834SOL    HW218944   2.754   7.401   0.724  0.4024 -0.9151  0.8490
 5835SOL     OW18945   3.652   2.117   1.543 -0.8724  0.4621  0.1036
 5835SOL    HW118946   3.696   2.108   1.627 -0.9282  0.5093  0.1376
 5835SOL    HW218947   3.605   2.200   1.549 -4.1904 -1.3512  1.5497
 5836SOL     OW18948   0.305   7.065   8.743  0.1623  0.3070  0.4733
 5836SOL    HW118949   0.291   7.156   8.716  0.1441 -0.1756 -1.2649
 5836SOL    HW218950   0.401   7.055   8.744  0.2988 -0.7559 -3.7228
 5837SOL     OW18951   2.959   0.197  11.815 -0.5814 -0.3190  0.1268
 5837SOL    HW118952   2.992   0.270  11.762 -0.3231 -1.5112 -1.4349
 5837SOL    HW218953   2.869   0.184  11.783 -1.2663  0.4170  1.6473
 5838SOL     OW18954   0.585   5.640   5.051  0.0398  0.2911 -0.5950
 5838SOL    HW118955   0.555   5.638   4.960  0.4254 -0.1242 -0.7182
 5838SOL    HW218956   0.597   5.548   5.074  1.5813  0.4482 -0.6795
 5839SOL     OW18957   0.812   5.788   3.587 -0.5215 -0.3691 -0.0110
 5839SOL    HW118958   0.895   5.750   3.559 -1.0513  0.0519 -2.3057
 5839SOL    HW218959   0.753   5.713   3.598 -0.1988 -0.5673  0.4147
 5840SOL     OW18960   2.461   4.495   4.517  0.0769 -0.9135  0.1770
 5840SOL    HW118961   2.523   4.427   4.492 -0.9986 -2.3727  1.2775
 5840SOL    HW218962   2.510   4.552   4.577  1.0041 -0.6726 -0.7930
 5841SOL     OW18963   6.982   5.594   4.450 -0.0776 -0.1997  0.1680
 5841SOL    HW118964   6.991   5.503   4.477  0.3662  0.2472  1.6138
 5841SOL    HW218965   7.065   5.635   4.474  0.7920  0.0728 -2.8398
 5842SOL     OW18966   1.371   4.833   2.910  0.5231 -0.5057  0.4011
 5842SOL    HW118967   1.460   4.848   2.878  0.2596 -0.3076 -0.2509
 5842SOL    HW218968   1.375   4.856   3.003  1.1691 -0.5601  0.3908
 5843SOL     OW18969   5.475   2.371  11.902 -0.1193 -0.3643  0.1500
 5843SOL    HW118970   5.539   2.425  11.855 -1.0193  1.2971  0.7345
 5843SOL    HW218971   5.391   2.392  11.860 -0.4158 -1.8763 -0.0637
 5844SOL     OW18972   0.656   6.196   5.351 -0.3297 -0.4284 -0.3137
 5844SOL    HW118973   0.678   6.236   5.267  0.8020 -0.7129 -0.1623
 5844SOL    HW218974   0.623   6.110   5.328 -0.3622 -0.3711 -0.4858
 5845SOL     OW18975   3.787   1.966   6.045  0.0251  0.0593 -0.0424
 5845SOL    HW118976   3.787   2.034   5.977 -1.0746  1.2248  1.0668
 5845SOL    HW218977   3.714   1.909   6.020 -0.1138  0.2458 -0.0700
 5846SOL     OW18978   7.873   6.956   1.862  0.1101  0.2762  0.0697
 5846SOL    HW118979   7.884   7.051   1.860 -0.0466  0.3212  1.0582
 5846SOL    HW218980   7.961   6.921   1.851  0.0577  0.5081 -1.2751
 5847SOL     OW18981   4.695   5.994  12.079  0.5359  0.2622  0.1422
 5847SOL    HW118982   4.621   6.004  12.019  0.8982  0.1118 -0.3364
 5847SOL    HW218983   4.773   6.000  12.023  0.8719 -0.2097  0.5440
 5848SOL     OW18984   1.753   1.039   8.210 -0.3543  0.1463 -0.3752
 5848SOL    HW118985   1.675   1.085   8.179  0.1854  1.2229 -0.1804
 5848SOL    HW218986   1.746   0.952   8.171 -1.7830  0.1335 -0.1409
 5849SOL     OW18987   0.029   3.755  10.461  0.2700  0.5137  0.7461
 5849SOL    HW118988   0.062   3.716  10.380 -1.4963 -0.9166  0.6521
 5849SOL    HW218989  -0.045   3.808  10.433  0.4611  1.0808  1.2980
 5850SOL     OW18990   1.138   4.596   2.043 -0.2464 -0.0103  0.4703
 5850SOL    HW118991   1.141   4.635   1.955  1.2556  0.0424  0.5143
 5850SOL    HW218992   1.138   4.502   2.027 -1.2871 -0.0160  0.4130
 5851SOL     OW18993   7.431   6.287   1.901  0.5820  0.4384 -0.0538
 5851SOL    HW118994   7.390   6.364   1.939 -0.7292 -0.1144 -0.3106
 5851SOL    HW218995   7.519   6.286   1.939  0.8743  2.4236 -0.5649
 5852SOL     OW18996   1.331   5.033   0.747 -0.4132 -0.2351 -0.4279
 5852SOL    HW118997   1.239   5.058   0.744 -0.0629  1.4703  1.1122
 5852SOL    HW218998   1.378   5.115   0.765  1.2160 -1.3610  0.7974
 5853SOL     OW18999   1.776   6.590   2.695 -0.2850 -0.2533 -0.2803
 5853SOL    HW119000   1.810   6.582   2.605  0.0508 -0.7185 -0.1183
 5853SOL    HW219001   1.849   6.562   2.750 -0.1097  1.0716  0.2046
 5854SOL     OW19002   3.280   7.727   9.306 -0.0071 -0.7067  0.7855
 5854SOL    HW119003   3.256   7.634   9.300 -0.5732 -0.8214  3.5049
 5854SOL    HW219004   3.344   7.730   9.377 -1.5627  1.2175  2.1905
 5855SOL     OW19005   0.426   4.086   6.870  0.4183 -0.2123 -0.2761
 5855SOL    HW119006   0.386   4.143   6.936  1.1456 -0.0912  0.0722
 5855SOL    HW219007   0.364   4.014   6.859 -0.5935  0.7226 -0.8511
 5856SOL     OW19008   5.073   1.278   5.868  0.2153 -0.2337 -0.3369
 5856SOL    HW119009   5.016   1.271   5.791 -1.9839 -0.2985  1.2294
 5856SOL    HW219010   5.068   1.192   5.909  0.4156  0.1637  0.5295
 5857SOL     OW19011   3.550   5.481  11.013 -0.2956  0.1085 -0.0922
 5857SOL    HW119012   3.512   5.500  10.927  0.9684  0.1689 -0.6671
 5857SOL    HW219013   3.520   5.553  11.068 -0.0832  0.7806 -0.8251
 5858SOL     OW19014   5.534   6.621  10.561  0.1380 -0.2537  0.1007
 5858SOL    HW119015   5.524   6.634  10.466  1.0294 -1.8724 -0.2483
 5858SOL    HW219016   5.523   6.527  10.574  0.3717 -0.1015  1.5687
 5859SOL     OW19017   0.935   4.775   7.107 -0.7806  0.1540 -0.3782
 5859SOL    HW119018   1.005   4.750   7.046 -1.7458  2.9372 -2.8463
 5859SOL    HW219019   0.863   4.716   7.086 -0.1234 -0.9334  0.3016
 5860SOL     OW19020   6.284   4.536   2.494  0.5528 -0.5264 -0.4891
 5860SOL    HW119021   6.353   4.543   2.428 -1.1118 -1.1836 -2.3983
 5860SOL    HW219022   6.284   4.444   2.521 -0.4912 -0.8742 -1.5953
 5861SOL     OW19023   6.157   6.722   7.717  0.3275  0.2782 -0.2589
 5861SOL    HW119024   6.079   6.672   7.693  0.8404 -0.9005  0.4561
 5861SOL    HW219025   6.192   6.677   7.794  2.0980  0.3536 -0.9761
 5862SOL     OW19026   7.889   0.923   5.480  0.1224 -0.0538 -0.4296
 5862SOL    HW119027   7.971   0.971   5.474 -0.6132  1.4427  0.6834
 5862SOL    HW219028   7.821   0.989   5.467 -0.9160 -1.1760 -0.9264
 5863SOL     OW19029   3.763   4.574  12.142 -0.1885  0.7262 -0.0221
 5863SOL    HW119030   3.699   4.635  12.105 -0.2250  0.0083 -1.1980
 5863SOL    HW219031   3.737   4.488  12.107  1.9238  0.5444 -1.2654
 5864SOL     OW19032   3.855   3.771  11.624  0.0345  0.8442  0.0283
 5864SOL    HW119033   3.898   3.855  11.612  0.9189  0.6717  1.7364
 5864SOL    HW219034   3.925   3.706  11.612 -1.1506  0.0592 -4.2056
 5865SOL     OW19035   3.785   2.236   8.207 -0.3825 -0.1007  0.0786
 5865SOL    HW119036   3.724   2.163   8.202 -0.6109  0.0065  1.1196
 5865SOL    HW219037   3.730   2.313   8.217 -0.0970 -0.0268  1.2968
 5866SOL     OW19038   0.631   7.903   1.604  0.0736 -0.0223  0.0088
 5866SOL    HW119039   0.631   7.994   1.634 -0.7065  0.5008 -1.4948
 5866SOL    HW219040   0.564   7.861   1.657  1.0208  0.0283  1.3156
 5867SOL     OW19041   5.173   3.096   1.911  0.2714 -0.3719  0.6445
 5867SOL    HW119042   5.146   3.020   1.963 -0.8603 -1.7377 -1.7860
 5867SOL    HW219043   5.259   3.071   1.876  0.3187 -0.1241  0.5840
 5868SOL     OW19044   4.432   7.506  11.964 -0.1346 -0.2232  0.3768
 5868SOL    HW119045   4.409   7.457  11.885 -0.3459 -2.0382  1.5078
 5868SOL    HW219046   4.477   7.584  11.932 -2.7338  0.5610 -1.6710
 5869SOL     OW19047   7.746   6.347   8.938  0.6467 -0.1441  0.6534
 5869SOL    HW119048   7.757   6.252   8.943 -2.0505 -0.5866 -0.1743
 5869SOL    HW219049   7.754   6.368   8.845  0.6658  0.3755  0.7661
 5870SOL     OW19050   6.584   2.442   9.885 -0.2170  0.1470 -0.3567
 5870SOL    HW119051   6.555   2.453   9.795  0.1625 -0.7975 -0.6085
 5870SOL    HW219052   6.638   2.363   9.883 -1.9026 -1.1157  1.0941
 5871SOL     OW19053   4.292   2.804   6.599 -0.3744  0.5971 -0.3136
 5871SOL    HW119054   4.198   2.813   6.615 -0.6273 -1.4860 -0.4047
 5871SOL    HW219055   4.322   2.747   6.670  0.2278 -1.2160 -1.9584
 5872SOL     OW19056   1.122   7.475   5.117 -0.1415 -0.4149  0.1097
 5872SOL    HW119057   1.045   7.469   5.174  0.2467  1.7738  0.9495
 5872SOL    HW219058   1.196   7.465   5.176  0.2509 -0.4473 -0.3849
 5873SOL     OW19059   4.610   0.607   6.837 -0.4563  0.3235  0.1381
 5873SOL    HW119060   4.614   0.515   6.864  0.1731 -0.8361 -3.3835
 5873SOL    HW219061   4.531   0.612   6.782  1.2124  0.9415 -2.3953
 5874SOL     OW19062   1.791   6.332   3.751 -0.0626  0.2946  0.1364
 5874SOL    HW119063   1.786   6.425   3.771 -0.6103  0.7254 -1.7421
 5874SOL    HW219064   1.772   6.327   3.657 -0.0224 -1.7091  0.1884
 5875SOL     OW19065   1.899   6.460   1.442 -0.2054 -0.4972  0.2508
 5875SOL    HW119066   1.939   6.542   1.414  0.5057 -1.6223 -2.4171
 5875SOL    HW219067   1.805   6.477   1.443 -0.1792  0.0377 -1.7232
 5876SOL     OW19068   2.465   6.626   8.059 -0.1502 -0.2519  0.0198
 5876SOL    HW119069   2.493   6.712   8.088 -0.3253 -0.1541 -0.1012
 5876SOL    HW219070   2.391   6.643   8.001 -0.1253 -0.4767 -0.0792
 5877SOL     OW19071   2.862   5.747   8.538  0.0965 -0.4583 -0.0655
 5877SOL    HW119072   2.871   5.693   8.617  1.0171 -1.9389 -1.1445
 5877SOL    HW219073   2.950   5.754   8.503 -0.5618 -1.6709 -2.1407
 5878SOL     OW19074   3.059   6.288   0.342 -0.3077  0.1712  0.6183
 5878SOL    HW119075   2.988   6.224   0.334 -0.1863  0.1046 -0.0202
 5878SOL    HW219076   3.056   6.336   0.259  0.8069 -0.2625  0.3124
 5879SOL     OW19077   1.058   2.111   7.185 -0.0547  0.2722 -0.0069
 5879SOL    HW119078   0.977   2.157   7.164  0.0583  0.5288  0.1146
 5879SOL    HW219079   1.030   2.022   7.207 -0.3720  0.5242  0.6454
 5880SOL     OW19080   3.926   0.024   9.404 -0.1534 -0.1987 -0.7052
 5880SOL    HW119081   3.900  -0.011   9.319 -2.8578 -2.1442  0.7688
 5880SOL    HW219082   4.017  -0.005   9.415 -0.7454 -2.6177 -1.6778
 5881SOL     OW19083   1.106   2.232  11.976 -0.7049 -0.3208  0.2204
 5881SOL    HW119084   1.147   2.146  11.984  2.7409  0.9184 -1.6610
 5881SOL    HW219085   1.143   2.283  12.048 -1.4396  0.0210  0.3645
 5882SOL     OW19086   4.348   6.393   7.463  0.5232 -0.9269 -0.1781
 5882SOL    HW119087   4.374   6.303   7.480 -0.9950 -1.0579  1.7765
 5882SOL    HW219088   4.323   6.394   7.371 -0.0627 -2.6625 -0.0657
 5883SOL     OW19089   3.237   0.788  11.144 -0.5409 -0.1469  0.7046
 5883SOL    HW119090   3.219   0.850  11.073 -0.3112  1.4102  1.9583
 5883SOL    HW219091   3.150   0.757  11.170 -0.8292  1.0834  1.2875
 5884SOL     OW19092   4.385   0.330   1.167  0.0328 -0.4242  0.2356
 5884SOL    HW119093   4.429   0.245   1.174  3.1351  1.0235 -0.3019
 5884SOL    HW219094   4.413   0.365   1.082 -2.0157  0.7424 -0.0222
 5885SOL     OW19095   3.980   4.104  10.487 -0.3700  0.1133  0.1199
 5885SOL    HW119096   4.047   4.047  10.448 -1.3194 -0.8932 -0.0924
 5885SOL    HW219097   3.903   4.048  10.495 -1.1824  1.2399  0.3975
 5886SOL     OW19098   1.824   7.804   7.706 -0.1872  0.2081  0.1758
 5886SOL    HW119099   1.815   7.899   7.703  0.3056  0.2337 -1.2251
 5886SOL    HW219100   1.916   7.788   7.684 -0.6039 -0.6280 -1.1250
 5887SOL     OW19101   1.967   5.082   4.602 -0.1832  0.2963 -0.1679
 5887SOL    HW119102   1.926   5.050   4.682 -3.4189  1.0581 -1.3444
 5887SOL    HW219103   2.003   5.167   4.625 -2.6605  1.3395  0.1958
 5888SOL     OW19104   0.764   5.878   3.044  0.0626  0.5728 -0.3423
 5888SOL    HW119105   0.707   5.923   3.107  1.9000  1.9252  0.4462
 5888SOL    HW219106   0.789   5.797   3.088  0.9728  1.2995  0.5369
 5889SOL     OW19107   3.653   4.311  12.026  0.3537  0.5646  0.1337
 5889SOL    HW119108   3.575   4.285  12.074  1.5754  0.1355  1.9890
 5889SOL    HW219109   3.700   4.229  12.010  0.2932  0.7827 -1.2311
 5890SOL     OW19110   4.219   3.364   7.869  0.2396  0.3451 -0.1729
 5890SOL    HW119111   4.250   3.276   7.848  1.0159  0.5684  0.0160
 5890SOL    HW219112   4.224   3.412   7.786 -0.2932  0.1890 -0.3019
 5891SOL     OW19113   1.160   0.446  11.310 -0.1144  0.2430 -0.0059
 5891SOL    HW119114   1.117   0.434  11.226 -0.6779 -0.1078  0.3264
 5891SOL    HW219115   1.222   0.373  11.315 -1.5866 -1.0179  0.7988
 5892SOL     OW19116   2.600   1.334   1.280  0.2435 -0.2385 -0.1423
 5892SOL    HW119117   2.601   1.269   1.350  0.9658  0.3166  0.3906
 5892SOL    HW219118   2.562   1.289   1.205 -0.2561 -0.9433  0.5200
 5893SOL     OW19119   7.638   1.147   2.923  0.7815  0.6092  0.4545
 5893SOL    HW119120   7.597   1.079   2.977  0.4813  0.0637 -0.4452
 5893SOL    HW219121   7.567   1.210   2.907  1.6406  2.5714  3.4189
 5894SOL     OW19122   6.974   1.821  11.940  0.5566 -0.1212 -0.1222
 5894SOL    HW119123   6.960   1.788  12.028 -0.9036 -1.6500 -0.8653
 5894SOL    HW219124   7.061   1.787  11.916  1.0208  0.4194  0.7428
 5895SOL     OW19125   6.911   5.638   2.571  0.3914  0.3580 -0.3259
 5895SOL    HW119126   6.928   5.579   2.497  1.4809  0.6206 -0.3063
 5895SOL    HW219127   6.901   5.724   2.532 -0.3453  0.3068 -0.2723
 5896SOL     OW19128   2.665   2.293  10.831 -0.5182 -0.8296 -0.0458
 5896SOL    HW119129   2.578   2.254  10.834 -0.6994 -0.3923  0.5314
 5896SOL    HW219130   2.657   2.373  10.882  0.1225 -0.5813 -0.3277
 5897SOL     OW19131   1.864   2.446   5.266  0.6835  0.1970  0.0128
 5897SOL    HW119132   1.878   2.351   5.275  0.2482  0.1887  0.6359
 5897SOL    HW219133   1.953   2.483   5.265  0.8819 -0.2632 -0.8815
 5898SOL     OW19134   0.296   3.009   8.255 -0.2976 -0.6039 -0.2799
 5898SOL    HW119135   0.206   3.031   8.279 -0.2846 -1.5665  0.7573
 5898SOL    HW219136   0.316   2.931   8.307  1.5190  0.2561  0.4073
 5899SOL     OW19137   2.144   7.817   5.781  0.2012  0.0157 -0.0464
 5899SOL    HW119138   2.128   7.905   5.747  1.4617  0.3806  0.2427
 5899SOL    HW219139   2.238   7.805   5.773  0.0519 -1.3075 -0.0502
 5900SOL     OW19140   4.691   7.067   8.382 -0.1377 -0.5317 -0.0618
 5900SOL    HW119141   4.641   7.105   8.453 -0.2359  0.7746 -0.7902
 5900SOL    HW219142   4.751   7.006   8.424  0.2222  0.6561  1.2210
 5901SOL     OW19143   7.010   7.483  10.138 -0.8059 -0.2220  0.0376
 5901SOL    HW119144   6.935   7.537  10.164  0.2180  0.6739  1.2099
 5901SOL    HW219145   7.045   7.528  10.061 -1.2844 -0.4740 -0.3319
 5902SOL     OW19146   5.389   5.200   4.132  0.2950  0.6186  0.3045
 5902SOL    HW119147   5.423   5.288   4.113  0.6547  0.0985 -1.7320
 5902SOL    HW219148   5.311   5.216   4.184  0.1109  2.1968 -0.3840
 5903SOL     OW19149   7.221   0.946   8.646  0.2674  0.2693  0.6722
 5903SOL    HW119150   7.251   0.942   8.737 -0.7739 -0.5799  0.9951
 5903SOL    HW219151   7.222   0.855   8.616  2.1751  0.6753 -0.7332
 5904SOL     OW19152   3.723   4.526   2.817  0.3211  0.3170 -0.5214
 5904SOL    HW119153   3.664   4.552   2.746  1.0017  0.1165 -1.1700
 5904SOL    HW219154   3.740   4.608   2.864 -0.1685  0.4422 -0.5541
 5905SOL     OW19155   4.429   2.686   8.905 -0.5941  0.2188  0.7938
 5905SOL    HW119156   4.401   2.703   8.995  0.8360  0.6167  1.1907
 5905SOL    HW219157   4.522   2.708   8.905 -0.9262  1.8745 -1.2162
 5906SOL     OW19158   3.485   7.691   9.723  0.0465  0.5310  0.1229
 5906SOL    HW119159   3.521   7.733   9.801 -0.0889  0.9895 -0.0578
 5906SOL    HW219160   3.534   7.610   9.714 -1.0938 -0.3759  1.6592
 5907SOL     OW19161   4.570   0.046   7.055  0.0445  0.5143  0.0800
 5907SOL    HW119162   4.648   0.027   7.107  0.1616 -0.1918 -0.3414
 5907SOL    HW219163   4.602   0.062   6.967 -0.2395  0.8034  0.0253
 5908SOL     OW19164   3.725   4.907  10.601 -0.1839  0.2774 -0.2636
 5908SOL    HW119165   3.699   4.835  10.658 -2.0164 -0.1049 -1.4851
 5908SOL    HW219166   3.784   4.867  10.537  1.0066  0.4855  0.6572
 5909SOL     OW19167   5.686   2.755   2.816 -0.2852 -0.0270 -0.1812
 5909SOL    HW119168   5.701   2.663   2.798 -1.1143  0.1389 -1.9578
 5909SOL    HW219169   5.768   2.799   2.791 -0.5984 -0.0769 -1.3521
 5910SOL     OW19170   7.141   7.508  12.182 -0.2866  0.4283 -0.4124
 5910SOL    HW119171   7.213   7.503  12.244 -0.6701  1.9494  0.2017
 5910SOL    HW219172   7.183   7.504  12.096  0.2227 -2.0515 -0.1377
 5911SOL     OW19173   7.817   0.879   9.552 -0.3852 -0.5455  0.3551
 5911SOL    HW119174   7.838   0.789   9.577 -0.2680 -0.8889 -0.9331
 5911SOL    HW219175   7.728   0.874   9.518 -0.4031 -0.1536  0.3429
 5912SOL     OW19176   4.525   1.517  10.950  0.2357 -0.1234 -0.7282
 5912SOL    HW119177   4.515   1.567  10.869 -0.3941  0.2362 -0.4298
 5912SOL    HW219178   4.456   1.450  10.946  0.0666  0.0271 -0.3964
 5913SOL     OW19179   5.827   2.028   6.033  0.1256  0.5739  0.4502
 5913SOL    HW119180   5.850   1.937   6.051 -0.6063  0.7282  2.3802
 5913SOL    HW219181   5.738   2.038   6.066 -1.3600  1.0238 -3.2400
 5914SOL     OW19182   5.174   5.843  12.180 -0.7753  0.4009 -0.1914
 5914SOL    HW119183   5.257   5.880  12.211  0.2652 -1.3357 -0.8069
 5914SOL    HW219184   5.140   5.910  12.121  0.2336  1.0990 -0.0284
 5915SOL     OW19185   6.561   2.648   4.882 -0.0328 -0.1226 -0.5160
 5915SOL    HW119186   6.624   2.717   4.862  1.7845 -0.6458  2.7270
 5915SOL    HW219187   6.562   2.591   4.805  1.0541  1.5722 -1.8103
 5916SOL     OW19188   0.540   7.338   7.092  0.5944 -0.6352  0.0723
 5916SOL    HW119189   0.465   7.340   7.151  0.3533  0.2004 -0.2382
 5916SOL    HW219190   0.507   7.297   7.012  0.6880 -0.9970  0.2200
 5917SOL     OW19191   6.390   5.681   8.703 -0.4207  0.5920 -0.5196
 5917SOL    HW119192   6.327   5.676   8.631 -0.2517  1.2705 -0.7231
 5917SOL    HW219193   6.442   5.759   8.684  0.6683 -0.0997 -0.5162
 5918SOL     OW19194   5.546   7.887  10.398 -0.2041 -0.2442  0.8599
 5918SOL    HW119195   5.625   7.937  10.414 -0.8646  0.9442  0.4937
 5918SOL    HW219196   5.477   7.934  10.445 -0.5337 -1.8630  2.0887
 5919SOL     OW19197   7.013   3.214   3.977 -0.1013  0.1632 -0.4084
 5919SOL    HW119198   7.040   3.208   3.885 -0.7599  0.6175 -0.6375
 5919SOL    HW219199   7.093   3.239   4.023  0.1772  0.1918 -0.8967
 5920SOL     OW19200   1.256   2.111  10.816  0.6757 -0.1785 -0.4577
 5920SOL    HW119201   1.337   2.160  10.831 -0.1474  1.1977 -0.3137
 5920SOL    HW219202   1.216   2.154  10.741 -0.3121 -0.3205 -0.0238
 5921SOL     OW19203   2.117   0.596   3.090  0.2204  0.3156  0.1561
 5921SOL    HW119204   2.177   0.669   3.074 -1.5840  2.1457  1.3049
 5921SOL    HW219205   2.172   0.518   3.082  2.2855  1.7832 -0.8703
 5922SOL     OW19206   6.349   7.253   5.023 -0.3068  0.3015 -0.0571
 5922SOL    HW119207   6.419   7.221   4.966  0.3017 -0.5150  1.0913
 5922SOL    HW219208   6.278   7.277   4.963 -0.6269 -2.7786 -1.1044
 5923SOL     OW19209   2.678   0.793  11.259  0.6888  0.0406  0.2980
 5923SOL    HW119210   2.683   0.817  11.351 -1.7517  0.0045  0.5109
 5923SOL    HW219211   2.635   0.867  11.217  0.5726 -0.4958 -0.5531
 5924SOL     OW19212   2.094   1.623  11.537  0.2352 -0.3898 -0.0679
 5924SOL    HW119213   2.122   1.531  11.545  0.3042 -0.2986  0.8448
 5924SOL    HW219214   2.028   1.634  11.606 -0.4403  0.0078 -0.7570
 5925SOL     OW19215   5.220   7.920   5.838  0.0504  0.1632 -0.5641
 5925SOL    HW119216   5.266   7.994   5.878  0.3857  0.2861 -1.1555
 5925SOL    HW219217   5.187   7.869   5.912 -2.2144  2.1300 -0.1212
 5926SOL     OW19218   7.665   3.589   1.768 -1.0162  0.1303 -0.0934
 5926SOL    HW119219   7.623   3.540   1.839 -0.1458  0.6310  0.7988
 5926SOL    HW219220   7.758   3.572   1.779 -0.6618  2.0733  0.3545
 5927SOL     OW19221   2.357   3.887   1.867  0.0279  0.2823 -0.0931
 5927SOL    HW119222   2.381   3.907   1.776 -0.1702 -0.2860 -0.2747
 5927SOL    HW219223   2.264   3.907   1.872 -0.3908 -1.3443 -0.5216
 5928SOL     OW19224   7.350   3.293  10.207 -0.1375 -0.1230  1.1483
 5928SOL    HW119225   7.349   3.197  10.207  0.2529 -0.1524 -0.2895
 5928SOL    HW219226   7.279   3.318  10.265 -1.1409 -1.2945  0.4658
 5929SOL     OW19227   7.048   7.585   1.342  0.0044 -0.1743 -0.1132
 5929SOL    HW119228   7.046   7.512   1.404 -0.4724  0.0485  0.1370
 5929SOL    HW219229   7.078   7.660   1.393 -1.2187  0.2080  0.0664
 5930SOL     OW19230   0.291   1.839   5.784 -0.3354  0.1647  0.3934
 5930SOL    HW119231   0.352   1.898   5.739  1.6841  0.3338  3.1033
 5930SOL    HW219232   0.204   1.867   5.753  0.8115  0.1278 -3.3603
 5931SOL     OW19233   1.654   2.116   3.687  0.0649  0.1273 -0.2067
 5931SOL    HW119234   1.699   2.051   3.633  2.4250  0.6670  0.9636
 5931SOL    HW219235   1.636   2.070   3.769  0.0054  0.4116 -0.0583
 5932SOL     OW19236   7.295   0.882   3.605  0.5808 -0.0322 -0.2602
 5932SOL    HW119237   7.357   0.946   3.641  0.5564 -0.2974  0.2697
 5932SOL    HW219238   7.217   0.933   3.584  1.4875  0.6049 -2.4030
 5933SOL     OW19239   0.458   2.031   0.893 -0.4898 -0.6811  0.3506
 5933SOL    HW119240   0.530   1.997   0.944  0.9420 -0.0029 -1.1249
 5933SOL    HW219241   0.499   2.086   0.826 -2.2278 -1.5059 -1.5338
 5934SOL     OW19242   3.239   6.442   5.264 -0.0103 -0.1102  0.0678
 5934SOL    HW119243   3.227   6.404   5.178  2.1087 -3.1450  0.9381
 5934SOL    HW219244   3.165   6.408   5.316  0.5664 -1.1663  0.2351
 5935SOL     OW19245   6.329   5.882   4.914 -0.1051 -0.1508  0.5178
 5935SOL    HW119246   6.289   5.963   4.945 -1.0054 -0.6209  0.6188
 5935SOL    HW219247   6.386   5.854   4.985 -1.1017 -0.4919  1.2042
 5936SOL     OW19248   1.187   5.466   1.724 -0.2118  0.0370  0.1843
 5936SOL    HW119249   1.098   5.431   1.722 -0.2026 -0.1154  1.6206
 5936SOL    HW219250   1.236   5.409   1.665 -1.3477  1.0676 -1.8784
 5937SOL     OW19251   3.526   2.971   1.838  1.2020  0.3588 -0.0853
 5937SOL    HW119252   3.608   3.019   1.833  0.4563  1.9686  1.6507
 5937SOL    HW219253   3.467   3.029   1.887 -0.8845 -0.8493 -1.0157
 5938SOL     OW19254   5.597   2.281   0.246  0.3955  0.2286  0.1677
 5938SOL    HW119255   5.592   2.230   0.326  0.2434 -1.7542 -1.0411
 5938SOL    HW219256   5.687   2.316   0.246  1.7283 -2.8862 -0.5379
 5939SOL     OW19257   2.513   1.025   1.977 -0.2409 -0.1778  0.0283
 5939SOL    HW119258   2.511   1.093   1.909 -0.4427 -1.3483 -1.1750
 5939SOL    HW219259   2.588   0.971   1.955  0.8564  0.4868  1.8760
 5940SOL     OW19260   5.856   6.219   0.851  0.1540 -0.0363 -0.2298
 5940SOL    HW119261   5.767   6.191   0.833  0.1696  0.0257 -0.4010
 5940SOL    HW219262   5.899   6.141   0.886 -0.5452  0.4580  1.8676
 5941SOL     OW19263   0.323   3.198   3.618 -0.5200  0.2860 -0.1864
 5941SOL    HW119264   0.339   3.257   3.545 -1.2823  1.1823  0.3467
 5941SOL    HW219265   0.409   3.186   3.659 -0.1759  0.1599 -0.9231
 5942SOL     OW19266   3.019   2.050   9.040 -0.0155  0.2945 -0.1813
 5942SOL    HW119267   3.007   2.003   9.123 -1.2899  0.1842 -0.4098
 5942SOL    HW219268   3.100   2.015   9.004  1.4906  1.5391  1.7915
 5943SOL     OW19269   3.607   3.124   7.524  0.1547  0.1599 -0.2218
 5943SOL    HW119270   3.546   3.190   7.490  2.8717  1.8613 -2.1055
 5943SOL    HW219271   3.592   3.125   7.619 -3.0506  0.0821 -0.6181
 5944SOL     OW19272   2.848   5.303   9.849  0.4299  0.2737  0.1389
 5944SOL    HW119273   2.771   5.350   9.882  0.3184 -0.0089  0.2754
 5944SOL    HW219274   2.817   5.257   9.771  0.5639  0.5005 -0.0526
 5945SOL     OW19275   0.042   4.565   1.508 -0.2608 -0.3153 -0.1729
 5945SOL    HW119276   0.097   4.577   1.431 -1.1824 -0.6621 -0.9024
 5945SOL    HW219277  -0.029   4.509   1.478  0.6446 -2.5339  1.5438
 5946SOL     OW19278   6.228   1.877   6.052  0.0857  1.1294 -0.1917
 5946SOL    HW119279   6.133   1.881   6.042 -0.2909 -3.8479 -1.0146
 5946SOL    HW219280   6.263   1.891   5.964 -0.4878 -2.7529 -1.2160
 5947SOL     OW19281   1.847   0.926  10.318 -0.2529  0.2168 -0.2673
 5947SOL    HW119282   1.785   0.877  10.372  1.7261  0.3613  2.2939
 5947SOL    HW219283   1.860   1.008  10.364  3.4245 -0.6549  0.5943
 5948SOL     OW19284   6.556   6.521   3.865 -0.2691 -0.0536 -0.1812
 5948SOL    HW119285   6.506   6.486   3.791  0.0542  0.8363 -0.8440
 5948SOL    HW219286   6.632   6.563   3.824 -0.1869  0.6334  0.6430
 5949SOL     OW19287   1.870   6.924   8.243  0.5507 -0.1077  0.1723
 5949SOL    HW119288   1.785   6.966   8.227 -0.5894 -2.3028  0.1086
 5949SOL    HW219289   1.882   6.930   8.337 -0.0156 -0.3350  0.2680
 5950SOL     OW19290   2.538   4.748   8.964 -0.0781 -0.1385  0.6661
 5950SOL    HW119291   2.532   4.771   8.871  1.7854  0.1494  0.5796
 5950SOL    HW219292   2.479   4.810   9.008  0.6407  1.1848 -0.1463
 5951SOL     OW19293   5.058   5.173   5.287 -0.1839  0.0226 -0.0974
 5951SOL    HW119294   5.088   5.194   5.199  0.4599 -0.0420  0.0968
 5951SOL    HW219295   4.963   5.170   5.281 -0.1015 -1.0573 -1.0296
 5952SOL     OW19296   2.944   1.383   8.406  0.0061 -0.8776  0.4066
 5952SOL    HW119297   3.018   1.340   8.448  0.0124 -0.6708  0.6086
 5952SOL    HW219298   2.884   1.404   8.477  0.6113  0.6576  0.4939
 5953SOL     OW19299   7.366   0.716   2.749  0.5784  0.0798  0.1029
 5953SOL    HW119300   7.435   0.783   2.751 -0.2665  0.9687  0.6536
 5953SOL    HW219301   7.337   0.709   2.840  0.7768 -1.1971  0.0895
 5954SOL     OW19302   3.438   2.753   2.822 -0.4052  0.0726  0.4285
 5954SOL    HW119303   3.460   2.761   2.915  1.6252  2.5701 -0.1694
 5954SOL    HW219304   3.359   2.806   2.811 -0.4022  0.1195  0.6347
 5955SOL     OW19305   3.647   5.445   8.599 -0.1056 -0.0194  0.3518
 5955SOL    HW119306   3.672   5.378   8.664 -0.7516 -0.1717  0.4556
 5955SOL    HW219307   3.561   5.417   8.569 -0.6386  1.0706  0.8101
 5956SOL     OW19308   6.569   7.023  12.049 -0.5237  0.2739  0.0602
 5956SOL    HW119309   6.610   7.005  11.965 -1.0956 -0.7433 -0.0283
 5956SOL    HW219310   6.571   7.118  12.058 -0.1726  0.3707 -0.9536
 5957SOL     OW19311   2.635   2.464   8.118 -0.2590  0.7413 -0.0105
 5957SOL    HW119312   2.612   2.544   8.164 -1.0015  0.0582  0.8354
 5957SOL    HW219313   2.681   2.411   8.183  0.4393  0.5575 -0.6296
 5958SOL     OW19314   0.777   6.433   5.510  0.0163  0.2771  0.2806
 5958SOL    HW119315   0.861   6.391   5.492 -0.0022 -0.7186  2.3228
 5958SOL    HW219316   0.713   6.378   5.465  0.2498 -0.2165  0.5481
 5959SOL     OW19317   5.073   7.407   5.368 -0.0796  0.0811 -0.0493
 5959SOL    HW119318   5.040   7.453   5.292 -1.7464 -0.1724  0.4736
 5959SOL    HW219319   5.012   7.334   5.380 -0.9777  1.1446  2.5678
 5960SOL     OW19320   0.250   2.735   9.813 -0.4656 -0.1907  0.2090
 5960SOL    HW119321   0.267   2.800   9.745 -0.5138  0.9147  1.2279
 5960SOL    HW219322   0.302   2.659   9.787  0.7388  0.7583 -0.2536
 5961SOL     OW19323   1.959   6.271   9.626 -0.6295  0.1558  0.2393
 5961SOL    HW119324   2.047   6.309   9.624 -0.0614 -0.8803  2.4761
 5961SOL    HW219325   1.973   6.177   9.616 -1.5043 -0.0030  0.4196
 5962SOL     OW19326   4.685   7.554   7.004  0.3202  0.4616 -0.3756
 5962SOL    HW119327   4.734   7.626   7.043  0.3832  0.4117 -0.3630
 5962SOL    HW219328   4.593   7.578   7.016  0.3260  0.0846  0.4801
 5963SOL     OW19329   5.658   1.045  10.210 -0.2406  0.3214  0.5100
 5963SOL    HW119330   5.567   1.074  10.213 -0.3602  0.0755 -0.3048
 5963SOL    HW219331   5.674   1.028  10.117  1.2031  2.1545  0.3594
 5964SOL     OW19332   6.084   5.124   5.966 -0.3089  0.2547 -0.2680
 5964SOL    HW119333   6.112   5.216   5.972  0.0934  0.0614  1.3494
 5964SOL    HW219334   6.037   5.118   5.883  1.0960  1.5323 -1.2018
 5965SOL     OW19335   5.442   6.314   4.022  0.7115  0.3277  0.4340
 5965SOL    HW119336   5.367   6.350   3.975 -0.2082 -1.8823  0.0842
 5965SOL    HW219337   5.502   6.388   4.032 -0.2331  1.4985 -1.8326
 5966SOL     OW19338   6.354   1.714   9.260 -0.0323 -0.0027  0.1186
 5966SOL    HW119339   6.399   1.743   9.339  2.2409  0.8246 -1.3846
 5966SOL    HW219340   6.265   1.749   9.268  0.7635  1.8922  1.3329
 5967SOL     OW19341   1.339   7.709   8.820 -0.2439 -0.2750 -0.4559
 5967SOL    HW119342   1.320   7.704   8.726  0.0309  2.2198 -0.7226
 5967SOL    HW219343   1.268   7.761   8.857  0.4576  0.0972  0.4228
 5968SOL     OW19344   4.060   4.044   5.343  0.3241 -0.0612 -0.0466
 5968SOL    HW119345   4.146   4.001   5.341  1.1798  1.5572  0.3051
 5968SOL    HW219346   4.005   3.989   5.287  1.2731 -1.7426  0.5812
 5969SOL     OW19347   4.765   7.747   7.193 -0.5307  0.0237 -0.0779
 5969SOL    HW119348   4.764   7.843   7.196 -1.6707  0.0983 -1.7744
 5969SOL    HW219349   4.832   7.722   7.256  0.0260  1.9473  0.1500
 5970SOL     OW19350   0.520   0.304   4.245 -0.3151 -0.3617  0.5059
 5970SOL    HW119351   0.581   0.239   4.211  0.0215  0.0934  0.2154
 5970SOL    HW219352   0.565   0.388   4.230 -1.4906  0.0732 -0.7647
 5971SOL     OW19353   4.746   6.347   5.740 -0.0111  0.6419 -0.0111
 5971SOL    HW119354   4.793   6.334   5.658 -1.0934  1.7961 -0.8630
 5971SOL    HW219355   4.663   6.301   5.728 -0.2884  1.0488  0.3124
 5972SOL     OW19356   1.728   0.972   0.373 -0.1057 -0.2525  0.1725
 5972SOL    HW119357   1.657   1.032   0.348  2.4353  2.1814 -1.8211
 5972SOL    HW219358   1.800   1.029   0.399  2.3661 -2.3926 -1.4433
 5973SOL     OW19359   1.387   1.735  12.325 -0.1853 -0.2212 -0.0853
 5973SOL    HW119360   1.422   1.659  12.371  1.9790  1.0463  0.5150
 5973SOL    HW219361   1.342   1.698  12.249 -1.5772 -2.2121  1.6094
 5974SOL     OW19362   1.480   1.126   5.599 -0.5682 -0.4275  0.1045
 5974SOL    HW119363   1.388   1.102   5.583 -0.2682 -1.2125 -0.5028
 5974SOL    HW219364   1.529   1.075   5.535  0.5185 -2.1292  2.1666
 5975SOL     OW19365   5.987   6.521   8.771 -0.1184  0.0895 -0.2523
 5975SOL    HW119366   6.052   6.531   8.841  0.5003  0.9234 -0.9253
 5975SOL    HW219367   6.027   6.459   8.711 -0.5016 -0.3650 -0.0399
 5976SOL     OW19368   1.215   7.422  11.059 -0.4519  0.2626  0.0902
 5976SOL    HW119369   1.216   7.343  11.005 -0.6559  0.3430 -0.0329
 5976SOL    HW219370   1.246   7.393  11.145 -3.9914 -0.7958  1.1752
 5977SOL     OW19371   0.517   2.637   7.453  0.0797 -0.1023 -0.2874
 5977SOL    HW119372   0.539   2.687   7.531 -2.6822  0.5765  0.1537
 5977SOL    HW219373   0.559   2.552   7.467  2.4794  1.0838  0.2631
 5978SOL     OW19374   3.964   1.215   3.980 -0.6382  0.1454 -0.1989
 5978SOL    HW119375   4.000   1.229   3.892  1.0784 -1.4691  0.1706
 5978SOL    HW219376   3.875   1.184   3.965 -1.4845  2.7784 -1.2102
 5979SOL     OW19377   0.014   6.021   2.428  0.0024  0.2292 -0.0741
 5979SOL    HW119378  -0.024   6.087   2.370 -1.5638 -0.3934  0.1752
 5979SOL    HW219379  -0.002   5.938   2.383  0.9837 -0.0707  0.1135
 5980SOL     OW19380   0.008   5.835   5.831 -0.3979 -0.0103  0.9943
 5980SOL    HW119381   0.050   5.753   5.857 -0.8564 -0.0310  1.7017
 5980SOL    HW219382  -0.013   5.824   5.739 -2.1737 -1.4660  1.5203
 5981SOL     OW19383   3.617   1.577   4.319  0.1462 -0.2453 -0.5870
 5981SOL    HW119384   3.688   1.519   4.291  0.3811  0.1290 -0.7642
 5981SOL    HW219385   3.549   1.565   4.253 -0.1303 -0.9089 -0.2030
 5982SOL     OW19386   3.157   7.701   7.409 -0.5591 -0.0677 -0.6019
 5982SOL    HW119387   3.159   7.612   7.372 -1.7987  0.0318 -0.9621
 5982SOL    HW219388   3.113   7.754   7.343 -0.9783  0.5469  0.1484
 5983SOL     OW19389   4.177   3.316   0.207 -0.4284  0.4184 -0.1392
 5983SOL    HW119390   4.269   3.318   0.233 -0.6429  1.5909  0.5518
 5983SOL    HW219391   4.129   3.300   0.288 -0.7994 -1.5663 -0.6805
 5984SOL     OW19392   7.198   7.147   2.858  0.1442  0.1476  0.1388
 5984SOL    HW119393   7.229   7.060   2.833 -0.0652 -0.0394  0.5079
 5984SOL    HW219394   7.201   7.147   2.954  0.4243  0.6545  0.1349
 5985SOL     OW19395   1.649   6.930   4.078  0.7644 -0.0490  0.9014
 5985SOL    HW119396   1.723   6.990   4.088 -0.3528  1.5800 -0.0464
 5985SOL    HW219397   1.604   6.934   4.163  0.6642  0.5059  0.8234
 5986SOL     OW19398   6.463   2.085  12.284 -0.5471 -0.5938 -0.4915
 5986SOL    HW119399   6.402   2.078  12.210  0.6479 -1.1678 -1.4538
 5986SOL    HW219400   6.534   2.141  12.252 -0.5816  0.1375  0.6406
 5987SOL     OW19401   6.957   4.291  11.322  0.3806 -0.3624  0.1014
 5987SOL    HW119402   6.909   4.342  11.387  0.2974 -0.9149  0.4841
 5987SOL    HW219403   7.047   4.324  11.327  0.4149 -0.5178  0.6324
 5988SOL     OW19404   0.686   3.420  10.948 -0.2923  0.1643 -0.4646
 5988SOL    HW119405   0.712   3.375  11.028 -0.3007  0.0102 -0.5473
 5988SOL    HW219406   0.680   3.350  10.883 -1.8311  0.0571 -0.2365
 5989SOL     OW19407   7.501   3.768   5.184 -0.5481  0.0841  0.4253
 5989SOL    HW119408   7.515   3.687   5.136  2.1773  0.2880  0.6932
 5989SOL    HW219409   7.538   3.836   5.127 -0.2200  0.7360  1.3882
 5990SOL     OW19410   5.298   4.628  10.795  0.1023 -0.8345  0.1538
 5990SOL    HW119411   5.273   4.614  10.704  2.0179  2.8303 -1.1377
 5990SOL    HW219412   5.246   4.704  10.822  1.0233 -0.6413  1.4471
 5991SOL     OW19413   1.545   7.792  10.294 -0.5820 -0.0989  0.4350
 5991SOL    HW119414   1.566   7.718  10.237  1.0694  0.0966  0.7269
 5991SOL    HW219415   1.566   7.760  10.382 -0.0119  0.6590  0.5779
 5992SOL     OW19416   3.978   0.493   1.662  0.2986  0.0744 -0.4106
 5992SOL    HW119417   3.981   0.563   1.728 -0.5558 -3.6020  3.9710
 5992SOL    HW219418   3.888   0.495   1.630  0.2588  0.8875 -0.2906
 5993SOL     OW19419   6.774   3.455   3.448  0.4015  0.2295 -0.3964
 5993SOL    HW119420   6.714   3.525   3.475 -1.5838 -0.7208 -2.0525
 5993SOL    HW219421   6.831   3.496   3.383  0.1030  0.6100 -0.4212
 5994SOL     OW19422   2.706   3.304   2.841 -0.1747 -0.2403  0.0035
 5994SOL    HW119423   2.798   3.300   2.816  0.2848 -2.1035  1.7162
 5994SOL    HW219424   2.659   3.271   2.764  0.5818  0.2962 -0.7177
 5995SOL     OW19425   2.873   2.568   1.789 -0.3749  0.3673  0.2653
 5995SOL    HW119426   2.941   2.620   1.747 -0.6670 -0.6766 -1.6534
 5995SOL    HW219427   2.906   2.478   1.785 -1.4569 -0.0393  0.1152
 5996SOL     OW19428   2.968   0.583   2.614  0.1296  0.7592 -0.3005
 5996SOL    HW119429   3.050   0.593   2.567  0.8640 -0.3873  0.6685
 5996SOL    HW219430   2.902   0.621   2.557  1.1310  0.3947 -1.7413
 5997SOL     OW19431   7.743   1.754  11.632  0.6235 -0.8836  0.1961
 5997SOL    HW119432   7.740   1.829  11.692 -0.8124 -0.3974 -0.4435
 5997SOL    HW219433   7.834   1.751  11.602  0.2808  2.0411 -1.5269
 5998SOL     OW19434   4.409   4.204   0.769  0.2786  0.0406  0.0092
 5998SOL    HW119435   4.332   4.261   0.769  0.4135  0.2420 -0.8120
 5998SOL    HW219436   4.376   4.119   0.797 -0.4495 -0.1105 -1.2220
 5999SOL     OW19437   1.156   3.392   6.627  0.3264  0.0427 -0.4730
 5999SOL    HW119438   1.184   3.467   6.575  1.8405 -1.3000 -1.6712
 5999SOL    HW219439   1.229   3.330   6.623 -1.1257 -1.7993 -0.1033
 6000SOL     OW19440   1.758   4.982   2.849 -0.5203 -0.1585  0.2135
 6000SOL    HW119441   1.733   5.062   2.895 -0.6422 -0.2718  0.3449
 6000SOL    HW219442   1.702   4.980   2.771 -0.2240  0.0992 -0.0078
 6001SOL     OW19443   7.090   5.320  10.444 -0.3230  0.8074 -0.0765
 6001SOL    HW119444   7.149   5.391  10.470  0.4946 -0.0740  0.5319
 6001SOL    HW219445   7.071   5.336  10.352 -0.5174  2.0626  0.1676
 6002SOL     OW19446   7.038   1.617   1.497  0.2537  0.2527 -0.5389
 6002SOL    HW119447   7.064   1.705   1.470  0.9811 -0.1125 -1.0711
 6002SOL    HW219448   7.020   1.571   1.415  0.5841 -0.3093 -0.3013
 6003SOL     OW19449   1.827   2.590  11.258 -0.0509 -0.3077 -0.5098
 6003SOL    HW119450   1.741   2.578  11.217 -0.9178  1.3117  0.7300
 6003SOL    HW219451   1.832   2.684  11.275  3.1706  0.1612 -3.0626
 6004SOL     OW19452   6.562   2.904   7.589  0.4182 -0.2219 -0.0550
 6004SOL    HW119453   6.619   2.927   7.515 -0.7799 -0.1709 -0.9833
 6004SOL    HW219454   6.501   2.839   7.553 -1.0483  0.8111  0.5129
 6005SOL     OW19455   4.995   7.398   8.515 -0.5197 -0.7223  0.4504
 6005SOL    HW119456   5.015   7.306   8.531  1.4572 -0.6227 -1.0052
 6005SOL    HW219457   5.030   7.444   8.591 -0.5528 -1.0857  0.6872
 6006SOL     OW19458   1.730   6.560  10.097 -0.1822 -0.3418  0.2207
 6006SOL    HW119459   1.662   6.626  10.112 -0.1111 -0.3122  0.4134
 6006SOL    HW219460   1.683   6.477  10.092 -0.5270 -0.0786 -2.0364
 6007SOL     OW19461   4.269   6.967   7.139  0.7042  0.3233 -0.3149
 6007SOL    HW119462   4.185   6.997   7.104  0.7569  0.4400 -0.3409
 6007SOL    HW219463   4.256   6.874   7.155  0.7574  0.2102 -0.8911
 6008SOL     OW19464   5.388   1.000   2.184  0.7156  0.0768 -0.8110
 6008SOL    HW119465   5.455   0.933   2.169 -0.0832 -0.9225 -0.0708
 6008SOL    HW219466   5.381   1.047   2.101  1.5387 -0.5373 -1.2393
 6009SOL     OW19467   3.615   6.274   5.895  0.6448 -0.4487 -0.4717
 6009SOL    HW119468   3.531   6.228   5.886  0.3154 -0.0441  0.4633
 6009SOL    HW219469   3.681   6.204   5.894  0.3314 -0.7473 -1.5086
 6010SOL     OW19470   5.178   7.056   3.541  0.4401  0.2450 -0.3257
 6010SOL    HW119471   5.154   7.075   3.450 -1.1314 -1.0362 -0.2470
 6010SOL    HW219472   5.094   7.041   3.584  1.2511 -1.3732  0.7917
 6011SOL     OW19473   4.701   7.203   9.309 -0.5513 -0.2189  0.5559
 6011SOL    HW119474   4.664   7.237   9.228 -0.7707  1.1346  1.1840
 6011SOL    HW219475   4.658   7.255   9.378  1.7886  0.7598  1.3651
 6012SOL     OW19476   0.643   1.921   3.556 -0.0021  0.4793 -0.2754
 6012SOL    HW119477   0.560   1.875   3.545  0.0359 -0.0029  1.2066
 6012SOL    HW219478   0.703   1.876   3.497 -0.6501  0.4868 -0.9614
 6013SOL     OW19479   6.760   5.144  11.414 -0.0038 -0.3115 -0.0623
 6013SOL    HW119480   6.675   5.182  11.439  0.9683  0.7217  1.9176
 6013SOL    HW219481   6.739   5.055  11.387 -2.0668  0.7765 -2.5078
 6014SOL     OW19482   4.064   7.412   8.977 -0.8051 -1.0314  0.0233
 6014SOL    HW119483   4.067   7.496   8.932  1.5085  0.1516  2.1244
 6014SOL    HW219484   3.983   7.415   9.028 -0.6588  0.0144  0.2128
 6015SOL     OW19485   6.853   2.061   7.106 -0.1456  0.3414 -0.0808
 6015SOL    HW119486   6.761   2.064   7.135  0.2782 -0.1693  1.3832
 6015SOL    HW219487   6.850   2.091   7.015 -1.6633  1.0823  0.1834
 6016SOL     OW19488   5.969   6.598   9.624  0.1761  0.1933  0.4327
 6016SOL    HW119489   5.968   6.687   9.659 -1.3364  0.5328 -0.4171
 6016SOL    HW219490   5.910   6.601   9.549  3.0241 -0.5860 -2.0130
 6017SOL     OW19491   6.212   7.836   6.533 -0.1274  0.4935  0.0990
 6017SOL    HW119492   6.151   7.877   6.471 -3.1045 -0.7948  1.9882
 6017SOL    HW219493   6.223   7.747   6.501  1.5722  0.9207 -0.6742
 6018SOL     OW19494   5.712   6.569   1.253  0.4015  0.7537  0.3004
 6018SOL    HW119495   5.720   6.658   1.287  2.0677  0.7894 -0.0765
 6018SOL    HW219496   5.799   6.549   1.219 -0.6265 -0.0277 -2.0789
 6019SOL     OW19497   2.774   7.807   5.840  0.0300 -0.3941  0.4249
 6019SOL    HW119498   2.726   7.889   5.853 -0.2749 -0.8610  2.5673
 6019SOL    HW219499   2.740   7.773   5.758  0.0910  1.5640 -0.4771
 6020SOL     OW19500   3.323   3.582   4.841  0.2279 -0.3296  0.4077
 6020SOL    HW119501   3.399   3.589   4.898  1.8056 -2.7235 -1.2034
 6020SOL    HW219502   3.273   3.661   4.858  3.7518  2.0986  0.5794
 6021SOL     OW19503   2.475   2.168   8.249  0.2620  0.3414 -0.6244
 6021SOL    HW119504   2.422   2.229   8.198 -0.5892  0.3517  0.2222
 6021SOL    HW219505   2.564   2.179   8.217 -0.5151 -1.2345 -3.6488
 6022SOL     OW19506   2.083   5.607   4.405 -0.3821 -0.1545 -0.2065
 6022SOL    HW119507   2.008   5.614   4.464  0.6660  0.0839  1.1574
 6022SOL    HW219508   2.101   5.697   4.379 -0.7831 -0.2499 -0.8361
 6023SOL     OW19509   0.737   5.747   8.968  0.2024  0.0721  0.1079
 6023SOL    HW119510   0.667   5.809   8.988  0.1859 -0.2099  0.9855
 6023SOL    HW219511   0.792   5.747   9.047  0.9039 -0.0943 -0.3677
 6024SOL     OW19512   1.917   1.399   5.786  0.1234  0.4332  0.0630
 6024SOL    HW119513   1.863   1.420   5.709 -0.2504 -0.6697  0.0089
 6024SOL    HW219514   1.854   1.373   5.853  0.5202  0.3257  0.3961
 6025SOL     OW19515   5.343   1.631   5.625 -0.3980  0.3409 -0.6092
 6025SOL    HW119516   5.287   1.613   5.550 -0.4833 -0.1184 -0.4359
 6025SOL    HW219517   5.344   1.727   5.632 -0.5966  0.3759 -1.0357
 6026SOL     OW19518   2.872   0.692   0.592  0.0453 -0.7020  0.2031
 6026SOL    HW119519   2.882   0.686   0.687 -0.6043 -1.7983  0.2107
 6026SOL    HW219520   2.962   0.699   0.559  0.2258  1.3665  0.9762
 6027SOL     OW19521   2.162   4.385  10.423  0.5210 -0.1216 -0.4397
 6027SOL    HW119522   2.210   4.302  10.423  2.6994  1.0520  0.6492
 6027SOL    HW219523   2.103   4.378  10.498  1.9067 -0.1035  0.7029
 6028SOL     OW19524   1.026   5.904   8.416  0.1734 -0.3143 -0.0482
 6028SOL    HW119525   1.053   5.995   8.412  1.0259 -0.5854 -0.7643
 6028SOL    HW219526   1.044   5.870   8.328 -0.6887 -1.0177  0.0348
 6029SOL     OW19527   1.656   0.196   4.592  0.2566 -0.1339  0.3861
 6029SOL    HW119528   1.701   0.278   4.575 -2.1247  1.4255  1.1367
 6029SOL    HW219529   1.653   0.189   4.687 -0.0409 -0.8171  0.3347
 6030SOL     OW19530   7.140   1.321   0.649  0.0797 -0.2363 -0.2898
 6030SOL    HW119531   7.092   1.242   0.624  0.0294 -0.4542  0.4902
 6030SOL    HW219532   7.171   1.304   0.737  0.3123  0.5038 -0.2226
 6031SOL     OW19533   6.451   5.063   0.837 -0.3689  0.1485  0.4025
 6031SOL    HW119534   6.377   5.002   0.839 -0.2359 -0.3581 -3.0777
 6031SOL    HW219535   6.415   5.143   0.799  0.2512  1.0109  1.5827
 6032SOL     OW19536   6.517   3.035   0.685 -0.5595 -0.2350 -0.1416
 6032SOL    HW119537   6.557   2.955   0.649 -0.9482 -0.0512 -0.9956
 6032SOL    HW219538   6.493   3.087   0.608 -0.0933  0.8199  0.4057
 6033SOL     OW19539   1.359   1.631   4.336  0.0257  0.0974  0.0309
 6033SOL    HW119540   1.276   1.628   4.290 -0.4033 -0.5285  0.8234
 6033SOL    HW219541   1.336   1.663   4.424  0.1211 -2.9599  1.2649
 6034SOL     OW19542   1.344   2.502   2.280  0.1375  0.4420 -0.0680
 6034SOL    HW119543   1.392   2.432   2.236 -1.3713 -0.6775 -0.0466
 6034SOL    HW219544   1.393   2.582   2.261  1.0112 -0.3897 -1.4804
 6035SOL     OW19545   0.414   1.101   1.411 -0.0426 -0.5654  0.5194
 6035SOL    HW119546   0.380   1.021   1.372 -2.6188  0.9590 -0.6974
 6035SOL    HW219547   0.489   1.126   1.357  0.0628 -1.5405  0.2145
 6036SOL     OW19548   5.278   2.844   2.837  0.6141  0.0700 -0.7267
 6036SOL    HW119549   5.227   2.916   2.875  0.2457 -0.8426  0.5943
 6036SOL    HW219550   5.271   2.857   2.742  0.2321  1.5392 -0.5249
 6037SOL     OW19551   4.662   6.376   4.332 -0.2171 -0.2313 -0.3061
 6037SOL    HW119552   4.593   6.341   4.387  0.1864  0.1650  0.4718
 6037SOL    HW219553   4.741   6.373   4.386  0.2801 -0.2134 -1.0011
 6038SOL     OW19554   5.825   1.290   1.542  0.0437 -0.9982  0.9028
 6038SOL    HW119555   5.911   1.326   1.563 -0.2244  0.0783  0.2042
 6038SOL    HW219556   5.800   1.333   1.460 -1.1878 -1.2546  1.1277
 6039SOL     OW19557   3.717   5.587  12.438 -0.0245  0.2305 -0.2575
 6039SOL    HW119558   3.793   5.631  12.402  0.3385 -0.6345 -0.5897
 6039SOL    HW219559   3.651   5.592  12.369 -0.2461  0.9021 -0.0036
 6040SOL     OW19560   6.492   3.208   5.738 -0.3732 -0.5794 -0.6903
 6040SOL    HW119561   6.406   3.245   5.758 -0.1770  0.0769 -1.0445
 6040SOL    HW219562   6.522   3.257   5.662  1.2653  0.7549  0.7358
 6041SOL     OW19563   6.794   6.808   6.879  0.3164  0.1347  0.3743
 6041SOL    HW119564   6.867   6.765   6.923  0.6260  0.9348  0.6658
 6041SOL    HW219565   6.829   6.835   6.794 -0.2795 -1.4089 -0.4200
 6042SOL     OW19566   2.417   2.681   6.447 -0.1187  0.4551  0.5338
 6042SOL    HW119567   2.466   2.627   6.509 -0.2039  1.2075  1.2761
 6042SOL    HW219568   2.479   2.703   6.379 -0.0777 -0.5614  0.2281
 6043SOL     OW19569   0.015   0.440   5.610  0.5680 -0.6516 -0.6687
 6043SOL    HW119570   0.046   0.405   5.527  2.3240 -0.6122 -0.0838
 6043SOL    HW219571   0.027   0.368   5.672 -1.8513 -1.0951 -0.6083
 6044SOL     OW19572   7.505   2.997   1.597 -0.6005  0.1111 -0.1041
 6044SOL    HW119573   7.519   3.019   1.505  0.5555  1.6796  0.4034
 6044SOL    HW219574   7.523   3.078   1.644 -1.6024 -0.5455  1.4838
 6045SOL     OW19575   3.027   4.039   3.925 -0.4062  0.2177  0.1569
 6045SOL    HW119576   3.030   4.016   3.832  0.8028 -0.8795  0.4350
 6045SOL    HW219577   3.075   3.969   3.969  0.4176  1.5232  1.4491
 6046SOL     OW19578   7.126   4.840   3.848 -0.6343  0.2347  0.3451
 6046SOL    HW119579   7.200   4.813   3.794 -0.9260  0.0167  0.0454
 6046SOL    HW219580   7.049   4.808   3.800 -0.8557 -1.0883  1.4996
 6047SOL     OW19581   2.656   1.726   2.296 -0.1042  0.4589  0.3893
 6047SOL    HW119582   2.726   1.691   2.241 -0.3400 -0.8932  0.9179
 6047SOL    HW219583   2.660   1.821   2.282  1.1722  0.3187 -0.3617
 6048SOL     OW19584   3.310   5.691   4.387  0.4832 -0.6755 -0.1887
 6048SOL    HW119585   3.364   5.685   4.308  0.2273 -0.1347 -0.4071
 6048SOL    HW219586   3.227   5.650   4.362  0.7220 -1.3397  0.0899
 6049SOL     OW19587   2.634   6.327  11.624 -0.1426 -0.2502 -0.0054
 6049SOL    HW119588   2.712   6.380  11.612 -0.4423  0.5061  1.2033
 6049SOL    HW219589   2.562   6.390  11.618 -0.6211 -0.8205 -0.3640
 6050SOL     OW19590   2.887   0.764   3.455 -0.2784 -0.0504  0.0512
 6050SOL    HW119591   2.836   0.699   3.502 -0.7708  1.7838  2.2432
 6050SOL    HW219592   2.905   0.832   3.520 -0.6324  2.4843 -2.3006
 6051SOL     OW19593   0.331   1.429   9.961 -0.2178 -0.0610  0.0501
 6051SOL    HW119594   0.378   1.350   9.935 -0.5212 -0.6554  1.2733
 6051SOL    HW219595   0.398   1.486   9.999 -0.2922 -0.4762  0.8210
 6052SOL     OW19596   2.197   7.120   1.636  0.5359 -0.0643  0.1950
 6052SOL    HW119597   2.247   7.137   1.556 -1.0302  2.2906 -0.4229
 6052SOL    HW219598   2.263   7.102   1.703  1.9360 -1.1329 -1.4045
 6053SOL     OW19599   5.657   4.410   4.806 -0.0763  0.0650 -0.1400
 6053SOL    HW119600   5.566   4.420   4.778  0.2040  0.9729 -0.7792
 6053SOL    HW219601   5.653   4.350   4.881 -1.0798 -0.7187 -0.7880
 6054SOL     OW19602   3.171   7.419   4.939 -0.1039  0.1940  0.3187
 6054SOL    HW119603   3.200   7.509   4.950  1.5190 -0.2167 -0.4221
 6054SOL    HW219604   3.203   7.374   5.018  1.2931 -0.2403 -0.4609
 6055SOL     OW19605   3.134   0.405   2.335 -0.6160 -0.5658  0.2687
 6055SOL    HW119606   3.214   0.456   2.322 -0.1828 -0.7601  1.9747
 6055SOL    HW219607   3.076   0.436   2.266  0.7180 -0.0019 -0.6620
 6056SOL     OW19608   2.841   1.737   7.938  0.4159 -0.3181 -0.0282
 6056SOL    HW119609   2.829   1.794   7.863 -2.3414  2.2149  2.0987
 6056SOL    HW219610   2.815   1.650   7.906 -2.3419  0.9584 -1.6726
 6057SOL     OW19611   2.214   4.737  12.056  0.4338  0.3082 -0.2513
 6057SOL    HW119612   2.285   4.754  11.994  1.1438 -0.3255  0.3765
 6057SOL    HW219613   2.207   4.641  12.058  0.7778  0.2929  1.0297
 6058SOL     OW19614   1.825   3.779   4.840  0.0944 -0.2091  0.0272
 6058SOL    HW119615   1.770   3.735   4.905  0.9809 -2.9350 -0.9392
 6058SOL    HW219616   1.912   3.780   4.879 -0.0154  1.4435  0.3205
 6059SOL     OW19617   2.658   6.429   5.227  0.4447  0.1638 -0.5959
 6059SOL    HW119618   2.719   6.467   5.163  0.4661  2.4124  0.6471
 6059SOL    HW219619   2.624   6.504   5.275 -0.0628 -1.3821  1.6096
 6060SOL     OW19620   1.329   4.130   3.811  0.0182 -0.1574  0.2660
 6060SOL    HW119621   1.410   4.079   3.809  0.0779 -0.0695 -1.9086
 6060SOL    HW219622   1.260   4.065   3.828  0.3548 -0.5690  0.0877
 6061SOL     OW19623   3.339   4.675   9.995 -0.1970  0.0336 -0.3408
 6061SOL    HW119624   3.365   4.586   9.967  0.4556  0.0145  0.2857
 6061SOL    HW219625   3.247   4.681   9.971 -0.1447 -0.6627 -0.7789
 6062SOL     OW19626   1.720   5.488   3.043 -0.3940  0.0221 -0.1589
 6062SOL    HW119627   1.722   5.410   2.987 -0.9490 -0.7734  0.8758
 6062SOL    HW219628   1.702   5.560   2.983  2.2305 -0.2958 -1.4561
 6063SOL     OW19629   7.181   6.326  10.809  0.1281 -0.5374 -0.0681
 6063SOL    HW119630   7.186   6.230  10.808 -1.1289 -0.6063 -0.7382
 6063SOL    HW219631   7.090   6.346  10.789  0.0318  0.7954  1.4731
 6064SOL     OW19632   3.829   0.492  11.275  0.4744 -0.9373 -0.0124
 6064SOL    HW119633   3.821   0.581  11.240 -0.7928 -1.0032  0.0401
 6064SOL    HW219634   3.889   0.500  11.349 -1.3486  0.3417  1.4005
 6065SOL     OW19635   0.590   7.210   9.847  0.2450  0.1166 -0.1111
 6065SOL    HW119636   0.506   7.254   9.831  0.5729  0.1529 -1.8258
 6065SOL    HW219637   0.645   7.234   9.772  0.7539 -2.4806 -0.6466
 6066SOL     OW19638   1.585   1.783   5.189 -0.1098  0.2268 -1.3299
 6066SOL    HW119639   1.533   1.858   5.219 -1.1527 -1.3568  1.1558
 6066SOL    HW219640   1.556   1.768   5.099 -1.1284  1.7511 -1.2919
 6067SOL     OW19641   1.739   5.687  10.208  0.0610  0.1207 -0.4268
 6067SOL    HW119642   1.736   5.698  10.113  0.0418  0.2371 -0.4127
 6067SOL    HW219643   1.647   5.687  10.235  0.0148 -1.1326 -0.5446
 6068SOL     OW19644   6.709   3.085   1.371 -0.6835  0.7324 -0.5750
 6068SOL    HW119645   6.788   3.041   1.339  0.1585  1.0151  1.0193
 6068SOL    HW219646   6.723   3.178   1.350 -0.6555  0.7633 -0.4211
 6069SOL     OW19647   4.526   0.968  12.100  1.0170 -0.0632 -0.0152
 6069SOL    HW119648   4.551   0.880  12.129  1.6488  0.2658  0.4534
 6069SOL    HW219649   4.449   0.989  12.153  0.8253 -0.3572 -0.1742
 6070SOL     OW19650   1.974   4.558   2.254  0.1474 -0.0096 -0.0176
 6070SOL    HW119651   1.928   4.505   2.320 -1.9504  2.8912  1.0820
 6070SOL    HW219652   2.031   4.616   2.306  2.0465 -0.8033 -1.1385
 6071SOL     OW19653   2.462   6.059   8.689  0.3138  0.3380 -0.2096
 6071SOL    HW119654   2.460   6.109   8.608  2.0281  0.3954 -0.2402
 6071SOL    HW219655   2.551   6.026   8.696 -0.0244 -0.3954  1.2252
 6072SOL     OW19656   0.888   5.901  11.334  0.5011 -0.1169  0.2839
 6072SOL    HW119657   0.899   5.845  11.257 -0.9633  1.3180 -1.0538
 6072SOL    HW219658   0.847   5.844  11.399  0.8549 -1.1103 -0.3451
 6073SOL     OW19659   4.244   2.572   8.731  0.0530 -0.2349 -0.4386
 6073SOL    HW119660   4.259   2.630   8.657 -2.1131  1.5633  0.3945
 6073SOL    HW219661   4.310   2.597   8.796  0.9781 -0.7595 -1.1586
 6074SOL     OW19662   7.120   7.729   4.865  0.0533  0.0740  0.0408
 6074SOL    HW119663   7.102   7.648   4.912  0.9218 -0.5277 -0.6291
 6074SOL    HW219664   7.199   7.764   4.905  0.6614 -0.3176 -0.7804
 6075SOL     OW19665   4.452   4.715   6.468  0.0652 -0.0268  0.6892
 6075SOL    HW119666   4.450   4.760   6.552  1.1447 -0.2833  0.8683
 6075SOL    HW219667   4.545   4.713   6.444 -0.1668 -0.4743 -0.2289
 6076SOL     OW19668   3.317   7.632   1.424 -0.5593 -0.3065  0.2623
 6076SOL    HW119669   3.371   7.666   1.353 -0.0225  0.6456  1.1161
 6076SOL    HW219670   3.310   7.704   1.486 -0.8183 -1.2035  1.3021
 6077SOL     OW19671   6.646   7.862   5.195 -0.2405  0.1692  0.1640
 6077SOL    HW119672   6.708   7.836   5.127 -0.2379  2.2130 -0.6803
 6077SOL    HW219673   6.599   7.782   5.217  3.2066 -1.7165  1.4279
 6078SOL     OW19674   2.619   1.619   1.648 -0.1566  0.3192 -0.4748
 6078SOL    HW119675   2.601   1.695   1.704 -1.0829 -0.7959  0.7978
 6078SOL    HW219676   2.714   1.614   1.643 -0.0754  1.0030  0.2124
 6079SOL     OW19677   5.676   6.306   9.607 -0.1844 -0.6146  0.1311
 6079SOL    HW119678   5.637   6.338   9.688 -0.0152 -0.3206  0.0987
 6079SOL    HW219679   5.602   6.282   9.552 -0.3208 -0.1797  0.1189
 6080SOL     OW19680   5.368   4.073   2.194  0.0705  0.2341 -0.4364
 6080SOL    HW119681   5.279   4.085   2.228  0.0575 -0.8748 -0.0123
 6080SOL    HW219682   5.360   3.998   2.135  0.6427  0.3867 -0.7053
 6081SOL     OW19683   6.301   7.851   5.680  0.0732  0.0778  0.6817
 6081SOL    HW119684   6.364   7.875   5.748  0.7988  0.0010  0.0404
 6081SOL    HW219685   6.216   7.870   5.719  0.5042  0.5497  1.4108
 6082SOL     OW19686   3.331   3.996   7.334  0.2934  0.1956  0.6382
 6082SOL    HW119687   3.338   4.081   7.289  0.7157  0.0302  0.3870
 6082SOL    HW219688   3.300   4.019   7.422  0.8102  0.6588  0.7106
 6083SOL     OW19689   0.299   6.313   1.453  0.0597  0.9765  0.0619
 6083SOL    HW119690   0.311   6.274   1.540 -0.7463  0.1214 -0.1786
 6083SOL    HW219691   0.309   6.239   1.392  0.7341  1.5860 -0.5845
 6084SOL     OW19692   5.017   4.348  10.126  0.5951 -0.2182  0.2462
 6084SOL    HW119693   4.997   4.272  10.071  1.0874 -0.4687  0.4053
 6084SOL    HW219694   4.964   4.335  10.205  1.8670 -1.2389  0.9662
 6085SOL     OW19695   0.036   3.476   9.247  0.4221 -0.3221  0.2710
 6085SOL    HW119696   0.109   3.486   9.186  1.4183 -2.9273  0.9468
 6085SOL    HW219697   0.043   3.387   9.280 -1.9293 -0.0133  1.8736
 6086SOL     OW19698   4.683   6.718  11.145 -0.1255  0.0771  0.2407
 6086SOL    HW119699   4.700   6.714  11.050 -1.3031 -1.8200  0.0497
 6086SOL    HW219700   4.714   6.633  11.178 -0.7763  0.2626  1.3662
 6087SOL     OW19701   2.202   4.730   6.414  0.6417  0.4781 -0.7385
 6087SOL    HW119702   2.214   4.724   6.319  1.7972 -0.1432 -0.5614
 6087SOL    HW219703   2.289   4.746   6.449  0.3492 -0.0542  0.2785
 6088SOL     OW19704   7.890   2.310   6.415  0.6197  0.6199  0.7458
 6088SOL    HW119705   7.880   2.225   6.373  0.3816  1.1254 -0.2700
 6088SOL    HW219706   7.811   2.321   6.467 -1.2765  1.8022 -2.1094
 6089SOL     OW19707   3.190   2.330  12.226  0.3160 -0.5639  0.2127
 6089SOL    HW119708   3.144   2.250  12.202 -0.5033  0.0990 -0.5100
 6089SOL    HW219709   3.183   2.386  12.149  0.4891  0.3695  0.8543
 6090SOL     OW19710   5.393   2.623   8.865  0.4566  0.0243  0.3634
 6090SOL    HW119711   5.488   2.624   8.854  0.3536  1.1700 -0.7315
 6090SOL    HW219712   5.376   2.688   8.933  0.5567 -1.6217  2.0449
 6091SOL     OW19713   7.257   5.581   6.927 -0.6846  0.1863  0.3303
 6091SOL    HW119714   7.185   5.551   6.983 -1.1177  0.2725 -0.1710
 6091SOL    HW219715   7.225   5.568   6.838 -0.3663  0.9235  0.1014
 6092SOL     OW19716   4.850   7.241   4.639  0.4032 -0.1552 -0.0152
 6092SOL    HW119717   4.906   7.268   4.713 -0.3076 -0.3752  0.6182
 6092SOL    HW219718   4.892   7.279   4.562  0.4503  1.1778  0.6425
 6093SOL     OW19719   6.363   7.033  10.849 -0.5256 -0.0345  0.3979
 6093SOL    HW119720   6.297   7.097  10.875  0.1855  0.6415  0.5514
 6093SOL    HW219721   6.356   6.964  10.915  0.0880  0.8473  1.4082
 6094SOL     OW19722   0.860   0.724   9.371 -0.1858  0.1082  0.6751
 6094SOL    HW119723   0.779   0.689   9.408 -0.4954  1.1385  0.9997
 6094SOL    HW219724   0.907   0.760   9.446 -0.4036  1.4079  0.2123
 6095SOL     OW19725   0.532   4.006   2.453  0.6340 -0.1494  0.8842
 6095SOL    HW119726   0.572   4.092   2.469  1.3214 -0.6038  1.6544
 6095SOL    HW219727   0.449   4.026   2.410  1.1775  0.8660  0.2682
 6096SOL     OW19728   7.273   1.070   4.257 -0.3701 -0.3700 -0.7718
 6096SOL    HW119729   7.219   1.063   4.336 -2.2659 -0.2473 -1.9754
 6096SOL    HW219730   7.271   0.983   4.218 -0.0240 -0.2711 -1.0129
 6097SOL     OW19731   5.246   0.034  11.280 -0.9455 -0.2710  0.1018
 6097SOL    HW119732   5.168  -0.016  11.257 -0.2777 -1.8735  1.1934
 6097SOL    HW219733   5.270   0.003  11.367  2.0613 -1.2929 -0.9842
 6098SOL     OW19734   1.960   2.187   6.709 -0.4617 -0.2915  0.1405
 6098SOL    HW119735   1.911   2.121   6.757 -2.0581  0.6958 -0.0365
 6098SOL    HW219736   1.892   2.242   6.668  0.7976  1.0970 -0.1806
 6099SOL     OW19737   6.571   4.666   3.110 -0.5337  0.2552  0.6015
 6099SOL    HW119738   6.591   4.751   3.070 -0.4476  0.4039  0.9541
 6099SOL    HW219739   6.583   4.603   3.039 -2.0460  0.6736 -0.0659
 6100SOL     OW19740   6.641   3.157   2.316  0.1385 -0.2829  0.8320
 6100SOL    HW119741   6.610   3.201   2.395 -0.2274 -1.0697  1.1384
 6100SOL    HW219742   6.708   3.215   2.281 -1.3085  1.2274  0.4287
 6101SOL     OW19743   3.303   6.807   6.457 -0.1075 -0.4412 -0.0156
 6101SOL    HW119744   3.378   6.780   6.404 -1.6814 -1.9062 -1.6327
 6101SOL    HW219745   3.320   6.768   6.543  1.0557 -0.6189 -0.3088
 6102SOL     OW19746   7.348   3.747   3.244  0.5297 -0.2031 -0.0979
 6102SOL    HW119747   7.367   3.674   3.185  0.3725 -1.0991  0.9365
 6102SOL    HW219748   7.419   3.746   3.308  0.7444  0.8153 -0.3001
 6103SOL     OW19749   7.397   6.019  10.068 -0.2143 -0.7331 -0.3049
 6103SOL    HW119750   7.379   5.925  10.069  0.1368 -0.9112  3.6823
 6103SOL    HW219751   7.311   6.059  10.052 -0.7555 -1.7033  0.0866
 6104SOL     OW19752   6.239   6.582   2.336 -0.2268 -0.5618  0.1075
 6104SOL    HW119753   6.331   6.592   2.360  0.0396  0.9875 -1.3812
 6104SOL    HW219754   6.238   6.506   2.278 -0.1633 -1.5208  1.3216
 6105SOL     OW19755   5.599   6.681  11.265 -0.1570 -0.0123 -0.0493
 6105SOL    HW119756   5.569   6.772  11.264 -1.2922 -0.2474 -4.5314
 6105SOL    HW219757   5.678   6.681  11.212 -0.2972 -1.7019 -0.2992
 6106SOL     OW19758   4.229   7.345   2.328  0.0261  0.4192  0.1843
 6106SOL    HW119759   4.242   7.254   2.299 -0.2837  0.9553 -1.7702
 6106SOL    HW219760   4.291   7.396   2.276 -1.6989  1.6316 -0.7917
 6107SOL     OW19761   1.807   4.015   3.827 -0.7049 -0.1882 -0.2820
 6107SOL    HW119762   1.851   4.034   3.744 -1.0263  2.3505  0.0714
 6107SOL    HW219763   1.868   3.957   3.873  1.0309  1.0479 -0.9300
 6108SOL     OW19764   2.350   7.206  10.288  0.7145 -0.3860 -0.1200
 6108SOL    HW119765   2.330   7.149  10.213  2.5694  0.7838 -1.6052
 6108SOL    HW219766   2.401   7.152  10.347 -0.0576 -1.0916 -0.0841
 6109SOL     OW19767   1.209   3.054   1.125 -0.4181 -0.5143 -0.5101
 6109SOL    HW119768   1.213   2.982   1.188 -0.8406 -0.5544 -0.5265
 6109SOL    HW219769   1.189   3.011   1.042  0.1480 -0.4623 -0.6727
 6110SOL     OW19770   6.650   5.896   3.122 -0.0403  0.6077 -0.5250
 6110SOL    HW119771   6.675   5.987   3.140  1.8317  0.2038 -0.7924
 6110SOL    HW219772   6.578   5.902   3.059  1.1423  1.9207 -1.8229
 6111SOL     OW19773   6.416   1.743   4.534 -0.5295  0.0148 -0.0010
 6111SOL    HW119774   6.482   1.743   4.603 -0.7225  1.3375  0.2108
 6111SOL    HW219775   6.425   1.658   4.492  0.0277 -0.5585  1.2380
 6112SOL     OW19776   7.178   7.305   5.746  0.6927  0.0047  0.0309
 6112SOL    HW119777   7.260   7.259   5.761  0.5622 -0.5342 -0.8162
 6112SOL    HW219778   7.112   7.252   5.791  0.5499 -0.6481 -0.8998
 6113SOL     OW19779   5.968   7.245  12.331 -0.2485 -0.0415  0.3764
 6113SOL    HW119780   5.977   7.164  12.280 -0.3554 -0.6851  1.3573
 6113SOL    HW219781   5.978   7.218  12.422  0.0429  1.1107  0.7059
 6114SOL     OW19782   7.557   3.457   3.456 -0.5779  0.1727 -0.0126
 6114SOL    HW119783   7.507   3.455   3.538  1.5706  0.5228  1.3699
 6114SOL    HW219784   7.602   3.542   3.458  1.7223 -0.9822 -0.1384
 6115SOL     OW19785   7.774   5.578  11.491 -0.1877  0.1074 -0.4277
 6115SOL    HW119786   7.723   5.646  11.535  0.3751  0.6744 -0.6462
 6115SOL    HW219787   7.714   5.504  11.486 -1.1402  0.8929 -1.0457
 6116SOL     OW19788   3.188   0.275   1.600 -0.2169 -0.5678  0.0836
 6116SOL    HW119789   3.248   0.256   1.528 -0.5465  0.7707 -0.5669
 6116SOL    HW219790   3.173   0.190   1.642  4.1564 -0.6890  1.9265
 6117SOL     OW19791   6.419   4.632   2.802  0.4548  0.2540 -0.1952
 6117SOL    HW119792   6.411   4.561   2.865  1.2024  0.7177  0.4453
 6117SOL    HW219793   6.425   4.711   2.856 -0.0658  0.7776 -0.8836
 6118SOL     OW19794   2.311   7.075   0.240  0.1229 -0.3057  1.3256
 6118SOL    HW119795   2.321   7.072   0.335  0.5030  1.3915  1.3641
 6118SOL    HW219796   2.400   7.068   0.206  0.0583 -0.1615  1.1222
 6119SOL     OW19797   4.730   7.944   9.660  0.5530  0.2172  0.0682
 6119SOL    HW119798   4.740   8.004   9.734  2.7821  0.1759 -0.1276
 6119SOL    HW219799   4.714   7.859   9.699 -0.6720  0.5867  0.4067
 6120SOL     OW19800   0.663   0.862   3.873  0.0364 -0.1274 -0.1794
 6120SOL    HW119801   0.660   0.802   3.948 -0.8416  0.5558  0.3453
 6120SOL    HW219802   0.731   0.926   3.897  0.5132 -0.5221 -0.4526
 6121SOL     OW19803   2.688   3.580   1.950 -0.5261  0.2003 -0.4273
 6121SOL    HW119804   2.607   3.608   1.992  0.1197  3.5394 -1.1306
 6121SOL    HW219805   2.663   3.562   1.860 -0.4771  1.5421 -0.7256
 6122SOL     OW19806   7.514   6.707   9.926 -0.4097  0.2958 -0.0077
 6122SOL    HW119807   7.482   6.643   9.990 -1.2223  0.5459 -0.1457
 6122SOL    HW219808   7.453   6.699   9.852  0.8360 -0.3767 -0.9928
 6123SOL     OW19809   4.945   0.768   2.031 -0.1224 -0.7888  0.2755
 6123SOL    HW119810   4.989   0.841   1.987 -2.1241  0.7246  0.6361
 6123SOL    HW219811   4.906   0.717   1.960 -0.1860 -0.5057  0.1053
 6124SOL     OW19812   1.889   0.235   6.538 -0.1684 -0.9788  0.0494
 6124SOL    HW119813   1.891   0.143   6.564 -0.1189 -1.2311 -0.7988
 6124SOL    HW219814   1.884   0.283   6.620  0.8172 -1.6975  0.5553
 6125SOL     OW19815   3.611   1.969   9.277 -0.5893 -0.4092  0.4274
 6125SOL    HW119816   3.641   2.034   9.340 -0.7390 -0.0445  0.1256
 6125SOL    HW219817   3.627   2.009   9.191 -0.8647 -0.6865  0.2437
 6126SOL     OW19818   6.894   2.979   8.212  0.3413  0.0017 -0.7009
 6126SOL    HW119819   6.921   2.890   8.231  0.8801 -0.3943 -2.9940
 6126SOL    HW219820   6.804   2.985   8.244  0.3947 -1.2659 -0.2785
 6127SOL     OW19821   6.248   4.052   7.536 -0.5069 -0.2451  0.2123
 6127SOL    HW119822   6.164   4.017   7.566 -0.4302 -0.0801  0.6242
 6127SOL    HW219823   6.272   4.117   7.603 -0.9335  1.0328 -0.8200
 6128SOL     OW19824   5.383   3.470   0.561 -0.1210  0.3791 -0.2104
 6128SOL    HW119825   5.370   3.379   0.588  1.6112  0.1537 -0.0265
 6128SOL    HW219826   5.349   3.473   0.472 -1.5425 -0.0541  0.2812
 6129SOL     OW19827   7.666   5.910   5.724  0.0177 -0.1494 -0.2287
 6129SOL    HW119828   7.658   6.000   5.754 -0.6685 -0.6124  1.0967
 6129SOL    HW219829   7.760   5.892   5.726  0.2699  0.8565 -1.6092
 6130SOL     OW19830   0.648   5.283  11.713 -0.2337  0.0030 -0.1771
 6130SOL    HW119831   0.621   5.361  11.666  1.1961  0.3331 -0.4916
 6130SOL    HW219832   0.624   5.210  11.655  1.2298  0.3868 -1.3268
 6131SOL     OW19833   7.079   0.570   1.399  0.4097 -0.1987  0.6519
 6131SOL    HW119834   7.168   0.536   1.385  0.1392 -0.4545 -0.5166
 6131SOL    HW219835   7.024   0.492   1.398  0.0639  0.0485  0.3900
 6132SOL     OW19836   7.257   1.672   8.632 -0.0288  0.4129  0.1470
 6132SOL    HW119837   7.202   1.640   8.562 -0.3227 -1.2688  1.0803
 6132SOL    HW219838   7.218   1.636   8.712  1.6045  0.2896  0.9534
 6133SOL     OW19839   3.033   5.252   1.197  0.1958  0.1712 -0.0224
 6133SOL    HW119840   2.972   5.324   1.207 -1.4371 -1.4383  3.8936
 6133SOL    HW219841   3.112   5.281   1.242 -0.5054 -0.4121  1.6643
 6134SOL     OW19842   1.796   5.220   0.520  0.3570  0.4139  0.4441
 6134SOL    HW119843   1.850   5.174   0.584  0.2806  0.0526  0.2516
 6134SOL    HW219844   1.813   5.174   0.437  0.9009  1.2430  0.0844
 6135SOL     OW19845   4.773   7.214   0.176  0.2597  0.0035  0.3612
 6135SOL    HW119846   4.814   7.293   0.139 -0.5807  0.4074  0.2453
 6135SOL    HW219847   4.806   7.210   0.266  1.9013 -0.6762 -0.2337
 6136SOL     OW19848   1.564   4.424   0.597 -0.3453  0.6287 -0.4229
 6136SOL    HW119849   1.479   4.408   0.557  0.0724 -0.3386 -0.9617
 6136SOL    HW219850   1.578   4.518   0.589 -1.2293  0.7534 -0.5803
 6137SOL     OW19851   3.447   4.153   3.466  0.2393 -0.0606  0.0466
 6137SOL    HW119852   3.391   4.092   3.513  1.0871 -1.7139 -1.0056
 6137SOL    HW219853   3.400   4.171   3.385  0.6530 -0.4802 -0.2912
 6138SOL     OW19854   5.676   6.697   4.351  0.1389  0.3157 -0.3216
 6138SOL    HW119855   5.610   6.764   4.332  0.6435  0.6538 -0.8922
 6138SOL    HW219856   5.671   6.637   4.276  0.9483  0.7176 -0.7102
 6139SOL     OW19857   5.511   4.243   6.458 -0.4912  0.1793 -0.3485
 6139SOL    HW119858   5.527   4.184   6.384 -0.0309 -1.9040  1.3054
 6139SOL    HW219859   5.417   4.233   6.477 -0.9010  1.7151 -1.4094
 6140SOL     OW19860   5.937   0.217   1.316  0.0452 -0.8927  0.6626
 6140SOL    HW119861   5.850   0.214   1.355 -0.7260 -1.2699 -0.9994
 6140SOL    HW219862   5.928   0.171   1.232  1.3717  0.6999 -0.4184
 6141SOL     OW19863   6.280   7.678   8.633  0.0744  0.7437  0.4097
 6141SOL    HW119864   6.231   7.758   8.652 -1.9672 -0.2535 -0.3444
 6141SOL    HW219865   6.364   7.690   8.676 -0.7022  2.6998  1.4862
 6142SOL     OW19866   2.971   5.374   4.816  0.0596 -0.7158  0.2893
 6142SOL    HW119867   3.025   5.307   4.857  0.3834 -0.4113  0.3688
 6142SOL    HW219868   2.891   5.329   4.789  0.4320 -1.2034  0.0036
 6143SOL     OW19869   1.398   4.557  10.464  0.1944  0.0300 -0.1302
 6143SOL    HW119870   1.420   4.567  10.557 -0.3981 -1.8267  0.2626
 6143SOL    HW219871   1.315   4.604  10.454  1.7771  3.0088 -0.5438
 6144SOL     OW19872   5.550   2.843   4.510  0.1413 -0.3403 -0.0851
 6144SOL    HW119873   5.643   2.864   4.518 -0.1297  0.6178  0.7621
 6144SOL    HW219874   5.549   2.750   4.487  1.3096 -0.3095 -0.3562
 6145SOL     OW19875   5.449   1.967   6.988 -0.1667  0.2381  0.0267
 6145SOL    HW119876   5.493   1.959   7.073 -0.1038  0.7175  0.0417
 6145SOL    HW219877   5.441   1.877   6.957  0.2789  0.0964  0.3054
 6146SOL     OW19878   2.632   7.092   7.990  0.3376  0.0598  0.3763
 6146SOL    HW119879   2.612   7.136   8.073  1.3870 -1.1420  1.3119
 6146SOL    HW219880   2.687   7.154   7.943 -0.8093  1.0258  0.2698
 6147SOL     OW19881   2.919   1.877   2.471  0.7045  0.1344 -0.2961
 6147SOL    HW119882   2.935   1.971   2.479  1.4183 -0.0267  0.3246
 6147SOL    HW219883   2.874   1.867   2.387  1.1399  0.9753 -0.6431
 6148SOL     OW19884   0.662   6.250   3.360 -0.4795 -0.3576 -0.4052
 6148SOL    HW119885   0.689   6.294   3.441 -2.9288 -0.9943  0.8639
 6148SOL    HW219886   0.644   6.160   3.388 -1.5376 -0.5418 -1.6152
 6149SOL     OW19887   2.773   1.033   5.061  0.1357  0.4383 -0.0235
 6149SOL    HW119888   2.772   1.092   5.137  1.3694 -0.6956  0.9231
 6149SOL    HW219889   2.854   0.982   5.071  0.1706  0.0372 -1.9442
 6150SOL     OW19890   6.641   2.884   2.413 -0.3358 -0.3752 -0.0359
 6150SOL    HW119891   6.631   2.969   2.369 -0.3769 -0.6068 -0.4821
 6150SOL    HW219892   6.650   2.906   2.505 -0.0239  0.1383 -0.1834
 6151SOL     OW19893   6.122   7.891   4.383 -0.0641 -0.1448 -0.4617
 6151SOL    HW119894   6.103   7.971   4.334  1.8194  1.4919  1.2618
 6151SOL    HW219895   6.158   7.923   4.466  0.7873 -2.8063  0.2672
 6152SOL     OW19896   4.875   4.663   5.812  0.0397  0.1610  0.5406
 6152SOL    HW119897   4.918   4.618   5.885  1.8266  1.5856  0.4462
 6152SOL    HW219898   4.929   4.642   5.736 -1.5236 -0.8991 -0.3201
 6153SOL     OW19899   6.908   1.527   7.567 -0.1556  0.2638  0.1488
 6153SOL    HW119900   6.930   1.614   7.602  1.0743 -0.3850  1.0631
 6153SOL    HW219901   6.968   1.515   7.494  1.0324 -0.5877  1.2344
 6154SOL     OW19902   4.328   5.697   9.179  0.1132 -0.2784 -0.2333
 6154SOL    HW119903   4.345   5.609   9.144 -0.1759  0.6896 -3.1032
 6154SOL    HW219904   4.260   5.732   9.122  0.4277  1.9198  0.6693
 6155SOL     OW19905   4.540   3.988   6.023 -0.0778  0.5573  0.3558
 6155SOL    HW119906   4.609   3.998   5.957  1.1699 -0.8834  1.3803
 6155SOL    HW219907   4.545   4.068   6.075  0.4798  0.6856  0.1142
 6156SOL     OW19908   6.813   1.907  10.153  0.6731  0.0108  0.2611
 6156SOL    HW119909   6.902   1.886  10.125  0.5605  0.7831 -0.7575
 6156SOL    HW219910   6.801   1.998  10.127 -0.8419 -0.4561 -0.8471
 6157SOL     OW19911   6.731   5.350   9.503  0.4760 -0.0409  0.2819
 6157SOL    HW119912   6.714   5.429   9.452 -0.6824 -0.9601 -0.8073
 6157SOL    HW219913   6.728   5.380   9.594  1.3318  1.3918 -0.1310
 6158SOL     OW19914   7.120   2.558   9.694 -0.5235  0.3054  0.4501
 6158SOL    HW119915   7.121   2.651   9.716  0.2433  0.0312  1.7332
 6158SOL    HW219916   7.158   2.516   9.771 -3.0645 -1.2949  0.9370
 6159SOL     OW19917   1.038   6.861  10.461 -0.5782 -0.5043  0.0021
 6159SOL    HW119918   0.967   6.924  10.467  0.5415  0.6675  2.4006
 6159SOL    HW219919   1.073   6.872  10.372  0.1105  2.9513  0.5506
 6160SOL     OW19920   7.178   1.717   2.823  0.6615  0.3625  0.2818
 6160SOL    HW119921   7.162   1.791   2.882 -2.3062 -2.4106  3.3634
 6160SOL    HW219922   7.272   1.704   2.825  0.9342  2.1392  2.1665
 6161SOL     OW19923   5.632   7.097   9.970  0.7373 -0.4426  0.5457
 6161SOL    HW119924   5.581   7.075   9.892 -1.1128  0.2986  1.4760
 6161SOL    HW219925   5.720   7.066   9.950  0.1422 -1.0256 -1.4923
 6162SOL     OW19926   3.929   6.399   6.110  0.8093 -0.4717  0.4912
 6162SOL    HW119927   4.016   6.361   6.103  1.6976  1.7188 -1.3805
 6162SOL    HW219928   3.939   6.476   6.166  0.8098  1.4693 -1.9993
 6163SOL     OW19929   2.963   5.490   0.126 -0.4235  0.0137  0.7470
 6163SOL    HW119930   3.045   5.483   0.173 -0.3813 -0.2065  0.6427
 6163SOL    HW219931   2.988   5.503   0.035 -0.5040  0.0537  0.7302
 6164SOL     OW19932   1.032   6.511   9.422  0.7808 -0.4916 -0.3249
 6164SOL    HW119933   1.111   6.549   9.460  0.0237 -0.3692  1.2103
 6164SOL    HW219934   1.020   6.429   9.468 -0.6843  0.1070  0.4155
 6165SOL     OW19935   1.903   5.841  10.630 -0.1439  0.0121  0.3111
 6165SOL    HW119936   1.964   5.876  10.695  1.2224 -0.5862 -0.6014
 6165SOL    HW219937   1.858   5.918  10.596  1.5149  0.7188 -0.3836
 6166SOL     OW19938   4.100   0.009   8.022 -0.4007  0.2347 -0.2107
 6166SOL    HW119939   4.161  -0.042   7.969  0.4415 -0.2426  1.1678
 6166SOL    HW219940   4.052  -0.057   8.073 -1.6577  0.6415 -0.8164
 6167SOL     OW19941   7.447   1.944  11.338  0.4466  0.3413  0.5980
 6167SOL    HW119942   7.372   1.951  11.279  0.5755 -0.1697  0.3681
 6167SOL    HW219943   7.430   2.010  11.406 -1.2129 -1.0791  1.6491
 6168SOL     OW19944   7.066   2.660   3.167  0.0419 -0.1774  0.2007
 6168SOL    HW119945   7.009   2.610   3.225  0.0162 -1.3858 -0.8230
 6168SOL    HW219946   7.147   2.672   3.217  0.1124 -1.4119  0.4053
 6169SOL     OW19947   7.406   3.585   3.703 -0.1897 -0.1887 -0.1093
 6169SOL    HW119948   7.424   3.677   3.685 -1.4299  0.0898  0.0361
 6169SOL    HW219949   7.420   3.576   3.797 -0.1821 -0.1309 -0.1048
 6170SOL     OW19950   0.351   3.570   1.333 -0.4296  0.2069 -0.6283
 6170SOL    HW119951   0.318   3.537   1.250  0.0485  0.4334 -0.9097
 6170SOL    HW219952   0.305   3.652   1.346 -0.8616 -0.0613 -0.4282
 6171SOL     OW19953   3.352   4.741   2.548  0.4439  0.5217 -0.0548
 6171SOL    HW119954   3.339   4.811   2.484  0.4554  0.8068  0.2505
 6171SOL    HW219955   3.280   4.680   2.532  0.6916  0.3750 -0.6193
 6172SOL     OW19956   3.197   0.212   0.683  0.0009  0.3704 -0.0673
 6172SOL    HW119957   3.286   0.212   0.718 -0.2754  0.7632  0.6659
 6172SOL    HW219958   3.168   0.121   0.692 -0.3019  0.5866  1.3869
 6173SOL     OW19959   5.675   6.148  10.513 -0.2975 -0.0353  0.0721
 6173SOL    HW119960   5.599   6.111  10.469  0.6046 -2.0407  0.1209
 6173SOL    HW219961   5.712   6.209  10.449 -1.0034 -0.2697 -0.5772
 6174SOL     OW19962   0.703   4.212   7.806 -0.1600 -0.7370  0.1236
 6174SOL    HW119963   0.770   4.211   7.739 -0.4785 -0.4603 -0.2043
 6174SOL    HW219964   0.694   4.120   7.833 -0.1486 -0.8768 -0.3351
 6175SOL     OW19965   6.819   1.748   6.761 -0.2014 -0.3958  0.0441
 6175SOL    HW119966   6.831   1.666   6.713  0.1892 -0.6157  0.5075
 6175SOL    HW219967   6.875   1.739   6.838  0.6788  0.7600 -0.4452
 6176SOL     OW19968   7.204   2.400   2.982  0.2015  0.4676  0.3723
 6176SOL    HW119969   7.176   2.448   2.904  0.4662  0.5804  0.3437
 6176SOL    HW219970   7.157   2.317   2.977  1.0018  0.0510 -0.4707
 6177SOL     OW19971   3.577   6.781   3.010  0.2344  0.2780 -0.2581
 6177SOL    HW119972   3.487   6.816   3.008  0.4943  0.9281 -0.8062
 6177SOL    HW219973   3.574   6.713   3.077 -0.0812  1.9643  1.5419
 6178SOL     OW19974   2.501   2.055   2.853 -0.0996  0.7173 -0.3142
 6178SOL    HW119975   2.500   2.118   2.925 -2.2506  1.1128 -0.6326
 6178SOL    HW219976   2.460   1.976   2.889  0.3818  0.3181 -0.6222
 6179SOL     OW19977   0.540   3.196   7.303 -0.2213 -0.0978  0.5451
 6179SOL    HW119978   0.577   3.247   7.375  1.9015 -0.6413 -0.0739
 6179SOL    HW219979   0.537   3.257   7.229  2.0380 -0.6629 -0.1133
 6180SOL     OW19980   1.545   2.766   6.290  0.3270 -0.2240 -0.2400
 6180SOL    HW119981   1.524   2.719   6.209 -1.9509 -0.0529  0.1666
 6180SOL    HW219982   1.474   2.743   6.350  1.3551  0.5552  1.3387
 6181SOL     OW19983   0.501   6.579   1.678  0.3361  0.1603  0.2905
 6181SOL    HW119984   0.486   6.668   1.708 -0.9375 -0.5828  2.0326
 6181SOL    HW219985   0.561   6.542   1.742 -0.6985 -0.8026  0.7380
 6182SOL     OW19986   4.867   3.319   9.478 -0.2932  0.2863 -0.0949
 6182SOL    HW119987   4.906   3.329   9.391 -2.3521  1.0741 -0.9783
 6182SOL    HW219988   4.800   3.251   9.467 -0.4817  0.2885  0.9298
 6183SOL     OW19989   5.744   6.269   3.822  0.2056 -0.3822 -0.1574
 6183SOL    HW119990   5.717   6.226   3.740  1.3514 -0.1895 -0.6553
 6183SOL    HW219991   5.784   6.199   3.874  1.0178 -0.1624 -0.4804
 6184SOL     OW19992   1.236   6.878  10.652  0.1924 -0.1235  0.4743
 6184SOL    HW119993   1.163   6.887  10.590  1.0720  1.3726 -0.3952
 6184SOL    HW219994   1.287   6.957  10.640  2.6175 -1.6219  0.2384
 6185SOL     OW19995   3.458   1.165   5.419  0.3115  0.4036 -0.0959
 6185SOL    HW119996   3.425   1.255   5.430 -0.9661  0.0129 -0.5189
 6185SOL    HW219997   3.553   1.172   5.432  0.3665  1.9825 -1.0639
 6186SOL     OW19998   7.860   4.432   4.336  0.0430  0.1136  0.0188
 6186SOL    HW119999   7.955   4.434   4.342 -0.0268  0.3109  1.3523
 6186SOL    HW220000   7.842   4.380   4.258  1.2327 -0.3883  0.0570
 6187SOL     OW20001   6.637   2.970   8.283  0.0378  0.1336  0.1493
 6187SOL    HW120002   6.625   2.887   8.330  0.2522  0.3010  0.5023
 6187SOL    HW220003   6.583   3.033   8.332  0.9846  0.5118  0.7232
 6188SOL     OW20004   4.285   7.317  10.991 -0.3430  0.4873 -0.7972
 6188SOL    HW120005   4.332   7.389  10.948 -1.0735  0.2026 -2.1187
 6188SOL    HW220006   4.296   7.243  10.931 -0.1288 -0.3497  0.2485
 6189SOL     OW20007   0.120   4.034   0.335 -0.3077 -0.1064  0.1994
 6189SOL    HW120008   0.118   3.977   0.258  0.6078 -1.6961  1.3051
 6189SOL    HW220009   0.033   4.075   0.337 -0.8718 -1.1981 -0.8073
 6190SOL     OW20010   4.204   6.366   4.297  0.2919  0.6518 -0.0331
 6190SOL    HW120011   4.190   6.449   4.343 -2.4985 -0.0032  0.4682
 6190SOL    HW220012   4.130   6.311   4.322  0.3236 -0.8740 -2.8098
 6191SOL     OW20013   6.249   6.920  11.837 -0.2837  0.1726  0.1011
 6191SOL    HW120014   6.198   6.840  11.845  0.0835  0.0283  1.3288
 6191SOL    HW220015   6.327   6.895  11.788  1.7229 -1.2662  3.6564
 6192SOL     OW20016   6.109   0.096   5.473 -0.3970 -0.2794  0.5221
 6192SOL    HW120017   6.104   0.021   5.415 -0.0303  0.3287 -0.3131
 6192SOL    HW220018   6.065   0.068   5.553 -1.3845 -0.9503 -0.2368
 6193SOL     OW20019   4.996   7.921   9.772  0.6482 -0.5704 -0.0197
 6193SOL    HW120020   4.993   7.841   9.719  1.6314  0.1747 -1.2642
 6193SOL    HW220021   4.923   7.912   9.833  0.2946 -2.0850 -0.6218
 6194SOL     OW20022   4.258   2.151   9.997 -0.0467 -0.4809 -0.4896
 6194SOL    HW120023   4.212   2.175  10.077  2.4047 -0.1942  0.9498
 6194SOL    HW220024   4.191   2.111   9.942 -1.8445 -0.7245  1.7033
 6195SOL     OW20025   1.535   2.551   6.564  0.0092 -0.1283 -0.1484
 6195SOL    HW120026   1.604   2.616   6.583  1.6681 -1.1544 -2.2015
 6195SOL    HW220027   1.473   2.599   6.509 -0.2959  0.4513  0.6665
 6196SOL     OW20028   7.982   2.158   8.768 -0.1593  0.1228 -0.2962
 6196SOL    HW120029   8.071   2.188   8.787 -0.2680  0.2586  0.0050
 6196SOL    HW220030   7.959   2.102   8.843 -1.1711  1.9006  0.7986
 6197SOL     OW20031   4.465   7.576  12.228  0.3572  0.0830 -0.9005
 6197SOL    HW120032   4.486   7.580  12.134 -1.2988 -0.6576 -1.3319
 6197SOL    HW220033   4.527   7.513  12.263  1.0984  0.4811 -1.4578
 6198SOL     OW20034   5.242   3.053   6.500 -0.1137  0.3885  0.0913
 6198SOL    HW120035   5.317   3.113   6.492 -0.9662  1.7656  1.7804
 6198SOL    HW220036   5.178   3.086   6.438 -0.1958  0.6274  0.3007
 6199SOL     OW20037   6.139   1.021   0.254 -0.6788 -0.0833 -0.0447
 6199SOL    HW120038   6.159   0.972   0.334 -0.1246  0.2316  0.0150
 6199SOL    HW220039   6.051   0.993   0.231 -0.2891 -1.2817 -0.1480
 6200SOL     OW20040   1.253   1.723   2.053 -0.0520 -0.0351 -0.1118
 6200SOL    HW120041   1.302   1.708   2.134  0.5856  1.2264 -0.2399
 6200SOL    HW220042   1.273   1.647   1.998  2.3637  0.7253 -0.4207
 6201SOL     OW20043   3.238   6.002  10.678  0.1388  0.5166  0.0715
 6201SOL    HW120044   3.203   5.914  10.671  0.8292  0.3339 -1.6214
 6201SOL    HW220045   3.289   6.014  10.598  0.1259  2.4252  0.3001
 6202SOL     OW20046   4.208   7.668  11.965 -0.4053  0.2647  0.6656
 6202SOL    HW120047   4.172   7.636  11.882  0.8224  3.1671 -1.1322
 6202SOL    HW220048   4.279   7.608  11.985  1.1118  0.9988 -1.9774
 6203SOL     OW20049   4.884   3.101   1.457 -0.4373  0.1025 -0.3366
 6203SOL    HW120050   4.821   3.152   1.406  1.0699  0.0136 -2.3847
 6203SOL    HW220051   4.925   3.166   1.515  0.1061  0.8783 -1.5529
 6204SOL     OW20052   2.596   1.673   3.567 -0.3983 -0.0111 -0.2460
 6204SOL    HW120053   2.658   1.743   3.587 -2.4427  1.2809  2.1661
 6204SOL    HW220054   2.549   1.704   3.490 -0.7656  0.9770  0.3522
 6205SOL     OW20055   4.268   5.308   3.567 -0.1507 -0.0734 -0.4206
 6205SOL    HW120056   4.300   5.224   3.600 -0.7463 -0.6801 -1.3150
 6205SOL    HW220057   4.275   5.300   3.472 -0.0270  0.9816 -0.5128
 6206SOL     OW20058   5.864   2.167   0.977  0.0074  0.5737 -0.4986
 6206SOL    HW120059   5.889   2.095   1.036  2.1762  2.5066  1.1239
 6206SOL    HW220060   5.795   2.213   1.024  1.1891  1.6492  0.2567
 6207SOL     OW20061   7.632   0.238   1.557 -0.7287 -0.0819 -0.4491
 6207SOL    HW120062   7.581   0.300   1.609 -0.7605  0.1389 -0.7408
 6207SOL    HW220063   7.690   0.195   1.620 -0.5475  0.4032 -0.2801
 6208SOL     OW20064   5.048   0.411   0.699 -0.6217 -0.7212 -0.1465
 6208SOL    HW120065   5.121   0.392   0.757 -0.4204  0.0193 -0.1452
 6208SOL    HW220066   4.993   0.334   0.704 -0.7484 -0.5692  1.2325
 6209SOL     OW20067   5.423   6.070   8.884 -0.3545 -0.1484  0.3270
 6209SOL    HW120068   5.459   6.051   8.971 -1.9800  0.9122  1.2651
 6209SOL    HW220069   5.348   6.012   8.876 -1.4466  1.2020  0.5168
 6210SOL     OW20070   7.264   4.336   6.062 -0.1527 -0.1697 -0.0355
 6210SOL    HW120071   7.252   4.406   6.126 -1.9859 -0.4408 -0.0492
 6210SOL    HW220072   7.199   4.353   5.994  0.3305 -1.1037 -0.7618
 6211SOL     OW20073   0.703   5.273   0.830  0.1395  0.3398 -0.5187
 6211SOL    HW120074   0.720   5.200   0.771 -2.6040  0.0251 -1.0427
 6211SOL    HW220075   0.618   5.254   0.869 -0.8925  3.4112 -0.9542
 6212SOL     OW20076   1.369   3.610   0.741  0.1576  0.1158  0.2916
 6212SOL    HW120077   1.366   3.623   0.647 -2.1502  2.1070  0.5451
 6212SOL    HW220078   1.456   3.639   0.767  0.9656 -0.8318 -1.2153
 6213SOL     OW20079   5.460   2.325   9.916 -0.1889 -0.7609 -0.0870
 6213SOL    HW120080   5.468   2.289   9.827 -0.2920 -1.9747  0.3703
 6213SOL    HW220081   5.467   2.248   9.973  0.7695  0.1113  1.0043
 6214SOL     OW20082   1.968   6.942   0.569  0.6144 -0.1175  0.7927
 6214SOL    HW120083   1.923   6.864   0.536  0.4211  0.1366  0.4560
 6214SOL    HW220084   1.979   6.998   0.492 -0.0893  0.6032  1.2087
 6215SOL     OW20085   0.750   5.355   6.747  0.1969 -0.0642  0.3841
 6215SOL    HW120086   0.708   5.284   6.698 -0.1001 -0.7732  1.6262
 6215SOL    HW220087   0.832   5.315   6.779 -0.5591 -0.2765  2.1483
 6216SOL     OW20088   1.814   1.078  11.089  0.0829  0.5273 -0.3536
 6216SOL    HW120089   1.745   1.143  11.074 -0.2618  0.7223  1.7516
 6216SOL    HW220090   1.769   1.006  11.132  0.0054 -2.2088 -4.4629
 6217SOL     OW20091   2.831   5.981   7.956 -0.7005  0.4206 -0.3688
 6217SOL    HW120092   2.746   6.024   7.966 -1.4279 -0.9159 -0.6090
 6217SOL    HW220093   2.882   6.011   8.031 -1.8991  0.0834  0.6213
 6218SOL     OW20094   1.508   4.856  10.001  0.5362 -0.5190  0.0882
 6218SOL    HW120095   1.556   4.935  10.025 -0.2495 -0.1215  0.4220
 6218SOL    HW220096   1.417   4.886   9.992  0.0791 -1.5377  1.0710
 6219SOL     OW20097   6.537   1.221   7.566  0.1934  0.5993 -0.6888
 6219SOL    HW120098   6.553   1.206   7.473  1.0007  1.7305 -0.7558
 6219SOL    HW220099   6.621   1.202   7.608  0.6120  2.5793 -0.5302
 6220SOL     OW20100   5.132   3.934  10.505 -0.0411  0.0039 -0.6129
 6220SOL    HW120101   5.173   4.008  10.460  0.9588  0.0344  0.2943
 6220SOL    HW220102   5.058   3.973  10.552  1.3171  0.7676  1.0425
 6221SOL     OW20103   0.192   3.082  11.650  0.2149  0.4684 -0.1074
 6221SOL    HW120104   0.174   3.046  11.563 -0.9259  1.0776 -0.1406
 6221SOL    HW220105   0.162   3.173  11.645  1.2614  0.8660  0.5672
 6222SOL     OW20106   1.084   3.400   4.507 -0.0282 -0.4523  0.0844
 6222SOL    HW120107   1.105   3.438   4.592 -2.3002  0.1257  0.4439
 6222SOL    HW220108   1.077   3.475   4.448  3.6692 -0.9536 -1.2553
 6223SOL     OW20109   6.892   4.327   6.647 -0.3850 -0.5987 -0.2006
 6223SOL    HW120110   6.813   4.380   6.644 -1.8357 -2.5744  0.8254
 6223SOL    HW220111   6.950   4.365   6.580 -1.2891  2.2281  0.5143
 6224SOL     OW20112   1.232   3.718   2.744 -0.0420 -0.1715 -0.4478
 6224SOL    HW120113   1.296   3.769   2.794 -1.1925  0.8023  0.1104
 6224SOL    HW220114   1.229   3.761   2.658 -1.0203  0.7845  0.0264
 6225SOL     OW20115   4.412   6.441  12.079 -0.5677 -0.4834 -0.0303
 6225SOL    HW120116   4.373   6.486  12.154  0.4196 -1.8316  1.3600
 6225SOL    HW220117   4.437   6.355  12.113  2.9167  0.0010 -0.9854
 6226SOL     OW20118   4.610   2.660   4.663  0.3813 -0.0414 -0.1534
 6226SOL    HW120119   4.622   2.717   4.739  0.4569  0.7425 -0.7369
 6226SOL    HW220120   4.579   2.577   4.700 -0.1782  0.5194  0.6788
 6227SOL     OW20121   4.755   2.483   6.162 -0.5019 -0.3793 -0.5437
 6227SOL    HW120122   4.671   2.528   6.172 -0.7556 -0.7027 -1.2089
 6227SOL    HW220123   4.749   2.439   6.077  0.0920 -0.9268 -0.3086
 6228SOL     OW20124   7.176   1.792  10.264  0.6148  0.0855 -0.1201
 6228SOL    HW120125   7.247   1.730  10.246  1.6517  1.1146  0.3036
 6228SOL    HW220126   7.172   1.796  10.359 -1.3369 -1.3898 -0.0640
 6229SOL     OW20127   6.305   2.790   7.027  0.3721  0.0504  0.1903
 6229SOL    HW120128   6.319   2.878   7.062  0.9156 -0.1307  0.4455
 6229SOL    HW220129   6.350   2.733   7.088  0.9055 -0.3161 -0.5268
 6230SOL     OW20130   7.486   7.277   9.478 -0.5282 -0.0185 -0.7488
 6230SOL    HW120131   7.480   7.274   9.383 -0.3067  1.3112 -0.8113
 6230SOL    HW220132   7.428   7.206   9.508  0.0046 -0.9606 -1.8683
 6231SOL     OW20133   2.215   6.535  11.726 -0.0370  0.5946  0.2465
 6231SOL    HW120134   2.168   6.616  11.707 -0.6323  0.3516  0.6375
 6231SOL    HW220135   2.171   6.469  11.673  0.4280  0.5192 -0.0486
 6232SOL     OW20136   4.474   7.986  12.426  0.6211 -0.3020 -0.2593
 6232SOL    HW120137   4.468   7.984  12.330  0.7271 -1.6283 -0.2591
 6232SOL    HW220138   4.557   8.030  12.444  1.0120 -0.7937 -0.8115
 6233SOL     OW20139   5.041   1.486  10.679  0.1451  0.1968 -0.3780
 6233SOL    HW120140   5.099   1.452  10.748  0.9825  0.6376 -0.8503
 6233SOL    HW220141   4.980   1.543  10.725 -0.3144 -0.7352  0.2117
 6234SOL     OW20142   1.932   2.442   6.439 -0.1124 -0.2627  0.3745
 6234SOL    HW120143   2.008   2.475   6.486 -0.2667  0.9580 -0.1928
 6234SOL    HW220144   1.874   2.408   6.507 -1.3617  3.4951  1.4518
 6235SOL     OW20145   7.939   1.142   9.521  0.2068  0.2118  0.1024
 6235SOL    HW120146   7.903   1.056   9.544  0.6757 -0.2340 -0.7792
 6235SOL    HW220147   8.020   1.148   9.571  0.4659 -0.1171 -0.2664
 6236SOL     OW20148   1.368   4.987   5.146  0.4914 -0.0509 -0.1730
 6236SOL    HW120149   1.279   5.015   5.167 -0.1983 -2.3542  0.2732
 6236SOL    HW220150   1.402   4.951   5.228  1.5543  0.1276 -0.5239
 6237SOL     OW20151   3.560   1.440   8.563 -0.3154 -0.0600 -0.1877
 6237SOL    HW120152   3.616   1.518   8.563 -0.0295 -0.1790  2.3239
 6237SOL    HW220153   3.525   1.435   8.653 -2.3624 -1.4153 -0.9780
 6238SOL     OW20154   0.576   3.096   9.969  0.4382 -0.3904 -0.0629
 6238SOL    HW120155   0.610   3.012  10.001 -0.1219 -0.5266  0.1947
 6238SOL    HW220156   0.654   3.152   9.962  0.6995 -0.6360  0.6933
 6239SOL     OW20157   4.877   3.574  10.408 -0.1690 -0.0135  0.2419
 6239SOL    HW120158   4.808   3.513  10.435 -0.2997 -0.1442 -0.3601
 6239SOL    HW220159   4.851   3.658  10.445 -0.0535 -0.2898  0.9775
 6240SOL     OW20160   6.787   6.171   8.611  0.1560 -0.1711  0.7409
 6240SOL    HW120161   6.697   6.176   8.581  0.9957  0.9167 -1.8902
 6240SOL    HW220162   6.793   6.238   8.679 -0.3975  1.8380 -1.0743
 6241SOL     OW20163   5.413   5.338   3.784  0.5140 -0.2731  0.2212
 6241SOL    HW120164   5.452   5.345   3.871 -0.3220  1.1762  0.5158
 6241SOL    HW220165   5.339   5.399   3.786  0.4473 -0.2496 -1.4945
 6242SOL     OW20166   0.028   2.733   5.770  0.5686 -0.2944 -0.5583
 6242SOL    HW120167   0.118   2.759   5.790  0.4853  0.2480 -0.8752
 6242SOL    HW220168   0.035   2.640   5.747  0.8491 -0.6214  0.7186
 6243SOL     OW20169   7.640   6.071   2.076 -0.4843 -0.3513 -0.3972
 6243SOL    HW120170   7.665   5.982   2.101 -0.3379 -0.0250  0.6888
 6243SOL    HW220171   7.688   6.088   1.996  3.9281  0.6546  2.1066
 6244SOL     OW20172   7.197   6.825   5.324  0.2201  0.2751  0.3423
 6244SOL    HW120173   7.117   6.853   5.368 -0.1708 -0.8673  0.3804
 6244SOL    HW220174   7.262   6.818   5.393 -0.1392 -0.5708  0.6075
 6245SOL     OW20175   1.435   3.610   4.148 -0.0731 -0.0934  0.0302
 6245SOL    HW120176   1.454   3.522   4.115  0.0296  0.2071 -0.7379
 6245SOL    HW220177   1.465   3.608   4.239 -0.8635 -1.1073  0.2898
 6246SOL     OW20178   0.669   3.579   5.297  0.3601  0.2160 -0.2967
 6246SOL    HW120179   0.705   3.599   5.384  2.2008  0.1164 -0.9979
 6246SOL    HW220180   0.601   3.513   5.314  1.3085 -0.4771  0.9901
 6247SOL     OW20181   5.698   1.791  12.065  0.2643  0.1383 -0.2065
 6247SOL    HW120182   5.734   1.871  12.104  1.1092 -0.8056  1.0738
 6247SOL    HW220183   5.635   1.821  12.001  0.5985  1.8315  0.2112
 6248SOL     OW20184   2.053   1.268   5.198  0.0083 -0.0703 -0.0862
 6248SOL    HW120185   1.968   1.225   5.196 -0.5473  1.0305 -0.8743
 6248SOL    HW220186   2.063   1.307   5.111  0.2357  1.8784  0.7555
 6249SOL     OW20187   2.672   1.702   8.274  0.3499 -0.4412 -0.1679
 6249SOL    HW120188   2.757   1.738   8.301  1.1046 -1.0061 -1.6308
 6249SOL    HW220189   2.654   1.744   8.190  0.2780 -1.9253 -0.9354
 6250SOL     OW20190   3.464   0.192   0.713 -0.0918  0.0726  0.1437
 6250SOL    HW120191   3.502   0.279   0.702 -0.3112  0.3978  1.7119
 6250SOL    HW220192   3.539   0.133   0.703  0.3052  0.5325  0.3292
 6251SOL     OW20193   2.222   3.527  11.439 -0.0840  0.5482 -0.1643
 6251SOL    HW120194   2.294   3.466  11.458 -0.9935 -0.7398 -0.7059
 6251SOL    HW220195   2.181   3.542  11.523  0.1916  0.4697 -0.0136
 6252SOL     OW20196   7.212   5.917   2.725  0.1263 -0.1354 -0.0672
 6252SOL    HW120197   7.184   5.827   2.743  1.9776 -0.5657  0.9057
 6252SOL    HW220198   7.304   5.908   2.700  0.2530  1.4688 -0.2299
 6253SOL     OW20199   5.873   3.507   6.665  0.4963 -0.4374 -0.0800
 6253SOL    HW120200   5.953   3.533   6.711  0.2043 -0.3088  0.3632
 6253SOL    HW220201   5.823   3.589   6.657  0.3799 -0.5302 -0.2932
 6254SOL     OW20202   0.492   0.957   4.907  0.8829  0.6981  0.5239
 6254SOL    HW120203   0.412   0.918   4.871  0.7671 -0.0645  1.5621
 6254SOL    HW220204   0.490   0.933   5.000  1.8257  1.5120  0.7700
 6255SOL     OW20205   7.738   1.975   5.413 -0.2483 -0.0443 -0.1570
 6255SOL    HW120206   7.717   2.044   5.476 -4.5862 -1.7818  0.6817
 6255SOL    HW220207   7.712   2.012   5.328  1.6852  0.8234 -0.4204
 6256SOL     OW20208   4.466   7.850   4.131  0.0831  0.6460  0.7494
 6256SOL    HW120209   4.478   7.843   4.226 -3.4260 -0.8182  1.2541
 6256SOL    HW220210   4.473   7.760   4.099 -1.5745  0.7054  0.1165
 6257SOL     OW20211   0.636   5.106   4.791  0.3587 -0.0784  0.3160
 6257SOL    HW120212   0.610   5.075   4.878  0.5299  0.4254  0.5496
 6257SOL    HW220213   0.657   5.026   4.743  1.0677 -0.3234  0.9990
 6258SOL     OW20214   0.253   1.922   4.207  0.3219 -0.5209 -0.3169
 6258SOL    HW120215   0.222   1.831   4.205  0.0356 -0.4794  1.1902
 6258SOL    HW220216   0.343   1.917   4.176  0.1711 -1.2591 -0.6687
 6259SOL     OW20217   4.954   1.881   5.799 -0.5731 -0.4112  0.7425
 6259SOL    HW120218   5.036   1.852   5.839 -0.2742 -0.8550 -0.1546
 6259SOL    HW220219   4.885   1.846   5.855 -0.1720 -1.0673  0.8276
 6260SOL     OW20220   1.543   5.327   8.166 -0.9363  0.2213  0.3333
 6260SOL    HW120221   1.602   5.265   8.123  0.4832  0.3196  2.0177
 6260SOL    HW220222   1.477   5.348   8.099 -0.4241 -1.6972 -0.8571
 6261SOL     OW20223   1.812   1.148  12.270 -0.4842 -0.0166  0.1623
 6261SOL    HW120224   1.813   1.128  12.177 -0.9025 -0.2821  0.2103
 6261SOL    HW220225   1.888   1.103  12.305  0.7062  1.5258 -0.3216
 6262SOL     OW20226   0.147   3.411   1.516 -0.1119  0.1817 -0.5875
 6262SOL    HW120227   0.207   3.485   1.508 -0.5883  0.4562 -1.9192
 6262SOL    HW220228   0.198   3.342   1.558  0.0570  1.5588  1.6169
 6263SOL     OW20229   2.459   1.278   5.469  0.2965 -0.3152  0.1914
 6263SOL    HW120230   2.539   1.328   5.454  1.0880 -1.2962  0.9654
 6263SOL    HW220231   2.428   1.256   5.381  0.6167  0.4678 -0.1293
 6264SOL     OW20232   6.979   1.998   7.446 -0.5664 -0.2310 -0.7861
 6264SOL    HW120233   6.937   1.946   7.514  0.9880 -0.6522 -0.1132
 6264SOL    HW220234   6.931   2.081   7.446 -1.0382 -0.4926  0.3188
 6265SOL     OW20235   2.067   3.420   6.146  0.8312  0.4147 -0.0575
 6265SOL    HW120236   2.162   3.417   6.131  0.6738  0.3615 -1.1262
 6265SOL    HW220237   2.043   3.329   6.163  0.7089  0.1190 -1.6533
 6266SOL     OW20238   5.247   7.293   5.977 -0.0535  0.2084  0.2799
 6266SOL    HW120239   5.227   7.362   6.041  2.3932 -0.3644  1.7887
 6266SOL    HW220240   5.271   7.341   5.898  2.3135  1.2459  1.5142
 6267SOL     OW20241   2.431   0.431   6.883 -0.0707  0.1489  0.0741
 6267SOL    HW120242   2.411   0.345   6.847  0.0009  0.3645 -0.5108
 6267SOL    HW220243   2.430   0.489   6.806  1.9794  0.3092  0.0912
 6268SOL     OW20244   2.205   1.073   0.453  0.0301 -0.4931  0.2339
 6268SOL    HW120245   2.296   1.060   0.424  0.5941 -1.0106  2.1070
 6268SOL    HW220246   2.207   1.154   0.503 -0.4248 -0.7885  0.7386
 6269SOL     OW20247   1.089   2.077   7.891  0.0147  0.4215  0.2165
 6269SOL    HW120248   1.049   2.157   7.858  0.6649  0.6944  0.0863
 6269SOL    HW220249   1.182   2.098   7.901  0.6065 -0.9211 -1.7683
 6270SOL     OW20250   4.368   2.265   9.384  0.2179 -0.0647 -0.4528
 6270SOL    HW120251   4.339   2.194   9.441  1.7412 -0.8221 -0.5706
 6270SOL    HW220252   4.316   2.256   9.305 -0.2467 -0.4725 -0.1038
 6271SOL     OW20253   1.588   0.274   5.441  0.4398 -0.3213 -0.7561
 6271SOL    HW120254   1.506   0.298   5.397  0.8126 -0.3640 -1.4802
 6271SOL    HW220255   1.651   0.340   5.412  0.8468 -0.7181 -0.7948
 6272SOL     OW20256   0.029   2.714  11.178  0.2126 -0.0323 -0.0861
 6272SOL    HW120257  -0.034   2.786  11.174 -0.8754 -0.7822  1.9306
 6272SOL    HW220258   0.086   2.728  11.103 -0.4750  2.4297 -0.2439
 6273SOL     OW20259   7.859   4.432   1.157  0.7120  0.4099  0.4893
 6273SOL    HW120260   7.811   4.481   1.224 -0.7840 -0.0205 -0.2148
 6273SOL    HW220261   7.921   4.378   1.206  1.7064  2.2362  1.3298
 6274SOL     OW20262   1.117   4.091   9.155 -0.0876  0.4372  0.2569
 6274SOL    HW120263   1.201   4.136   9.167  0.4002 -0.6747  1.1844
 6274SOL    HW220264   1.109   4.035   9.232 -2.8100  2.2216  1.4088
 6275SOL     OW20265   4.676   5.320   1.803  0.5399  0.0720  0.3906
 6275SOL    HW120266   4.670   5.404   1.847  2.0516  0.6312 -0.3884
 6275SOL    HW220267   4.690   5.256   1.874  0.7243  0.6586  0.8882
 6276SOL     OW20268   2.878   1.185   9.525  0.1484 -0.7625  0.1647
 6276SOL    HW120269   2.883   1.262   9.469  2.7522 -1.6618 -0.9926
 6276SOL    HW220270   2.801   1.200   9.580 -1.3731  1.0743 -2.2880
 6277SOL     OW20271   3.324   5.660   2.415 -0.0789 -0.1448 -0.8620
 6277SOL    HW120272   3.336   5.755   2.409 -0.9419 -0.0394 -1.0663
 6277SOL    HW220273   3.374   5.625   2.342 -1.1125  0.2890 -1.8095
 6278SOL     OW20274   7.273   2.338  10.903  0.6728  0.3194  0.4970
 6278SOL    HW120275   7.264   2.275  10.974 -1.7656 -0.6891 -0.5818
 6278SOL    HW220276   7.203   2.315  10.841 -1.0069  4.6249  0.4436
 6279SOL     OW20277   3.617   2.003  12.059 -0.0250  0.8387  0.2386
 6279SOL    HW120278   3.544   2.000  12.121 -0.3232  0.8207 -0.1093
 6279SOL    HW220279   3.599   1.932  11.997  2.0052 -1.3862  2.0228
 6280SOL     OW20280   5.464   4.762  10.454 -0.2573 -0.2985 -0.8446
 6280SOL    HW120281   5.388   4.704  10.450 -0.8187  0.3265  0.3337
 6280SOL    HW220282   5.510   4.736  10.534  0.3647 -0.1608 -1.1456
 6281SOL     OW20283   6.441   5.699  12.262  0.3972 -0.0866 -0.0283
 6281SOL    HW120284   6.378   5.746  12.207 -1.1631 -3.2419 -1.2045
 6281SOL    HW220285   6.389   5.668  12.336  1.5910  0.7205  1.1874
 6282SOL     OW20286   5.977   5.192   9.167  0.3724 -0.1997  0.1978
 6282SOL    HW120287   5.953   5.145   9.087 -0.0695  0.4202 -0.0413
 6282SOL    HW220288   6.064   5.226   9.149  0.7289 -0.9836  0.4028
 6283SOL     OW20289   1.794   4.982   9.636  0.1260  0.0528 -0.6226
 6283SOL    HW120290   1.830   4.991   9.548  0.8140 -1.9522 -0.5931
 6283SOL    HW220291   1.703   5.009   9.628 -0.1827 -1.3165 -2.2704
 6284SOL     OW20292   4.675   1.776   5.540  0.1349  0.2386 -0.6100
 6284SOL    HW120293   4.689   1.775   5.635  1.5693 -1.6765 -0.7864
 6284SOL    HW220294   4.580   1.780   5.530 -0.0833 -0.5065  0.9281
 6285SOL     OW20295   6.442   4.878   2.006  0.3126  0.2754 -0.5416
 6285SOL    HW120296   6.458   4.972   2.005  0.4457  0.2510 -0.8601
 6285SOL    HW220297   6.411   4.859   2.095  1.4196  0.4321 -0.0973
 6286SOL     OW20298   6.049   1.565  10.268  0.3354 -0.2297  0.2846
 6286SOL    HW120299   6.086   1.593  10.184 -0.1886 -0.2599  0.0405
 6286SOL    HW220300   6.033   1.647  10.315  1.4814 -0.2428  0.7375
 6287SOL     OW20301   5.819   7.095  10.150 -0.6412  0.2134 -0.5594
 6287SOL    HW120302   5.884   7.156  10.186 -0.3366 -0.2455 -0.3340
 6287SOL    HW220303   5.735   7.138  10.166 -0.5050  0.0837  0.5766
 6288SOL     OW20304   4.778   0.171   3.391 -0.2516  0.3437 -0.4987
 6288SOL    HW120305   4.731   0.196   3.471 -0.4381  0.8132 -0.7519
 6288SOL    HW220306   4.844   0.240   3.380 -0.5814  0.5805 -1.0462
 6289SOL     OW20307   2.273   2.876   7.299  0.2392 -0.5060 -0.1071
 6289SOL    HW120308   2.283   2.785   7.330 -2.1861 -0.9399 -0.4214
 6289SOL    HW220309   2.283   2.929   7.378  0.3234 -1.1386  0.3197
 6290SOL     OW20310   5.337   4.208  11.273  0.0145  0.6985 -0.5154
 6290SOL    HW120311   5.269   4.143  11.257  0.6205  0.1696 -0.9626
 6290SOL    HW220312   5.359   4.243  11.187  0.7451  0.4224 -0.4469
 6291SOL     OW20313   6.324   7.234   3.953  0.8197  0.0992 -0.4203
 6291SOL    HW120314   6.406   7.187   3.971  0.2718 -0.7584 -0.1071
 6291SOL    HW220315   6.307   7.220   3.860 -0.0429 -1.5035 -0.0536
 6292SOL     OW20316   1.477   5.719   4.641 -0.1162  0.4713 -0.4378
 6292SOL    HW120317   1.532   5.654   4.683 -0.1713  1.5069  1.3209
 6292SOL    HW220318   1.388   5.694   4.665 -0.2251  0.4820 -0.8190
 6293SOL     OW20319   4.406   1.080   6.674 -0.8736  0.1774 -0.5674
 6293SOL    HW120320   4.356   1.158   6.649 -1.8233  0.2517  1.4028
 6293SOL    HW220321   4.375   1.058   6.761  1.5158 -0.6341  0.1729
 6294SOL     OW20322   2.477   2.559   2.078  0.0185  0.1078  0.1104
 6294SOL    HW120323   2.420   2.483   2.071  0.8861 -0.6010  0.5688
 6294SOL    HW220324   2.548   2.531   2.135  0.1987  1.3677  0.5384
 6295SOL     OW20325   5.150   2.828  10.230  0.0410 -0.2962 -0.3846
 6295SOL    HW120326   5.171   2.792  10.315  0.2807  0.7750  0.0258
 6295SOL    HW220327   5.150   2.753  10.171  1.6803 -0.7992  0.2171
 6296SOL     OW20328   6.824   4.282  10.564  0.2671  0.0611  0.0178
 6296SOL    HW120329   6.753   4.339  10.596  1.0890  1.1417 -0.0137
 6296SOL    HW220330   6.783   4.229  10.496 -0.7693 -0.0953  0.7396
 6297SOL     OW20331   5.396   4.436   4.181  0.1874  0.0175  0.1449
 6297SOL    HW120332   5.355   4.522   4.175  3.4559  1.6866 -0.2011
 6297SOL    HW220333   5.413   4.411   4.090  0.3159 -0.4423  0.2892
 6298SOL     OW20334   6.802   2.389   0.028 -0.2229  0.1634  0.5442
 6298SOL    HW120335   6.772   2.464  -0.024 -0.1283 -0.9214 -1.1330
 6298SOL    HW220336   6.873   2.425   0.082 -1.0759  1.5767  0.7627
 6299SOL     OW20337   7.178   1.159   8.090  0.4681 -0.2857  0.3152
 6299SOL    HW120338   7.136   1.236   8.051 -1.0928 -1.0465  0.3912
 6299SOL    HW220339   7.181   1.094   8.020  0.9316 -0.4662  0.4947
 6300SOL     OW20340   1.339   3.341   7.315  0.1163  0.2857  0.6750
 6300SOL    HW120341   1.254   3.354   7.359 -0.0715  0.5816  0.2365
 6300SOL    HW220342   1.351   3.421   7.263  0.3619 -0.0316  0.2359
 6301SOL     OW20343   5.129   5.461  10.875 -0.2102 -0.1212  0.2270
 6301SOL    HW120344   5.126   5.365  10.881  2.5418 -0.4104 -1.0811
 6301SOL    HW220345   5.117   5.491  10.965  0.3890 -1.7958  0.9095
 6302SOL     OW20346   7.267   3.249   2.720 -0.3597  0.2764  0.0168
 6302SOL    HW120347   7.228   3.210   2.642  2.0029 -0.0534 -1.0854
 6302SOL    HW220348   7.271   3.342   2.701  0.5206  0.1568 -0.4310
 6303SOL     OW20349   3.152   5.745   1.929  0.1622 -0.0003 -0.2201
 6303SOL    HW120350   3.060   5.721   1.927  0.2482 -0.3290 -1.3757
 6303SOL    HW220351   3.165   5.796   1.849  0.7947  0.7962  0.3746
 6304SOL     OW20352   2.565   3.331  12.473 -0.1553 -0.0066  0.3536
 6304SOL    HW120353   2.630   3.400  12.478 -0.8798  0.5887  2.6228
 6304SOL    HW220354   2.611   3.257  12.432  1.7405  0.5999  1.2854
 6305SOL     OW20355   0.508   5.311  10.672  0.8444  0.3328 -0.4241
 6305SOL    HW120356   0.550   5.268  10.746  2.1877  2.7478  0.3121
 6305SOL    HW220357   0.434   5.358  10.710  1.4341  1.4409 -0.6075
 6306SOL     OW20358   1.795   2.111   1.905 -0.3703  0.6985  0.5189
 6306SOL    HW120359   1.851   2.130   1.829 -0.9436  0.1872 -0.0401
 6306SOL    HW220360   1.853   2.068   1.967 -0.1861 -0.0321 -0.1435
 6307SOL     OW20361   4.443   3.670   1.007  0.7045 -0.3934 -0.4666
 6307SOL    HW120362   4.535   3.685   0.987  0.9776 -0.2109  0.8361
 6307SOL    HW220363   4.423   3.586   0.965  1.4462 -0.4117 -0.7951
 6308SOL     OW20364   1.013   0.965   2.186  0.4915 -0.2776  0.1280
 6308SOL    HW120365   1.097   1.010   2.190  0.7653 -0.8486  1.6174
 6308SOL    HW220366   1.034   0.872   2.196 -0.2870 -0.4564  0.2171
 6309SOL     OW20367   3.201   5.612   2.664 -0.1953 -0.0203 -0.1290
 6309SOL    HW120368   3.294   5.612   2.686 -0.0144 -0.0707 -0.8414
 6309SOL    HW220369   3.199   5.595   2.570 -1.0341 -2.6552  0.2912
 6310SOL     OW20370   5.202   5.862   6.306  0.8666 -0.0518 -0.1320
 6310SOL    HW120371   5.253   5.791   6.345  1.0307  0.6712  0.9875
 6310SOL    HW220372   5.232   5.941   6.350  0.5714  0.7126 -1.2499
 6311SOL     OW20373   7.022   6.271  10.566  0.1336  0.1177 -0.1865
 6311SOL    HW120374   6.978   6.337  10.619 -0.4806 -2.5295  2.8743
 6311SOL    HW220375   7.079   6.321  10.508 -2.0330  3.3759  0.2299
 6312SOL     OW20376   0.782   5.647   6.164  0.0574 -0.1349  0.4152
 6312SOL    HW120377   0.807   5.734   6.195  0.5684 -0.2205  0.2456
 6312SOL    HW220378   0.860   5.594   6.174 -0.1557 -0.4924  0.2057
 6313SOL     OW20379   3.101   5.937   9.810  0.2493 -0.3884  0.6758
 6313SOL    HW120380   3.062   5.925   9.723  1.1397  1.0908  0.0435
 6313SOL    HW220381   3.173   5.873   9.813  0.5528 -0.0764  0.1068
 6314SOL     OW20382   0.638   6.306   4.797 -0.8855  0.3540  0.5041
 6314SOL    HW120383   0.720   6.276   4.759 -0.4476 -2.3307  3.2093
 6314SOL    HW220384   0.570   6.266   4.742 -0.4511  1.6925 -1.0876
 6315SOL     OW20385   6.953   7.607   2.902  0.1646 -0.5993  0.0002
 6315SOL    HW120386   7.025   7.659   2.938 -0.1230 -0.1737 -0.0329
 6315SOL    HW220387   6.951   7.630   2.809 -0.2367 -0.3478  0.0704
 6316SOL     OW20388   4.380   4.829   9.910 -0.1953  0.1839 -0.0913
 6316SOL    HW120389   4.285   4.836   9.909 -0.4384 -0.7549  3.4204
 6316SOL    HW220390   4.398   4.735   9.914  0.9254  0.3342 -0.9183
 6317SOL     OW20391   2.619   6.697   8.448 -0.5593  0.2269 -0.4664
 6317SOL    HW120392   2.608   6.755   8.523  0.5933  0.2041 -0.2570
 6317SOL    HW220393   2.549   6.632   8.456  0.1015 -0.3309  1.1200
 6318SOL     OW20394   6.179   6.564   1.735  0.0293  0.0508  0.3035
 6318SOL    HW120395   6.191   6.503   1.808  2.5855  0.8075  0.5884
 6318SOL    HW220396   6.235   6.529   1.666 -0.3338  0.7942 -0.3817
 6319SOL     OW20397   4.516   4.217  10.889 -0.1042  0.1293 -0.3068
 6319SOL    HW120398   4.580   4.254  10.828 -1.6588  1.4847 -1.2453
 6319SOL    HW220399   4.513   4.279  10.962 -0.2238 -0.0044 -0.1966
 6320SOL     OW20400   0.159   0.601   9.444  0.1721  0.1702  0.4026
 6320SOL    HW120401   0.122   0.689   9.449  0.4397  0.3525 -0.7589
 6320SOL    HW220402   0.205   0.590   9.527 -1.4085  0.4027  1.3646
 6321SOL     OW20403   0.657   7.416   6.574 -0.6140 -0.0324  0.1107
 6321SOL    HW120404   0.620   7.331   6.597 -0.0305 -0.7403 -1.4203
 6321SOL    HW220405   0.582   7.469   6.548 -0.8302 -0.6192 -0.4881
 6322SOL     OW20406   0.022   5.233   1.123 -0.0093 -0.0954  0.5888
 6322SOL    HW120407   0.042   5.178   1.047  0.0845 -2.2591  2.0843
 6322SOL    HW220408   0.099   5.288   1.134  1.8225 -2.6576  1.4806
 6323SOL     OW20409   3.646   4.907   4.981  0.2805  0.1960  0.3575
 6323SOL    HW120410   3.670   4.821   4.946 -1.0893 -0.7754  1.6608
 6323SOL    HW220411   3.622   4.890   5.072 -2.9242  1.3896 -0.1269
 6324SOL     OW20412   4.737   3.718   1.339 -0.0547 -0.0605 -0.1585
 6324SOL    HW120413   4.825   3.681   1.339  0.3978  0.9820 -0.6859
 6324SOL    HW220414   4.750   3.812   1.347 -1.0752  0.2014 -1.2130
 6325SOL     OW20415   2.303   3.424   5.426 -0.1691 -0.0743 -0.2496
 6325SOL    HW120416   2.284   3.351   5.486 -1.5538  0.5787  0.1380
 6325SOL    HW220417   2.396   3.442   5.441 -0.6340  0.6233  2.3987
 6326SOL     OW20418   6.833   4.524   7.252  0.5114 -0.6521  0.2964
 6326SOL    HW120419   6.901   4.560   7.309 -0.4733  0.5437  0.7707
 6326SOL    HW220420   6.803   4.445   7.296 -0.9302  0.7570  2.0657
 6327SOL     OW20421   2.093   0.062   5.632 -0.1493 -0.5781 -0.4950
 6327SOL    HW120422   2.138   0.146   5.624 -1.1140  0.0757  0.7076
 6327SOL    HW220423   2.030   0.061   5.559  0.8580 -0.9257 -1.3888
 6328SOL     OW20424   4.488   6.353  11.639 -0.4765 -0.4517 -0.2001
 6328SOL    HW120425   4.420   6.347  11.708 -0.1028 -2.9494  0.0564
 6328SOL    HW220426   4.451   6.304  11.566  0.4403 -0.5648 -0.5948
 6329SOL     OW20427   4.755   3.656   1.903 -0.3515 -0.2412  0.1480
 6329SOL    HW120428   4.675   3.689   1.945 -0.3788  0.8985 -0.7289
 6329SOL    HW220429   4.724   3.615   1.822 -0.0552  0.2933 -0.2431
 6330SOL     OW20430   5.925   0.830   8.649 -0.1897  0.2054  0.3021
 6330SOL    HW120431   5.910   0.784   8.567 -2.1907 -1.3378  1.4253
 6330SOL    HW220432   5.860   0.900   8.649  0.1394  0.5138  0.3685
 6331SOL     OW20433   5.291   3.251   3.561  0.4340  0.5240 -0.7143
 6331SOL    HW120434   5.230   3.285   3.627 -0.3210  0.4823 -1.3866
 6331SOL    HW220435   5.371   3.302   3.575  0.0757  0.9608 -0.1857
 6332SOL     OW20436   2.678   6.738   1.768  0.2286 -0.2228  0.3439
 6332SOL    HW120437   2.704   6.649   1.793  0.1716 -0.0305  1.1010
 6332SOL    HW220438   2.583   6.740   1.781 -0.1198 -0.7095 -1.7630
 6333SOL     OW20439   6.145   5.380   9.401  0.3574  0.0495  0.1509
 6333SOL    HW120440   6.196   5.385   9.320  0.2584 -1.9769 -0.0879
 6333SOL    HW220441   6.136   5.471   9.429  1.7898  0.6724 -1.2337
 6334SOL     OW20442   1.905   6.919  10.585  0.5578 -0.4779  0.2959
 6334SOL    HW120443   1.864   6.939  10.669 -0.1757  0.5035 -0.2665
 6334SOL    HW220444   1.864   6.838  10.556 -1.4722  0.7363 -0.4911
 6335SOL     OW20445   2.263   5.202   9.835  0.0046  0.0953  0.2207
 6335SOL    HW120446   2.290   5.176   9.746 -0.7365 -0.8722  0.2512
 6335SOL    HW220447   2.344   5.226   9.879  0.3777  0.6392 -0.7334
 6336SOL     OW20448   2.259   5.547   9.937 -0.2152  0.1793  0.7897
 6336SOL    HW120449   2.260   5.511  10.026 -0.9324 -1.7524  0.0705
 6336SOL    HW220450   2.351   5.550   9.910  0.0560  1.3057  1.7661
 6337SOL     OW20451   0.217   1.297   1.449 -0.4651 -0.2727  0.1397
 6337SOL    HW120452   0.137   1.270   1.405  0.0473 -0.4052 -0.7430
 6337SOL    HW220453   0.275   1.221   1.444  0.0617  0.1293 -0.1032
 6338SOL     OW20454   7.682   0.888  12.364  0.2078  0.0670 -0.0123
 6338SOL    HW120455   7.683   0.941  12.285  1.1519 -1.2496 -0.9277
 6338SOL    HW220456   7.724   0.942  12.430 -1.1433  1.4303 -0.2055
 6339SOL     OW20457   3.217   2.550   9.123 -0.1258  0.3858  0.4531
 6339SOL    HW120458   3.186   2.610   9.055  2.1099 -1.2392 -2.2268
 6339SOL    HW220459   3.149   2.483   9.128 -1.0577  1.3316  1.0648
 6340SOL     OW20460   5.048   6.781  12.005  0.2337 -0.2443 -0.0460
 6340SOL    HW120461   5.094   6.865  12.015  2.0877 -1.2662  0.4675
 6340SOL    HW220462   4.972   6.802  11.951  2.4307  1.1929 -2.8443
 6341SOL     OW20463   4.299   4.078   1.397  0.1360  0.4054  0.3430
 6341SOL    HW120464   4.364   4.146   1.381 -0.6876  0.8204 -1.4328
 6341SOL    HW220465   4.308   4.018   1.323 -1.0385  0.1107  0.4222
 6342SOL     OW20466   6.207   2.317   5.720  0.0472  0.4231 -0.0535
 6342SOL    HW120467   6.214   2.404   5.679  0.7309  0.4948  0.2031
 6342SOL    HW220468   6.286   2.271   5.692  0.4767  0.4370  1.0964
 6343SOL     OW20469   3.691   2.422   8.615  0.5395 -0.3251 -0.1371
 6343SOL    HW120470   3.661   2.475   8.689  0.6415 -1.0431  0.4221
 6343SOL    HW220471   3.761   2.367   8.651  1.1385 -0.1140 -0.9546
 6344SOL     OW20472   0.825   6.604   4.759 -0.1756 -0.0569  0.0927
 6344SOL    HW120473   0.789   6.656   4.831  0.3765  0.1980  0.1890
 6344SOL    HW220474   0.763   6.532   4.748 -1.1261  0.8057 -0.2754
 6345SOL     OW20475   5.826   2.286   3.940 -0.3044 -0.7300  0.1355
 6345SOL    HW120476   5.791   2.257   4.024 -0.3805  0.0202  0.3736
 6345SOL    HW220477   5.833   2.206   3.888 -0.8108 -1.1238  0.6533
 6346SOL     OW20478   4.564   4.580   5.532 -0.0379  0.0683  0.2890
 6346SOL    HW120479   4.561   4.673   5.508 -0.2799  0.0739  0.3439
 6346SOL    HW220480   4.523   4.576   5.619 -2.4587 -0.4622 -0.8003
 6347SOL     OW20481   2.754   4.816   3.832  0.1359 -0.0940 -0.3819
 6347SOL    HW120482   2.743   4.834   3.925 -0.1968 -0.8767 -0.2573
 6347SOL    HW220483   2.748   4.901   3.789  1.8591  0.4749  0.4367
 6348SOL     OW20484   1.731   6.500  11.607 -0.4345 -0.9188 -0.0276
 6348SOL    HW120485   1.815   6.540  11.584 -0.5439 -1.3289 -1.1596
 6348SOL    HW220486   1.742   6.475  11.699 -0.2636  1.4084  0.6440
 6349SOL     OW20487   6.094   2.179   9.357  0.1169  0.0644  0.0277
 6349SOL    HW120488   6.083   2.272   9.338  0.4078 -0.0849 -0.9092
 6349SOL    HW220489   6.044   2.135   9.288 -1.8449 -0.4586  1.7028
 6350SOL     OW20490   7.233   2.634  12.441 -0.7092  0.6551 -0.0718
 6350SOL    HW120491   7.176   2.564  12.474  2.4239 -2.9338 -1.4711
 6350SOL    HW220492   7.290   2.655  12.514 -0.4013  0.2922 -0.2050
 6351SOL     OW20493   1.559   3.666  10.788 -0.2225 -0.6425  0.4186
 6351SOL    HW120494   1.556   3.702  10.699 -0.1233 -0.3070  0.5486
 6351SOL    HW220495   1.468   3.672  10.819  0.2159  2.0447  1.4262
 6352SOL     OW20496   3.026   7.297  12.194  0.7279  0.2153 -0.2958
 6352SOL    HW120497   2.952   7.343  12.234 -0.1468 -0.9147 -0.5837
 6352SOL    HW220498   3.075   7.262  12.267  0.0092 -0.5006 -0.1480
 6353SOL     OW20499   5.804   2.090   8.775  0.7233 -0.2599  0.1629
 6353SOL    HW120500   5.894   2.079   8.807  0.8651 -2.3310 -0.7973
 6353SOL    HW220501   5.804   2.178   8.737  2.9091 -0.8474 -1.4006
 6354SOL     OW20502   3.379   4.025   6.480  0.1920  0.4074  0.1800
 6354SOL    HW120503   3.293   4.024   6.522  0.5064 -0.3841  0.8479
 6354SOL    HW220504   3.439   3.993   6.548  1.0239  0.9989 -0.2573
 6355SOL     OW20505   3.986   6.449   1.438 -0.0504  0.0109  0.0467
 6355SOL    HW120506   4.012   6.390   1.509 -0.2548 -0.6946 -0.4498
 6355SOL    HW220507   3.978   6.392   1.362 -1.2640  0.5164 -0.2197
 6356SOL     OW20508   1.478   0.717   8.304  0.2016 -0.3405 -0.1492
 6356SOL    HW120509   1.408   0.657   8.278 -1.6205  1.2634  0.7912
 6356SOL    HW220510   1.507   0.757   8.222  0.3192 -1.3162 -0.5934
 6357SOL     OW20511   4.833   1.115  10.954 -0.0953 -0.2634 -0.6329
 6357SOL    HW120512   4.867   1.029  10.977 -3.4149 -0.8146  3.3687
 6357SOL    HW220513   4.859   1.172  11.026  1.8869  2.2292 -3.1165
 6358SOL     OW20514   1.966   4.393   1.261  0.0705  0.5150 -0.2451
 6358SOL    HW120515   1.900   4.344   1.213 -0.8027  0.9086  0.5195
 6358SOL    HW220516   1.916   4.443   1.326  1.2851 -0.8983  1.8894
 6359SOL     OW20517   7.652   4.241   4.251 -0.1576  0.1770  0.0377
 6359SOL    HW120518   7.567   4.202   4.233 -0.0031  0.6217 -1.8371
 6359SOL    HW220519   7.637   4.296   4.328 -1.6951  0.6366 -0.5490
 6360SOL     OW20520   7.807   2.794   7.047  0.2631  0.1708  0.1621
 6360SOL    HW120521   7.833   2.748   7.127 -2.3381  0.5867  1.3387
 6360SOL    HW220522   7.813   2.887   7.069 -0.7272  0.2878  0.0078
 6361SOL     OW20523   5.268   3.226   0.586 -0.1296 -0.1721 -0.5552
 6361SOL    HW120524   5.198   3.169   0.619 -0.1472  0.4173  0.4697
 6361SOL    HW220525   5.336   3.165   0.556  0.0739 -0.7611  0.9992
 6362SOL     OW20526   1.994   0.291   2.756 -0.2492 -0.6082 -0.4646
 6362SOL    HW120527   1.913   0.304   2.805  0.1072  1.3792 -0.3192
 6362SOL    HW220528   2.026   0.204   2.783 -0.7609 -0.1364  1.7822
 6363SOL     OW20529   6.895   0.697   9.722  0.2048  0.1431  0.1472
 6363SOL    HW120530   6.953   0.758   9.768 -0.5054  0.0761  1.1555
 6363SOL    HW220531   6.904   0.615   9.770 -0.1514 -0.0758 -0.1529
 6364SOL     OW20532   2.574   6.637   5.414 -0.0239  0.6093  0.0181
 6364SOL    HW120533   2.658   6.648   5.459  0.0944  1.1893 -0.3256
 6364SOL    HW220534   2.564   6.718   5.364  0.3477 -0.4547 -1.8522
 6365SOL     OW20535   0.940   3.935  10.420  0.3819  0.3470 -0.0434
 6365SOL    HW120536   0.991   3.856  10.438 -0.4895 -0.3972 -0.7622
 6365SOL    HW220537   0.897   3.918  10.336 -1.5811  0.6557  0.8404
 6366SOL     OW20538   5.926   0.642   1.228  0.1414  0.6015  0.1402
 6366SOL    HW120539   5.836   0.630   1.200  0.5005 -0.3817 -0.6409
 6366SOL    HW220540   5.976   0.648   1.147  0.7892  1.0546  0.5633
 6367SOL     OW20541   0.420   5.442   1.772  0.4135  0.0347 -0.2723
 6367SOL    HW120542   0.443   5.532   1.792  3.9376 -0.8336  0.1051
 6367SOL    HW220543   0.431   5.434   1.677  1.4715 -0.3052 -0.1319
 6368SOL     OW20544   4.162   0.312   8.591  0.3416 -0.0174  0.3785
 6368SOL    HW120545   4.110   0.361   8.528  0.7846  0.4696  0.3835
 6368SOL    HW220546   4.246   0.359   8.595  0.6011 -0.4964  0.7404
 6369SOL     OW20547   5.257   4.124   0.580 -0.3415  0.5445 -0.1927
 6369SOL    HW120548   5.261   4.212   0.543  3.0968  1.8716  2.7814
 6369SOL    HW220549   5.243   4.137   0.674 -0.0966 -2.1093  0.3138
 6370SOL     OW20550   4.470   3.676   2.451 -0.7710  0.3507  0.0200
 6370SOL    HW120551   4.475   3.735   2.527 -0.6717  0.1948  0.1340
 6370SOL    HW220552   4.443   3.592   2.487 -1.4650  0.4656 -0.2175
 6371SOL     OW20553   1.780   0.124   7.639  0.1143  0.5415 -0.0038
 6371SOL    HW120554   1.746   0.113   7.550  2.1177  1.3814 -0.9436
 6371SOL    HW220555   1.875   0.133   7.627  0.4383  0.6246  2.2343
 6372SOL     OW20556   0.223   7.428   4.440 -0.2311 -0.1282  0.1103
 6372SOL    HW120557   0.267   7.438   4.356  0.9966  1.5059  0.8888
 6372SOL    HW220558   0.290   7.397   4.500 -1.0124 -0.9781  0.5697
 6373SOL     OW20559   2.555   4.756   2.226  0.1175 -0.2962  0.0673
 6373SOL    HW120560   2.466   4.732   2.200 -0.4976  2.7633 -1.0247
 6373SOL    HW220561   2.545   4.797   2.312  0.6588 -0.9613  0.4571
 6374SOL     OW20562   4.060   3.993   1.380 -0.1780  0.2039 -0.2787
 6374SOL    HW120563   4.086   3.961   1.293 -1.1592  1.3161 -1.0231
 6374SOL    HW220564   4.132   4.050   1.407 -0.5903  1.1522 -1.1216
 6375SOL     OW20565   0.311   3.174   6.647 -0.3447  0.1251 -0.2983
 6375SOL    HW120566   0.232   3.152   6.697 -0.4946 -1.1394 -1.0471
 6375SOL    HW220567   0.287   3.159   6.556  0.2723  1.3242 -0.6799
 6376SOL     OW20568   2.562   5.117   3.851 -0.0432 -0.1826 -0.2486
 6376SOL    HW120569   2.548   5.203   3.812 -1.1053  0.1920  0.9073
 6376SOL    HW220570   2.582   5.134   3.943  0.2588 -1.1523 -0.1132
 6377SOL     OW20571   7.350   2.413   8.700 -0.0192  0.1308 -0.1592
 6377SOL    HW120572   7.303   2.411   8.617 -0.5829  2.1254  0.0666
 6377SOL    HW220573   7.440   2.435   8.677  1.1871 -4.3503 -0.6628
 6378SOL     OW20574   1.431   1.991  12.215 -0.0309 -0.0554  0.0641
 6378SOL    HW120575   1.430   1.907  12.261 -1.1390 -0.1852 -0.1686
 6378SOL    HW220576   1.422   2.056  12.284  0.5333 -0.1352  0.2196
 6379SOL     OW20577   7.053   2.918  10.344  0.4050  0.3082  0.6062
 6379SOL    HW120578   6.989   2.846  10.350 -0.5296  0.8594 -1.6152
 6379SOL    HW220579   7.051   2.959  10.430  0.4129 -1.8356  1.7072
 6380SOL     OW20580   2.312   1.739   6.775  0.0991  0.7749 -0.1778
 6380SOL    HW120581   2.266   1.721   6.857 -0.1748 -0.5758 -0.6043
 6380SOL    HW220582   2.333   1.653   6.740  1.3390  1.3480 -0.9173
 6381SOL     OW20583   6.681   5.757   1.886 -0.6686  0.7345 -0.4088
 6381SOL    HW120584   6.687   5.697   1.812  3.6695 -0.5880  0.7214
 6381SOL    HW220585   6.710   5.841   1.851  1.2446  0.1413 -0.3632
 6382SOL     OW20586   4.078   2.964   6.095 -0.5502 -0.0980 -0.1124
 6382SOL    HW120587   4.108   2.887   6.047  0.5479 -0.0996  0.5483
 6382SOL    HW220588   4.091   2.942   6.187  1.3598  1.4482  0.0679
 6383SOL     OW20589   1.856   7.488  10.973 -0.2134 -0.7200  0.0812
 6383SOL    HW120590   1.937   7.455  10.933  0.1945  0.1053  0.2142
 6383SOL    HW220591   1.814   7.539  10.904 -0.1076 -0.3005  0.3219
 6384SOL     OW20592   4.480   0.720   4.964 -0.2446 -0.2016  0.4282
 6384SOL    HW120593   4.493   0.723   4.869 -1.6017  0.1256  0.2400
 6384SOL    HW220594   4.569   0.726   5.000  0.1697  2.1097 -0.7738
 6385SOL     OW20595   1.306   6.289  10.043 -0.0840  0.0270 -0.2064
 6385SOL    HW120596   1.345   6.292  10.131  0.0298  0.7318 -0.2753
 6385SOL    HW220597   1.305   6.196  10.020 -1.1505 -0.2947  1.0045
 6386SOL     OW20598   1.843   7.880   9.550  0.5603  0.0434  0.3839
 6386SOL    HW120599   1.778   7.811   9.564 -0.4100  0.9959  0.7435
 6386SOL    HW220600   1.864   7.911   9.638  0.5681  0.5868  0.1901
 6387SOL     OW20601   4.365   0.010   2.544 -0.3557 -0.1686 -0.3986
 6387SOL    HW120602   4.335   0.037   2.631 -0.3635  1.5803 -0.8969
 6387SOL    HW220603   4.369  -0.085   2.548 -0.3619 -0.1217  1.5076
 6388SOL     OW20604   4.401   1.448   9.619 -0.0548  0.1747  0.3168
 6388SOL    HW120605   4.456   1.516   9.578  0.2069 -0.9842 -1.3842
 6388SOL    HW220606   4.401   1.377   9.555 -1.3239 -0.9457  1.5155
 6389SOL     OW20607   7.646   0.172   7.857  0.8666  0.3712  0.3164
 6389SOL    HW120608   7.632   0.259   7.819 -0.3461  1.2193  2.4925
 6389SOL    HW220609   7.735   0.148   7.830  1.3674  2.4452 -0.0753
 6390SOL     OW20610   4.755   7.750  12.287 -0.1612  0.3919 -0.6581
 6390SOL    HW120611   4.839   7.710  12.263 -0.0622  0.5381 -0.5576
 6390SOL    HW220612   4.690   7.682  12.269  0.0607 -0.0219  0.0441
 6391SOL     OW20613   6.381   0.639   1.746 -0.0908 -0.3543 -0.1736
 6391SOL    HW120614   6.315   0.571   1.734 -0.1017 -0.1060 -1.6693
 6391SOL    HW220615   6.465   0.593   1.741 -0.0829 -0.7840  2.4285
 6392SOL     OW20616   6.260   1.931   1.066 -0.6106  0.3691  0.3052
 6392SOL    HW120617   6.306   1.995   1.120 -1.1992 -0.7924  2.3113
 6392SOL    HW220618   6.286   1.846   1.103 -2.1131 -0.4212 -0.3613
 6393SOL     OW20619   1.331   1.167   6.476  0.1793  0.0213 -0.2849
 6393SOL    HW120620   1.286   1.252   6.476  0.0656 -0.0392 -0.2602
 6393SOL    HW220621   1.293   1.120   6.550  0.2107 -0.0688 -0.3265
 6394SOL     OW20622   2.420   6.091  11.322  0.2732  0.0631  0.2085
 6394SOL    HW120623   2.391   6.015  11.271  1.1698 -0.1665  0.0352
 6394SOL    HW220624   2.437   6.158  11.256  1.0512 -0.1076  0.2294
 6395SOL     OW20625   0.476   4.773   5.329  0.1659 -0.3459  0.2053
 6395SOL    HW120626   0.497   4.860   5.296  0.3906 -0.0168  1.2043
 6395SOL    HW220627   0.416   4.736   5.263  0.4555  0.3670 -0.4655
 6396SOL     OW20628   2.370   6.099   3.395 -0.2949 -0.1077 -0.0949
 6396SOL    HW120629   2.374   6.121   3.301  1.1633  0.6629  0.1124
 6396SOL    HW220630   2.359   6.184   3.439 -0.3465 -0.4024  0.4690
 6397SOL     OW20631   4.415   0.444   4.171  0.2291 -0.8458 -0.0507
 6397SOL    HW120632   4.416   0.540   4.180 -0.4209 -0.7965 -0.4498
 6397SOL    HW220633   4.355   0.414   4.240  0.5305 -0.9809  0.1572
 6398SOL     OW20634   2.881   4.402   1.345 -0.0618 -0.4074 -0.1475
 6398SOL    HW120635   2.956   4.353   1.379 -1.3891 -2.7467 -0.4073
 6398SOL    HW220636   2.901   4.416   1.252  0.7233  0.4101  0.1256
 6399SOL     OW20637   0.401   3.253   2.739  0.1787 -0.1007 -0.2767
 6399SOL    HW120638   0.359   3.325   2.693 -0.2118 -0.6121 -0.7253
 6399SOL    HW220639   0.491   3.284   2.755 -0.4616  1.1891  1.1243
 6400SOL     OW20640   0.718   4.219   2.501  0.1885  0.6226 -0.5879
 6400SOL    HW120641   0.755   4.268   2.427  1.8717  0.4408  0.0931
 6400SOL    HW220642   0.784   4.152   2.520 -1.3441 -0.9315 -0.4884
 6401SOL     OW20643   5.258   0.018   9.854 -0.4882  0.0629  0.5143
 6401SOL    HW120644   5.163   0.018   9.848 -0.4088 -0.4467 -2.0286
 6401SOL    HW220645   5.283  -0.074   9.854  0.0220  0.1156 -1.9257
 6402SOL     OW20646   5.444   5.231   3.535  0.3481 -0.1791  0.0655
 6402SOL    HW120647   5.474   5.311   3.493 -1.6853  0.4900 -0.2263
 6402SOL    HW220648   5.400   5.261   3.615  2.0274 -1.2522  1.4671
 6403SOL     OW20649   7.623   7.478  10.892 -0.0939  0.3807 -0.1495
 6403SOL    HW120650   7.624   7.445  10.803 -2.0784  1.6820 -0.7190
 6403SOL    HW220651   7.691   7.546  10.894 -0.3793  0.6901 -0.8283
 6404SOL     OW20652   5.857   7.977  10.043  0.0953 -0.3913 -0.1701
 6404SOL    HW120653   5.767   7.967  10.075 -0.4520 -0.4896 -1.6455
 6404SOL    HW220654   5.890   8.055  10.087  0.3075 -1.9099  2.5530
 6405SOL     OW20655   4.441   7.868   5.547 -0.0705 -0.0820  0.6029
 6405SOL    HW120656   4.422   7.933   5.480 -0.8121 -0.0413  0.8453
 6405SOL    HW220657   4.536   7.855   5.542 -0.0689  0.2058 -0.1833
 6406SOL     OW20658   0.391   7.079   3.818  0.3045  0.3322 -0.1249
 6406SOL    HW120659   0.368   7.085   3.725  1.0422  2.8698 -0.2059
 6406SOL    HW220660   0.313   7.110   3.864  0.5219  0.6663  0.0198
 6407SOL     OW20661   0.784   6.334   3.590  0.0483  0.4123 -0.4461
 6407SOL    HW120662   0.780   6.275   3.664 -0.8095  0.0008 -0.8081
 6407SOL    HW220663   0.806   6.419   3.628  1.8013 -0.2031  0.0268
 6408SOL     OW20664   4.939   7.841   3.812  0.2606 -0.0733  0.0433
 6408SOL    HW120665   4.857   7.815   3.771 -0.5303  1.5915  0.4729
 6408SOL    HW220666   4.959   7.771   3.874 -0.9590 -0.3898  0.0861
 6409SOL     OW20667   1.281   4.512   8.063  0.2390 -0.1784 -0.2647
 6409SOL    HW120668   1.191   4.487   8.043  0.2319 -1.1632  0.8401
 6409SOL    HW220669   1.293   4.597   8.022 -0.5716 -0.8938 -2.0642
 6410SOL     OW20670   4.799   7.783   3.435 -0.1652  0.9130  0.1794
 6410SOL    HW120671   4.784   7.797   3.341  0.0160  2.2335  0.3308
 6410SOL    HW220672   4.716   7.808   3.476 -0.0138  0.9954  0.4321
 6411SOL     OW20673   3.172   2.576   1.408  0.6285 -0.0282  0.2047
 6411SOL    HW120674   3.188   2.542   1.496 -0.5843 -1.1523  0.0355
 6411SOL    HW220675   3.079   2.556   1.392  0.5519  1.1175 -0.9159
 6412SOL     OW20676   4.159   3.738   7.386  0.4071 -0.4575 -0.0652
 6412SOL    HW120677   4.203   3.763   7.467 -0.7960 -2.7707  1.4199
 6412SOL    HW220678   4.206   3.660   7.357 -0.1782 -0.5907 -0.6812
 6413SOL     OW20679   4.970   5.346   8.030  0.4129  0.4231 -0.1777
 6413SOL    HW120680   4.954   5.264   8.077  0.5078  0.9178  0.7309
 6413SOL    HW220681   5.048   5.329   7.978 -0.1968 -0.4176 -0.8457
 6414SOL     OW20682   6.037   7.522   9.209  0.1510 -0.4989  0.4125
 6414SOL    HW120683   5.982   7.528   9.286 -0.3568 -1.6946  0.1546
 6414SOL    HW220684   5.979   7.540   9.135 -0.0876 -2.4304  0.0851
 6415SOL     OW20685   7.755   2.229   3.512 -0.6286 -0.1621 -0.5615
 6415SOL    HW120686   7.725   2.262   3.596  1.3241  1.7391 -0.5158
 6415SOL    HW220687   7.680   2.182   3.475 -2.3742  1.2491  1.0429
 6416SOL     OW20688   4.625   2.550   0.977 -0.4514 -0.2674  0.2835
 6416SOL    HW120689   4.644   2.636   1.016 -1.1324  0.1093 -0.1955
 6416SOL    HW220690   4.602   2.495   1.051  0.9465 -0.3268  0.7188
 6417SOL     OW20691   5.638   2.767   3.226 -0.1202  0.6408 -0.0117
 6417SOL    HW120692   5.574   2.809   3.168  0.2892  4.0317  1.7505
 6417SOL    HW220693   5.710   2.830   3.232  1.5836 -1.2852  1.2431
 6418SOL     OW20694   7.490   3.084   9.851 -0.1002  0.1374 -0.1682
 6418SOL    HW120695   7.515   3.044   9.768 -0.1406 -0.2373  0.0013
 6418SOL    HW220696   7.573   3.108   9.892 -0.0987  1.5737 -0.9178
 6419SOL     OW20697   6.398   5.172   3.927 -0.4725  0.7646 -0.2713
 6419SOL    HW120698   6.422   5.124   3.848 -2.6282 -1.6200  0.4141
 6419SOL    HW220699   6.314   5.213   3.905 -1.7966 -1.0597  1.1209
 6420SOL     OW20700   0.003   6.349  11.159  0.2235  0.4840 -0.7624
 6420SOL    HW120701  -0.030   6.260  11.156 -0.7070  0.6834  1.3594
 6420SOL    HW220702  -0.047   6.396  11.093 -1.1171 -0.0527 -0.1640
 6421SOL     OW20703   6.069   0.572  11.973  0.8674 -0.3498  0.2148
 6421SOL    HW120704   6.082   0.657  12.014 -0.2812 -0.2110  0.3363
 6421SOL    HW220705   6.156   0.532  11.971  1.3580  0.6800  0.4660
 6422SOL     OW20706   5.155   0.919   1.878  0.2972 -0.5843  0.0021
 6422SOL    HW120707   5.210   0.863   1.824  1.0635  0.4407 -0.3216
 6422SOL    HW220708   5.141   0.997   1.825  0.9829  0.4121  1.2075
 6423SOL     OW20709   6.369   7.425  10.616 -0.4010 -0.0840 -0.2769
 6423SOL    HW120710   6.463   7.446  10.617 -0.2951 -0.4210 -1.5389
 6423SOL    HW220711   6.365   7.330  10.622 -0.4871 -0.3576 -3.2794
 6424SOL     OW20712   0.153   2.907  10.580 -0.6970  0.1213 -0.1421
 6424SOL    HW120713   0.114   2.940  10.661  2.1290 -0.0370  1.4270
 6424SOL    HW220714   0.088   2.847  10.544 -1.0499 -1.9524  3.5164
 6425SOL     OW20715   5.010   0.920   3.663  0.3339  0.0550 -0.1028
 6425SOL    HW120716   4.965   1.000   3.638  2.7323  2.0808  1.5792
 6425SOL    HW220717   5.091   0.920   3.611  1.1128 -0.3988  1.0571
 6426SOL     OW20718   3.402   2.283   8.024  0.1824 -0.6073 -0.0616
 6426SOL    HW120719   3.349   2.353   8.062 -0.9792 -0.7951 -1.2402
 6426SOL    HW220720   3.449   2.324   7.952  1.2795 -0.5618  0.6569
 6427SOL     OW20721   0.960   5.360   6.122 -0.1718 -0.0834  0.0601
 6427SOL    HW120722   0.987   5.293   6.059 -1.2616 -0.1546 -0.3624
 6427SOL    HW220723   1.014   5.436   6.100 -1.3873  0.3149 -1.8544
 6428SOL     OW20724   1.508   5.648   1.025  0.5525 -0.1243  0.1761
 6428SOL    HW120725   1.414   5.647   1.009  0.1767 -0.1283  2.1152
 6428SOL    HW220726   1.516   5.680   1.115  2.4969  1.2077 -0.4075
 6429SOL     OW20727   7.536   7.668   5.687 -0.4406 -0.3166 -0.4025
 6429SOL    HW120728   7.593   7.690   5.614 -0.2818 -0.5956 -0.3627
 6429SOL    HW220729   7.499   7.752   5.714 -0.2133 -0.1627 -0.5638
 6430SOL     OW20730   7.389   7.456   1.736 -0.2946 -0.4075  0.0184
 6430SOL    HW120731   7.438   7.383   1.697 -1.3874 -0.7056 -0.8677
 6430SOL    HW220732   7.406   7.530   1.677 -0.5689 -0.4021 -0.0541
 6431SOL     OW20733   6.393   6.148   6.798 -0.1344  0.6249  0.1092
 6431SOL    HW120734   6.346   6.206   6.738 -0.5742  0.8462  0.6572
 6431SOL    HW220735   6.450   6.096   6.742 -1.4046 -0.0160 -0.6331
 6432SOL     OW20736   2.121   1.737   3.925 -0.0097 -0.0178 -0.0751
 6432SOL    HW120737   2.157   1.667   3.870  0.3601  0.8911 -1.0069
 6432SOL    HW220738   2.197   1.787   3.954 -0.1856 -0.5442  1.3871
 6433SOL     OW20739   3.091   6.557   4.947 -0.3871 -0.6301 -0.1026
 6433SOL    HW120740   3.184   6.578   4.947 -0.0632 -1.9023 -1.1416
 6433SOL    HW220741   3.066   6.558   4.854 -2.2175  2.8336  0.2539
 6434SOL     OW20742   2.286   3.937   5.622  0.2404 -0.5523  0.4100
 6434SOL    HW120743   2.247   3.977   5.700  0.1474 -1.7091  0.9910
 6434SOL    HW220744   2.342   4.005   5.585 -0.4219  0.3220  0.9685
 6435SOL     OW20745   4.222   2.654   6.246  0.1606  0.3007  0.7538
 6435SOL    HW120746   4.299   2.701   6.214 -0.9423  0.6556 -1.6205
 6435SOL    HW220747   4.166   2.723   6.282 -0.3495  0.5032 -0.3799
 6436SOL     OW20748   2.345   1.444  12.381  0.8297 -0.7704  0.1021
 6436SOL    HW120749   2.312   1.378  12.442  0.5694  1.1091  2.1622
 6436SOL    HW220750   2.266   1.486  12.346  0.9538 -2.2864 -2.1960
 6437SOL     OW20751   4.104   6.845   0.884 -0.0798  0.3849 -0.1480
 6437SOL    HW120752   4.048   6.921   0.905 -0.4280 -0.0666  0.5623
 6437SOL    HW220753   4.092   6.834   0.789 -1.6391 -0.0262  0.0590
 6438SOL     OW20754   1.280   1.183   8.902  0.0353  0.3121  0.0915
 6438SOL    HW120755   1.303   1.255   8.844  0.5260 -0.6713 -0.9803
 6438SOL    HW220756   1.364   1.150   8.934 -0.1425 -0.1592  0.0885
 6439SOL     OW20757   3.872   2.582   8.467  0.2218  0.1040 -0.7957
 6439SOL    HW120758   3.867   2.501   8.517  0.6192  1.2428  1.1978
 6439SOL    HW220759   3.789   2.588   8.420 -0.2412 -0.9102 -0.1151
 6440SOL     OW20760   4.101   2.668   8.320  0.1117  0.0005  0.0688
 6440SOL    HW120761   4.086   2.759   8.295  0.3662 -0.6277 -2.6663
 6440SOL    HW220762   4.014   2.636   8.343 -0.0521  0.8069  0.6216
 6441SOL     OW20763   4.060   6.959   5.455 -0.7170  0.3981 -0.0719
 6441SOL    HW120764   4.082   6.870   5.482 -0.1528  0.2572 -0.9549
 6441SOL    HW220765   3.964   6.962   5.455 -0.7400 -0.3335 -0.4297
 6442SOL     OW20766   1.143   1.659   4.200 -0.4246  0.5097  0.3362
 6442SOL    HW120767   1.060   1.708   4.202 -1.1815 -0.7415  0.3679
 6442SOL    HW220768   1.135   1.602   4.123  1.6521  2.4092 -1.4500
 6443SOL     OW20769   2.503   1.706   4.380 -0.4014 -0.1670  0.4431
 6443SOL    HW120770   2.508   1.695   4.475 -0.0602 -1.4250  0.2942
 6443SOL    HW220771   2.416   1.744   4.365 -0.9921 -1.1956  1.1622
 6444SOL     OW20772   3.260   7.231   1.596 -0.1300  0.9306  0.0473
 6444SOL    HW120773   3.170   7.203   1.613  0.4004 -1.2689 -0.4404
 6444SOL    HW220774   3.265   7.318   1.634 -1.9126  0.3423  1.8422
 6445SOL     OW20775   7.251   7.759   5.527  0.3867  0.2316 -0.2275
 6445SOL    HW120776   7.345   7.776   5.533  0.9670 -2.4464 -0.4776
 6445SOL    HW220777   7.242   7.698   5.453 -1.5979  0.6249 -0.3804
 6446SOL     OW20778   7.091   5.052   0.487  0.3674 -0.4377  0.4100
 6446SOL    HW120779   7.074   5.030   0.395 -1.5531  2.2944 -0.0090
 6446SOL    HW220780   7.063   4.974   0.536 -0.4517 -1.2121 -1.2102
 6447SOL     OW20781   2.776   2.260   2.885  0.1720  0.1454 -0.1846
 6447SOL    HW120782   2.772   2.174   2.842 -0.1212  0.5334 -0.9528
 6447SOL    HW220783   2.693   2.266   2.932  1.3089 -1.1333  2.1761
 6448SOL     OW20784   6.447   5.048   6.106  0.5958 -0.0353 -0.3116
 6448SOL    HW120785   6.487   5.065   6.020 -0.1120  0.6001 -0.5244
 6448SOL    HW220786   6.447   5.133   6.149 -2.0393  0.3651 -0.9757
 6449SOL     OW20787   1.730   6.855   9.885 -0.2924 -0.2615  0.0743
 6449SOL    HW120788   1.794   6.841   9.815 -0.1335  1.3857 -0.1318
 6449SOL    HW220789   1.662   6.790   9.867  0.0616 -0.3082 -1.2216
 6450SOL     OW20790   1.197   7.538  12.010  0.9101  0.7991  0.1166
 6450SOL    HW120791   1.157   7.611  12.058 -1.3549  0.6895 -1.4232
 6450SOL    HW220792   1.210   7.573  11.921  1.0601 -0.2663 -0.2944
 6451SOL     OW20793   4.697   6.689   8.467 -0.4252  0.3252  0.0665
 6451SOL    HW120794   4.606   6.710   8.447 -0.2841 -1.0312 -2.5211
 6451SOL    HW220795   4.746   6.766   8.438 -0.4676 -0.6257 -2.9142
 6452SOL     OW20796   0.333   5.298   0.377 -0.2286  0.3101  0.4111
 6452SOL    HW120797   0.319   5.258   0.291 -0.9001  0.6275  0.3657
 6452SOL    HW220798   0.378   5.380   0.358  1.4906 -0.5593  0.5318
 6453SOL     OW20799   3.704   4.889   0.821  0.1050  0.2943  0.2901
 6453SOL    HW120800   3.644   4.814   0.825  0.2061  0.0272 -1.8827
 6453SOL    HW220801   3.789   4.852   0.846  0.0093 -0.1588 -0.0251
 6454SOL     OW20802   3.648   5.330   3.136  0.3883 -0.8008  0.0523
 6454SOL    HW120803   3.721   5.337   3.197  1.3623  1.3324 -1.2449
 6454SOL    HW220804   3.690   5.320   3.050 -0.8801 -0.7019 -0.5978
 6455SOL     OW20805   0.815   2.773   6.968  0.0153 -0.2356 -0.3806
 6455SOL    HW120806   0.816   2.717   7.045  0.2685 -0.4773 -0.5565
 6455SOL    HW220807   0.878   2.842   6.987  0.9733 -0.9517 -0.8433
 6456SOL     OW20808   6.116   0.783  12.157  0.5830  0.2154  0.4047
 6456SOL    HW120809   6.057   0.857  12.165 -1.3393 -0.8247 -2.5009
 6456SOL    HW220810   6.096   0.728  12.233 -1.1787  0.5893  0.2450
 6457SOL     OW20811   6.724   2.412  10.630 -0.3527  0.5374  0.4406
 6457SOL    HW120812   6.789   2.460  10.682  0.8630 -0.4009 -0.1762
 6457SOL    HW220813   6.640   2.446  10.661  0.3934  1.3292  1.7136
 6458SOL     OW20814   3.410   2.958   5.796 -0.2421  0.1433  0.1115
 6458SOL    HW120815   3.411   2.948   5.701 -0.5774  0.0228  0.1203
 6458SOL    HW220816   3.340   3.021   5.813  1.0619  1.6719  0.1372
 6459SOL     OW20817   1.295   4.919   4.197  0.3295  0.5799  0.0263
 6459SOL    HW120818   1.364   4.860   4.168  0.2572  0.7915 -0.5913
 6459SOL    HW220819   1.314   4.934   4.290  1.0254  0.5142 -0.0959
 6460SOL     OW20820   0.320   6.016  12.341 -0.2219 -0.0107  0.5290
 6460SOL    HW120821   0.268   6.059  12.273  0.3638  1.2633  0.8484
 6460SOL    HW220822   0.399   5.987  12.296 -1.1110 -1.8658  0.0629
 6461SOL     OW20823   6.827   1.270   6.677  0.7223  0.1787 -0.9172
 6461SOL    HW120824   6.802   1.180   6.658  0.3477  0.5698 -2.4486
 6461SOL    HW220825   6.916   1.264   6.711 -0.0252 -0.9123  0.9952
 6462SOL     OW20826   3.085   3.991   2.127 -0.0850  0.3978 -0.2018
 6462SOL    HW120827   3.111   4.019   2.215  0.7833 -1.1086  0.0740
 6462SOL    HW220828   3.018   3.924   2.142  0.6189 -0.4330 -0.6105
 6463SOL     OW20829   2.321   4.809   0.992  0.1330 -0.1638 -0.3195
 6463SOL    HW120830   2.371   4.728   0.983 -0.4133 -0.5574  0.1043
 6463SOL    HW220831   2.328   4.831   1.085 -0.3432 -0.1273 -0.2930
 6464SOL     OW20832   0.564   4.921   1.465  0.3552 -0.2725  0.1243
 6464SOL    HW120833   0.580   4.839   1.418  1.2249  1.5613 -3.0391
 6464SOL    HW220834   0.650   4.949   1.495  0.0395 -0.5394  1.3373
 6465SOL     OW20835   1.812   5.455   9.236  0.2482  0.5780  0.8548
 6465SOL    HW120836   1.860   5.397   9.177 -1.3533  1.0086 -0.9731
 6465SOL    HW220837   1.823   5.415   9.323  0.0363 -1.9243 -0.1814
 6466SOL     OW20838   7.023   3.217   8.222  0.2290 -0.3534 -0.9870
 6466SOL    HW120839   7.109   3.204   8.261  0.2770  1.8842 -0.2021
 6466SOL    HW220840   6.978   3.133   8.233  0.6904 -0.2677  2.7764
 6467SOL     OW20841   5.861   2.937   0.443 -0.5208  0.5908  0.1768
 6467SOL    HW120842   5.875   2.908   0.534 -0.3137 -0.0766 -0.0619
 6467SOL    HW220843   5.904   2.870   0.390  1.9920  2.4917 -0.3638
 6468SOL     OW20844   6.731   3.374  10.892 -0.2969  0.0027  0.2528
 6468SOL    HW120845   6.780   3.370  10.975  0.9007 -2.2802 -0.4794
 6468SOL    HW220846   6.642   3.348  10.916  0.2238 -1.4216  0.7381
 6469SOL     OW20847   2.224   7.514   6.018 -0.6692  0.2747 -0.1159
 6469SOL    HW120848   2.233   7.435   5.965  1.6925 -0.2345  0.9226
 6469SOL    HW220849   2.219   7.483   6.108 -1.4004  1.2651  0.2134
 6470SOL     OW20850   3.378   5.047   9.949 -0.2984  0.1100  0.7745
 6470SOL    HW120851   3.333   5.009  10.025  0.9627 -0.0884  1.4548
 6470SOL    HW220852   3.398   5.137   9.976  0.8483 -0.1944  1.0211
 6471SOL     OW20853   6.840   1.067   9.387 -0.5900  0.7071  0.3714
 6471SOL    HW120854   6.753   1.042   9.418 -0.8298  2.1954  0.9959
 6471SOL    HW220855   6.899   1.038   9.457 -0.5572 -0.3576 -0.0806
 6472SOL     OW20856   3.006   2.301   6.251 -0.3614 -0.0888  0.0104
 6472SOL    HW120857   2.946   2.249   6.305 -1.1035 -1.6656 -2.2053
 6472SOL    HW220858   3.080   2.243   6.236 -0.2632  0.2561 -0.8506
 6473SOL     OW20859   6.140   7.001   4.447 -0.6408 -0.1950  0.0252
 6473SOL    HW120860   6.107   6.991   4.536  0.0331  1.0277  0.4375
 6473SOL    HW220861   6.093   6.935   4.397 -0.8979 -1.0364  1.3190
 6474SOL     OW20862   6.976   7.896   7.661  0.4786 -0.1697  0.0430
 6474SOL    HW120863   7.041   7.917   7.728  2.3103  0.8022 -1.9204
 6474SOL    HW220864   7.002   7.810   7.628  1.3131  0.5524 -1.2762
 6475SOL     OW20865   4.536   3.726   5.730 -0.5344  0.2195 -0.0139
 6475SOL    HW120866   4.542   3.819   5.754 -1.6330  0.8184 -1.8888
 6475SOL    HW220867   4.615   3.687   5.768  0.6445  2.1832 -0.3003
 6476SOL     OW20868   6.916   6.921   7.342  0.3918 -0.2071  0.0804
 6476SOL    HW120869   6.844   6.974   7.310  0.2616 -1.3758 -1.7246
 6476SOL    HW220870   6.881   6.832   7.347  1.3800 -0.6099  0.2844
 6477SOL     OW20871   1.283   5.527   1.306  0.0362  0.0382  0.0429
 6477SOL    HW120872   1.364   5.480   1.283  0.8954  0.0984  2.6541
 6477SOL    HW220873   1.243   5.474   1.374 -1.3656  0.8216 -0.1346
 6478SOL     OW20874   3.311   0.443   7.271  0.5568  0.1019  0.3113
 6478SOL    HW120875   3.281   0.520   7.320 -0.5306 -0.3984  0.4564
 6478SOL    HW220876   3.239   0.423   7.211  0.7205 -0.9561  0.4591
 6479SOL     OW20877   3.334   1.392   7.947  0.0324  0.2323  0.0244
 6479SOL    HW120878   3.337   1.438   7.863  1.0968  0.9832  0.4504
 6479SOL    HW220879   3.283   1.450   8.004  1.2584  0.8526  0.5232
 6480SOL     OW20880   5.313   0.837   6.325 -0.0946  0.0350 -0.5547
 6480SOL    HW120881   5.359   0.883   6.254  0.1492  0.9909  0.2014
 6480SOL    HW220882   5.362   0.862   6.404 -0.2702 -1.1361 -0.0655
 6481SOL     OW20883   6.626   4.699   8.048 -0.1513  0.7958 -0.2483
 6481SOL    HW120884   6.633   4.629   7.982 -0.4269  0.6334 -0.1091
 6481SOL    HW220885   6.566   4.762   8.009 -1.7224 -0.1373  0.5551
 6482SOL     OW20886   1.657   4.774   9.454  0.1193 -0.1101 -0.0827
 6482SOL    HW120887   1.573   4.735   9.433  0.9333 -1.7924 -0.3792
 6482SOL    HW220888   1.648   4.805   9.544 -0.4659 -1.3231  0.2917
 6483SOL     OW20889   7.876   5.497  11.733 -0.3353  0.7225  0.5222
 6483SOL    HW120890   7.873   5.554  11.656  1.3696  3.2013  2.1593
 6483SOL    HW220891   7.810   5.430  11.716 -0.7612  1.7814 -2.5905
 6484SOL     OW20892   2.353   6.630   0.794  0.0863  0.6502  0.1445
 6484SOL    HW120893   2.406   6.699   0.835 -0.7787  1.5451 -0.2031
 6484SOL    HW220894   2.351   6.654   0.702 -1.7177  1.2143  0.2839
 6485SOL     OW20895   4.686   2.073   6.007  0.5012  0.1874 -0.4355
 6485SOL    HW120896   4.744   1.997   6.016 -0.1454 -0.4960 -1.7494
 6485SOL    HW220897   4.624   2.048   5.939 -0.3616  1.5204 -0.1780
 6486SOL     OW20898   3.167   2.878  10.276  0.1271  0.0792  0.0464
 6486SOL    HW120899   3.154   2.948  10.341  0.6637 -0.7567  1.0915
 6486SOL    HW220900   3.261   2.883  10.255 -0.2524  1.0627 -1.5374
 6487SOL     OW20901   1.871   4.162   0.096  0.2193 -0.5631  0.4132
 6487SOL    HW120902   1.934   4.131   0.161  1.8727  3.1434  0.7922
 6487SOL    HW220903   1.908   4.132   0.012  0.2494 -1.8684  0.8649
 6488SOL     OW20904   0.015   3.571   2.979  0.3743 -0.3107  0.2217
 6488SOL    HW120905   0.075   3.497   2.969  1.4108  0.6870 -1.7641
 6488SOL    HW220906   0.063   3.635   3.031  0.7223  0.1203 -0.5964
 6489SOL     OW20907   4.612   7.311   5.828 -0.4748  0.3506  0.1008
 6489SOL    HW120908   4.566   7.360   5.760 -0.2682 -0.2851 -0.5038
 6489SOL    HW220909   4.592   7.219   5.810 -0.0047  0.1452  0.5965
 6490SOL     OW20910   3.421   0.978   0.170  0.0516 -0.1429  0.3844
 6490SOL    HW120911   3.351   1.006   0.111  2.3430  0.4676 -2.2886
 6490SOL    HW220912   3.453   1.060   0.209 -0.7596 -0.4340  1.7118
 6491SOL     OW20913   5.189   7.293   8.893  0.2087  0.3241  0.2232
 6491SOL    HW120914   5.246   7.370   8.903  0.1027  0.3041  1.0069
 6491SOL    HW220915   5.114   7.311   8.950  1.3254 -1.4424  2.4125
 6492SOL     OW20916   2.164   1.566   8.847  0.0509  0.5642 -0.3470
 6492SOL    HW120917   2.208   1.569   8.932  1.1262 -1.3335 -0.7962
 6492SOL    HW220918   2.212   1.630   8.794 -1.0008  2.1979  0.5897
 6493SOL     OW20919   7.190   1.771   3.664 -0.0615 -0.5236 -0.1834
 6493SOL    HW120920   7.149   1.856   3.649 -0.4213  0.0126  2.9993
 6493SOL    HW220921   7.118   1.708   3.660  0.3584 -0.9839 -3.6293
 6494SOL     OW20922   5.051   2.427   5.223  0.3847  0.0229 -0.0364
 6494SOL    HW120923   4.991   2.498   5.204 -0.3439 -0.4916  0.2754
 6494SOL    HW220924   5.138   2.465   5.213  0.0562  1.5870  2.2740
 6495SOL     OW20925   2.156   5.468  10.979  0.0937 -0.7021 -0.0713
 6495SOL    HW120926   2.250   5.472  10.997  0.2600 -1.3519 -0.7236
 6495SOL    HW220927   2.151   5.449  10.885 -0.6698 -1.5449  0.1307
 6496SOL     OW20928   4.392   6.151  11.459  0.5436 -0.5922 -0.5904
 6496SOL    HW120929   4.344   6.073  11.429  0.1767 -0.7127  0.2840
 6496SOL    HW220930   4.467   6.115  11.507 -0.6999 -0.4571  1.5543
 6497SOL     OW20931   1.650   2.939  10.950  0.0111  0.3656  0.1237
 6497SOL    HW120932   1.586   2.868  10.944  0.6899 -0.2519  0.1816
 6497SOL    HW220933   1.712   2.922  10.880  0.9127  0.1671  0.9602
 6498SOL     OW20934   1.487   6.804   3.342 -0.3403  0.7001  0.2397
 6498SOL    HW120935   1.567   6.800   3.290  0.6868 -0.4023  1.8153
 6498SOL    HW220936   1.416   6.803   3.278  0.8908  1.6986 -1.1873
 6499SOL     OW20937   4.057   3.088   0.067 -0.1136 -0.1750 -0.2886
 6499SOL    HW120938   4.061   3.182   0.085 -1.8464  0.3518 -2.1688
 6499SOL    HW220939   4.046   3.083  -0.028 -1.1639 -2.2331 -0.1191
 6500SOL     OW20940   6.365   6.621   8.537  0.1602  0.3298  0.2551
 6500SOL    HW120941   6.419   6.673   8.596 -0.9666  1.8348  0.0072
 6500SOL    HW220942   6.419   6.609   8.459  1.0244 -0.2670  0.9183
 6501SOL     OW20943   7.575   1.717  12.095  0.7230  0.2954 -0.0490
 6501SOL    HW120944   7.574   1.694  12.188 -1.0355 -0.8144 -0.2892
 6501SOL    HW220945   7.532   1.802  12.090  0.8054  0.3488  0.1392
 6502SOL     OW20946   0.181   3.156   6.411  0.6125  0.0962  0.1001
 6502SOL    HW120947   0.235   3.094   6.362  0.4063 -0.7451  0.9034
 6502SOL    HW220948   0.092   3.120   6.406  0.1414  1.3111 -0.9656
 6503SOL     OW20949   2.484   5.749   4.239 -0.1955  0.0475  0.2383
 6503SOL    HW120950   2.453   5.659   4.242 -1.5066  0.4868  0.2135
 6503SOL    HW220951   2.508   5.770   4.329  0.3213 -0.3847  0.2066
 6504SOL     OW20952   1.915   0.205   8.656 -0.6295 -0.4687  0.5425
 6504SOL    HW120953   1.923   0.150   8.734 -1.5651 -0.6743  0.4976
 6504SOL    HW220954   1.856   0.276   8.682  0.6636  0.6151  0.6428
 6505SOL     OW20955   0.668   7.333  11.869  0.1533  0.0765 -0.4834
 6505SOL    HW120956   0.736   7.285  11.917  0.7385  0.2407 -1.1222
 6505SOL    HW220957   0.682   7.309  11.777 -1.4543 -0.8713 -0.5164
 6506SOL     OW20958   1.775   6.283   7.559 -0.9127 -0.0211  0.2771
 6506SOL    HW120959   1.792   6.323   7.644 -3.3590 -0.0100  0.8590
 6506SOL    HW220960   1.718   6.346   7.514 -0.1780 -0.3114 -1.1240
 6507SOL     OW20961   6.939   0.981   5.376 -0.4664 -0.0232 -0.3457
 6507SOL    HW120962   6.884   1.023   5.442 -1.0336 -1.7382  0.3299
 6507SOL    HW220963   7.027   0.983   5.413 -0.7966 -1.0692  0.5607
 6508SOL     OW20964   2.280   6.999   8.524  0.6177  0.0926 -0.2218
 6508SOL    HW120965   2.185   6.998   8.517  0.6363  0.2913 -0.5096
 6508SOL    HW220966   2.302   6.917   8.569  0.1712  0.9960  1.7569
 6509SOL     OW20967   7.013   5.270  10.174 -0.3667 -0.2298 -0.2478
 6509SOL    HW120968   6.975   5.342  10.123  0.4770  0.4208  0.0126
 6509SOL    HW220969   7.101   5.258  10.136  0.5976  0.8179  1.5603
 6510SOL     OW20970   3.604   5.506   5.389 -0.2488  0.1467  0.2900
 6510SOL    HW120971   3.608   5.492   5.484  1.8142  1.9960  0.5476
 6510SOL    HW220972   3.557   5.430   5.356 -2.4985  0.2325  2.9305
 6511SOL     OW20973   3.846   1.657   1.839  0.1139  0.1495 -0.2506
 6511SOL    HW120974   3.899   1.605   1.900 -0.5899 -1.8111 -1.2164
 6511SOL    HW220975   3.897   1.737   1.825  1.8124 -0.7474  0.4419
 6512SOL     OW20976   4.765   4.634  11.034 -0.1017  0.2662 -0.2543
 6512SOL    HW120977   4.819   4.703  10.996 -1.0914  0.3826 -1.5228
 6512SOL    HW220978   4.822   4.557  11.038  0.8047  0.9639  0.5396
 6513SOL     OW20979   0.497   2.980   0.982  0.0868  0.3078  0.6985
 6513SOL    HW120980   0.541   2.949   1.061 -0.7122  0.8657  1.3810
 6513SOL    HW220981   0.496   2.904   0.924  3.0021  0.5729  0.1252
 6514SOL     OW20982   5.996   6.992   1.737  0.2181  0.2023 -0.5220
 6514SOL    HW120983   5.989   6.897   1.725 -2.0375  0.3047 -0.5378
 6514SOL    HW220984   6.062   7.003   1.806  0.7599 -1.3450 -0.7504
 6515SOL     OW20985   2.657   7.752   5.595 -0.1670 -0.4847  0.1954
 6515SOL    HW120986   2.610   7.672   5.572  0.1350 -0.8406  0.8030
 6515SOL    HW220987   2.600   7.823   5.564  0.3540 -0.9178 -1.9386
 6516SOL     OW20988   5.342   7.382   5.013  0.0440 -0.1149  0.0382
 6516SOL    HW120989   5.319   7.381   4.920  0.2473  1.5773 -0.0525
 6516SOL    HW220990   5.370   7.471   5.030 -1.8760  0.1581  2.2029
 6517SOL     OW20991   6.463   2.187   7.865  0.1603  0.3860 -0.3079
 6517SOL    HW120992   6.518   2.203   7.941 -0.3810  0.4474  0.0736
 6517SOL    HW220993   6.436   2.096   7.873 -0.4619  0.5836 -0.0446
 6518SOL     OW20994   6.406   7.025   4.429 -0.5960  0.4612  0.4504
 6518SOL    HW120995   6.435   7.091   4.366 -0.3225  0.4249  0.5335
 6518SOL    HW220996   6.311   7.031   4.429 -0.6957 -0.5197 -1.0189
 6519SOL     OW20997   6.422   1.165   4.129  0.4944  0.0966 -0.9646
 6519SOL    HW120998   6.472   1.105   4.184 -0.9420  1.7700  2.4896
 6519SOL    HW220999   6.330   1.143   4.148 -0.0519  1.7387 -1.5089
 6520SOL     OW21000   0.211   5.815   9.597 -0.3196 -0.0917  0.5812
 6520SOL    HW121001   0.285   5.779   9.548 -0.7315 -0.1922  0.0225
 6520SOL    HW221002   0.152   5.849   9.529 -0.2877  0.9583  1.0637
 6521SOL     OW21003   5.389   6.183   6.214  0.0165  0.3412  0.2757
 6521SOL    HW121004   5.478   6.160   6.238  0.2849  1.1711  0.1171
 6521SOL    HW221005   5.335   6.148   6.286  0.6824  1.6694  1.4710
 6522SOL     OW21006   2.667   4.496   1.757  0.0331  0.0929 -0.2784
 6522SOL    HW121007   2.610   4.464   1.826 -0.9561  0.8625 -0.7189
 6522SOL    HW221008   2.717   4.567   1.797  1.3092 -1.1140  0.3392
 6523SOL     OW21009   0.581   2.111  10.168 -0.3001 -0.4111 -0.0855
 6523SOL    HW121010   0.638   2.098  10.243 -1.6850  0.1987  1.1183
 6523SOL    HW221011   0.625   2.180  10.117 -0.4274  0.8174  1.3720
 6524SOL     OW21012   3.871   7.065   7.922 -0.1092 -0.6124 -0.1736
 6524SOL    HW121013   3.777   7.079   7.915 -0.1877 -1.1913 -0.4125
 6524SOL    HW221014   3.889   7.062   8.016 -0.2175  0.1712 -0.1258
 6525SOL     OW21015   4.024   7.583   6.361 -0.2387  0.3417 -0.5263
 6525SOL    HW121016   3.945   7.616   6.403 -0.1272  0.0696 -0.1023
 6525SOL    HW221017   3.995   7.556   6.274 -0.8612 -0.8597  0.0335
 6526SOL     OW21018   1.684   7.700  11.189  0.2250 -0.2494  0.2839
 6526SOL    HW121019   1.724   7.755  11.122  0.2588  0.9903  1.2965
 6526SOL    HW221020   1.594   7.685  11.158  0.6409 -0.8302 -0.6850
 6527SOL     OW21021   3.510   2.615   6.134  0.3266 -0.2175  0.6112
 6527SOL    HW121022   3.555   2.539   6.172  2.0554  0.1727 -0.5212
 6527SOL    HW221023   3.574   2.686   6.139 -0.8693  0.8922  0.6627
 6528SOL     OW21024   3.421   7.490   5.121 -0.2374 -0.4362 -0.5193
 6528SOL    HW121025   3.430   7.404   5.163  0.1955  0.3788  1.1760
 6528SOL    HW221026   3.474   7.548   5.176 -1.1318  1.0543 -1.1808
 6529SOL     OW21027   5.048   0.110   1.964 -0.1129  0.3877 -0.3402
 6529SOL    HW121028   5.050   0.182   2.027  0.8834 -0.2339  0.3938
 6529SOL    HW221029   4.968   0.122   1.914  0.2540  2.2490 -0.5369
 6530SOL     OW21030   5.552   0.972   4.977  0.0460 -0.0719  0.0253
 6530SOL    HW121031   5.478   1.015   4.933  0.7088 -0.4136 -1.5090
 6530SOL    HW221032   5.614   1.043   4.995  0.4529 -0.1210 -1.0768
 6531SOL     OW21033   4.466   4.553   0.619 -0.1593 -0.4242  0.1191
 6531SOL    HW121034   4.401   4.579   0.684 -0.0938 -0.0560  0.0423
 6531SOL    HW221035   4.441   4.601   0.540  1.8728  2.1155  0.8557
 6532SOL     OW21036   0.490   3.514   6.740  0.0314  0.3992 -0.3731
 6532SOL    HW121037   0.558   3.563   6.787  0.2965  1.2487 -1.6058
 6532SOL    HW221038   0.410   3.563   6.756  0.1352  0.7309 -0.8695
 6533SOL     OW21039   7.647   0.846   5.146  0.0253 -0.1779  0.3005
 6533SOL    HW121040   7.730   0.892   5.132  0.0215 -0.5497 -1.1562
 6533SOL    HW221041   7.664   0.787   5.219  1.1918 -0.5380 -0.2309
 6534SOL     OW21042   6.036   4.826   7.594 -0.2540  0.2150  0.6072
 6534SOL    HW121043   6.065   4.735   7.594 -2.1046 -0.4402 -0.3919
 6534SOL    HW221044   6.012   4.844   7.685  1.1182  0.0667  1.0095
 6535SOL     OW21045   3.045   0.424   5.098  0.3398  0.7421  0.2361
 6535SOL    HW121046   3.135   0.397   5.115  0.0241 -0.0720  0.7102
 6535SOL    HW221047   2.993   0.371   5.159 -0.5105  0.7100 -0.5024
 6536SOL     OW21048   0.385   7.824   1.666  0.4985  0.9086 -0.4057
 6536SOL    HW121049   0.336   7.794   1.743  1.0444  4.1572  1.3875
 6536SOL    HW221050   0.358   7.765   1.596 -3.3768  0.4222  1.2621
 6537SOL     OW21051   1.243   5.073   5.901 -0.3304 -0.3114 -0.0510
 6537SOL    HW121052   1.192   5.106   5.974  0.3464  0.7044 -0.0214
 6537SOL    HW221053   1.270   4.985   5.928 -1.3606 -0.5449  0.2632
 6538SOL     OW21054   3.609   0.540   4.773 -0.7034  0.4747 -1.0458
 6538SOL    HW121055   3.585   0.503   4.688  0.3645 -1.1340 -0.6689
 6538SOL    HW221056   3.692   0.498   4.796 -2.0539 -0.9166  1.8448
 6539SOL     OW21057   7.903   3.651   6.835  0.7523 -0.6779 -0.0755
 6539SOL    HW121058   7.979   3.635   6.779  1.2424 -0.3750  0.4899
 6539SOL    HW221059   7.831   3.667   6.773  1.4095  0.2665 -0.6257
 6540SOL     OW21060   5.031   5.478   3.396  0.2254 -0.7869  0.1511
 6540SOL    HW121061   4.955   5.479   3.338 -0.6905  0.8865  1.3093
 6540SOL    HW221062   5.024   5.394   3.443 -0.1916 -1.2004 -0.6198
 6541SOL     OW21063   5.198   3.431   5.694 -0.1465 -0.1118 -0.1835
 6541SOL    HW121064   5.115   3.468   5.725  0.5385  0.7989  0.5882
 6541SOL    HW221065   5.211   3.470   5.608  0.1615  0.8215  0.2777
 6542SOL     OW21066   0.638   7.095   8.253  0.7195  0.3243 -0.2416
 6542SOL    HW121067   0.561   7.038   8.246  1.6419 -1.2172  1.2560
 6542SOL    HW221068   0.705   7.052   8.202  1.7596 -0.6312  1.7977
 6543SOL     OW21069   1.580   0.182  12.419  0.2727 -0.0891  0.1008
 6543SOL    HW121070   1.540   0.139  12.343 -0.3899  1.1938 -0.2861
 6543SOL    HW221071   1.674   0.170  12.405  0.2460  1.2517 -1.6455
 6544SOL     OW21072   6.321   3.112   4.358  0.0409 -0.1181  0.7042
 6544SOL    HW121073   6.274   3.032   4.380 -1.4089  1.3578  3.5409
 6544SOL    HW221074   6.255   3.171   4.322  0.9185  0.1109 -0.5927
 6545SOL     OW21075   0.314   0.604   5.096  0.6397  0.0568 -0.4838
 6545SOL    HW121076   0.233   0.558   5.073 -0.0241  0.9822 -0.0695
 6545SOL    HW221077   0.364   0.606   5.015  1.0360 -2.0269 -0.3508
 6546SOL     OW21078   1.981   7.369  12.191  0.0477 -0.4435  0.5709
 6546SOL    HW121079   1.907   7.342  12.138 -0.8622  1.0069  1.0414
 6546SOL    HW221080   2.040   7.294  12.191  0.3046 -0.4166 -2.8213
 6547SOL     OW21081   2.875   6.125   9.628  0.2406  0.4272  0.0579
 6547SOL    HW121082   2.926   6.049   9.602  1.9306  1.3799  0.4594
 6547SOL    HW221083   2.829   6.096   9.707  0.7813 -0.2131  0.1471
 6548SOL     OW21084   3.460   1.058   7.093  0.5219  0.0857  0.1370
 6548SOL    HW121085   3.408   1.132   7.126  2.4054  1.1954  0.7988
 6548SOL    HW221086   3.420   0.981   7.134 -3.2867  0.2530 -2.7548
 6549SOL     OW21087   2.674   1.404   1.951 -0.6930  0.7221  0.4614
 6549SOL    HW121088   2.729   1.379   1.877 -1.6032  1.0785 -0.3716
 6549SOL    HW221089   2.625   1.480   1.919 -2.7921 -0.5040  0.5966
 6550SOL     OW21090   2.695   1.859   7.388 -0.0748  0.1445 -0.1495
 6550SOL    HW121091   2.725   1.797   7.321 -0.3751  0.6335 -0.7448
 6550SOL    HW221092   2.773   1.909   7.412  0.2912 -0.8139  0.7309
 6551SOL     OW21093   5.209   6.529   4.713  0.1550  0.0523 -0.3950
 6551SOL    HW121094   5.302   6.523   4.735  0.3728  1.1686 -0.9519
 6551SOL    HW221095   5.205   6.595   4.644 -1.0762  0.1583 -0.2360
 6552SOL     OW21096   2.437   6.946   6.999 -0.5608  0.2764  0.0123
 6552SOL    HW121097   2.440   6.868   7.055 -0.5369 -0.5900 -1.1343
 6552SOL    HW221098   2.347   6.950   6.968 -0.2769 -0.0686 -0.9267
 6553SOL     OW21099   7.219   4.635  10.674  0.4287  0.1139  0.3516
 6553SOL    HW121100   7.210   4.600  10.586  0.4779 -1.2182  0.8579
 6553SOL    HW221101   7.237   4.559  10.729  1.4411  1.0389  1.3686
 6554SOL     OW21102   1.797   7.136   9.854 -0.4164  0.4696 -0.2753
 6554SOL    HW121103   1.874   7.129   9.910 -0.8813  2.3538  0.6996
 6554SOL    HW221104   1.759   7.048   9.853  0.4457  0.0503  1.1553
 6555SOL     OW21105   1.113   4.867   1.306  0.3326 -0.3254 -1.1252
 6555SOL    HW121106   1.136   4.953   1.343 -0.1152 -1.3509  1.8699
 6555SOL    HW221107   1.017   4.869   1.300  0.3967 -0.1802 -2.3548
 6556SOL     OW21108   4.220   2.686   7.226  0.1437  0.1409  0.0351
 6556SOL    HW121109   4.164   2.608   7.222 -2.4478  1.8671  0.9559
 6556SOL    HW221110   4.242   2.695   7.318  0.4221  0.5255 -0.0665
 6557SOL     OW21111   3.391   1.626  11.677 -0.1284  0.4681 -0.4163
 6557SOL    HW121112   3.357   1.701  11.628 -1.2678  0.4967  0.3707
 6557SOL    HW221113   3.342   1.627  11.759  0.9627 -0.2257  0.2659
 6558SOL     OW21114   0.846   6.202   8.016  0.1913 -0.2029 -0.1413
 6558SOL    HW121115   0.809   6.200   8.104  0.5410 -1.0139 -0.0090
 6558SOL    HW221116   0.816   6.121   7.975  1.4596 -0.6853 -0.1697
 6559SOL     OW21117   0.814   3.514  11.451  0.0784 -0.2724  0.0700
 6559SOL    HW121118   0.765   3.451  11.397  1.1917 -0.0705 -1.2382
 6559SOL    HW221119   0.747   3.556  11.505 -0.7167 -2.4518  0.8865
 6560SOL     OW21120   3.628   6.654   2.492 -0.0285  0.1095  0.8724
 6560SOL    HW121121   3.537   6.665   2.466  0.0607 -1.4345 -0.1733
 6560SOL    HW221122   3.652   6.739   2.530 -1.0237  1.5280 -1.4496
 6561SOL     OW21123   3.047   7.257  10.240 -0.2072 -0.8540  0.2544
 6561SOL    HW121124   3.027   7.260  10.334 -3.2848 -1.8484 -0.2737
 6561SOL    HW221125   3.124   7.200  10.234  0.0840 -0.7283  2.1618
 6562SOL     OW21126   1.323   5.069   1.595 -0.5171  0.3414 -0.0449
 6562SOL    HW121127   1.264   5.051   1.668  0.0966 -0.8911  0.1788
 6562SOL    HW221128   1.360   5.155   1.615 -0.9317  0.3532  0.7004
 6563SOL     OW21129   5.416   1.269   6.221  0.6103 -0.0026  0.0738
 6563SOL    HW121130   5.437   1.284   6.128  0.5933  1.1170  0.2304
 6563SOL    HW221131   5.321   1.282   6.226  0.7286  0.8164  0.3853
 6564SOL     OW21132   4.076   2.305  10.686  0.2241 -0.1870 -0.2891
 6564SOL    HW121133   4.089   2.215  10.657  0.9240  0.4293 -1.9920
 6564SOL    HW221134   3.985   2.308  10.716  0.3615 -1.5762  0.3320
 6565SOL     OW21135   3.897   7.387  12.411  0.5117 -0.1023  1.0134
 6565SOL    HW121136   3.872   7.355  12.324  2.1651  1.8753 -0.3067
 6565SOL    HW221137   3.832   7.455  12.430  0.0762 -0.6212  1.4031
 6566SOL     OW21138   0.679   7.370   8.632  0.0031 -0.1718 -0.0078
 6566SOL    HW121139   0.706   7.328   8.551  0.5882  0.4123 -0.1187
 6566SOL    HW221140   0.594   7.410   8.611  0.2422  0.1414 -0.3892
 6567SOL     OW21141   2.976   4.644   3.812  0.1291  0.4584 -0.1483
 6567SOL    HW121142   2.943   4.608   3.730  0.3919 -1.5607  0.5751
 6567SOL    HW221143   2.921   4.721   3.829 -0.3565  0.5168 -1.8516
 6568SOL     OW21144   2.202   0.901   4.098 -0.5042  0.7371 -0.4338
 6568SOL    HW121145   2.178   0.961   4.169 -1.1989  2.1041 -1.7625
 6568SOL    HW221146   2.120   0.860   4.073 -0.2670  0.2820 -0.4732
 6569SOL     OW21147   6.486   0.159   8.029 -0.2176  0.4257 -0.7004
 6569SOL    HW121148   6.393   0.179   8.020 -0.3398 -0.6174 -2.1535
 6569SOL    HW221149   6.489   0.065   8.046  0.5901  0.2954 -1.4894
 6570SOL     OW21150   2.162   1.120   4.303 -0.5850 -0.0693  0.2249
 6570SOL    HW121151   2.240   1.148   4.350  0.3929 -1.8884 -0.2563
 6570SOL    HW221152   2.149   1.187   4.236  0.0270  0.7009  0.8603
 6571SOL     OW21153   0.891   6.330   8.361  0.5314  0.1772 -0.2513
 6571SOL    HW121154   0.951   6.379   8.418  0.3476  0.9810 -0.7268
 6571SOL    HW221155   0.948   6.273   8.310  0.6013 -1.6013  1.6810
 6572SOL     OW21156   7.454   1.224   9.845  0.8250 -0.3408  0.0411
 6572SOL    HW121157   7.419   1.311   9.865  0.9316 -0.3554  0.3022
 6572SOL    HW221158   7.520   1.209   9.913  0.7140 -0.6808  0.0772
 6573SOL     OW21159   0.204   4.731  11.998  0.2051 -0.0658  0.2625
 6573SOL    HW121160   0.267   4.672  12.039  0.7066  0.7413  0.6874
 6573SOL    HW221161   0.178   4.686  11.918 -0.7540 -1.6416  1.4124
 6574SOL     OW21162   6.326   2.915   5.284  0.4163  0.3456  0.0889
 6574SOL    HW121163   6.383   2.884   5.213 -0.7707 -2.8373  0.3215
 6574SOL    HW221164   6.365   2.877   5.363 -0.3540  0.6562  0.6193
 6575SOL     OW21165   4.971   4.173   1.794 -0.0527  0.1440  0.0663
 6575SOL    HW121166   4.881   4.187   1.767 -0.5657 -2.6533 -0.0465
 6575SOL    HW221167   5.007   4.113   1.728  1.2738 -0.2736  1.1012
 6576SOL     OW21168   4.565   1.129   0.447  0.1666  0.5520 -0.1541
 6576SOL    HW121169   4.630   1.061   0.462 -0.3405  0.1872  0.4578
 6576SOL    HW221170   4.575   1.153   0.355  1.1795  0.5273 -0.0545
 6577SOL     OW21171   0.504   6.610  10.473  0.2823  0.0960 -0.0130
 6577SOL    HW121172   0.587   6.582  10.512 -0.2293  0.4171  1.3474
 6577SOL    HW221173   0.437   6.570  10.528 -0.4644  2.1591  0.6517
 6578SOL     OW21174   6.659   7.224  11.264  0.0760 -0.0192  0.6742
 6578SOL    HW121175   6.621   7.243  11.350  1.7766  1.8983  1.0838
 6578SOL    HW221176   6.595   7.258  11.201 -1.1832 -1.4349  1.1134
 6579SOL     OW21177   1.882   3.849  11.089  0.3567 -0.0112 -0.1160
 6579SOL    HW121178   1.830   3.846  11.169  1.0969 -0.7163  0.3696
 6579SOL    HW221179   1.927   3.934  11.091  0.5142 -0.1046  0.3194
 6580SOL     OW21180   1.610   3.581   5.217  0.2102  0.1636 -0.0497
 6580SOL    HW121181   1.554   3.569   5.140 -0.0671 -1.1034  0.3229
 6580SOL    HW221182   1.630   3.675   5.218  1.0357  0.0609 -2.2030
 6581SOL     OW21183   6.275   1.216   0.595 -0.1938  0.2295 -0.1792
 6581SOL    HW121184   6.200   1.164   0.567 -0.9052  0.0801  1.8172
 6581SOL    HW221185   6.279   1.203   0.690  1.0616  1.9458  0.0556
 6582SOL     OW21186   4.317   2.197   4.846  0.0192 -1.0233  0.3370
 6582SOL    HW121187   4.256   2.124   4.859 -2.9270  1.1427 -0.4358
 6582SOL    HW221188   4.325   2.237   4.933 -0.0512 -1.0005  0.3329
 6583SOL     OW21189   0.913   3.177   7.465  0.6775  0.2050  0.7091
 6583SOL    HW121190   0.967   3.099   7.482  0.6110 -0.2262 -0.8476
 6583SOL    HW221191   0.889   3.169   7.372 -0.5383  1.3458  0.8978
 6584SOL     OW21192   7.064   0.649  12.024  0.5533 -0.6987  0.9230
 6584SOL    HW121193   7.100   0.656  12.113  1.2370  1.3998  0.5279
 6584SOL    HW221194   7.116   0.709  11.972 -0.8702 -0.6838 -0.5684
 6585SOL     OW21195   5.822   7.755   3.326  0.2013  0.4798  0.4321
 6585SOL    HW121196   5.916   7.770   3.316  0.2182  0.0900 -0.0620
 6585SOL    HW221197   5.808   7.750   3.420  0.8689 -0.5735  0.4850
 6586SOL     OW21198   0.830   6.509   0.537  0.3457  0.1549  0.8866
 6586SOL    HW121199   0.918   6.470   0.532  0.3827  0.0174  2.1418
 6586SOL    HW221200   0.844   6.603   0.525  0.5630  0.0581  0.3435
 6587SOL     OW21201   6.127   5.866   7.130  1.0527 -0.2169 -0.3345
 6587SOL    HW121202   6.196   5.800   7.131  1.2791  0.0067  0.7125
 6587SOL    HW221203   6.145   5.919   7.208  1.1691  1.3896 -1.4103
 6588SOL     OW21204   2.995   6.653   8.006  0.1231  0.3515  0.4801
 6588SOL    HW121205   2.915   6.705   8.010  0.7980  1.3342  2.5324
 6588SOL    HW221206   3.065   6.716   7.994  0.8020 -0.2354  1.2230
 6589SOL     OW21207   6.644   3.337   1.289 -0.1653 -0.2203  0.5490
 6589SOL    HW121208   6.642   3.426   1.255 -0.1150 -0.3608  0.1725
 6589SOL    HW221209   6.596   3.285   1.224 -0.6949 -0.3720  1.0546
 6590SOL     OW21210   7.946   5.149  12.245 -0.1278 -0.0858  0.2150
 6590SOL    HW121211   8.040   5.161  12.229 -0.0978 -1.7529 -1.0963
 6590SOL    HW221212   7.904   5.197  12.174 -0.2075 -0.9813 -0.3487
 6591SOL     OW21213   3.494   6.419   6.221  0.1645  0.1424  0.4249
 6591SOL    HW121214   3.533   6.333   6.239 -2.9808 -1.4529  0.2828
 6591SOL    HW221215   3.460   6.411   6.132  0.5200  1.8966  0.0881
 6592SOL     OW21216   3.227   2.098   8.803 -0.4569  0.1370  0.1027
 6592SOL    HW121217   3.289   2.082   8.732  1.2165 -2.6789  2.0050
 6592SOL    HW221218   3.281   2.138   8.872 -1.1688 -0.6004  1.1099
 6593SOL     OW21219   6.073   3.857   9.263 -0.1317 -0.2065 -0.0408
 6593SOL    HW121220   6.029   3.773   9.254  1.4924 -1.1325  0.2086
 6593SOL    HW221221   6.050   3.887   9.351 -0.9508 -0.2209 -0.2383
 6594SOL     OW21222   5.550   0.065   3.930  0.1561 -0.8599 -0.1288
 6594SOL    HW121223   5.507  -0.013   3.968 -0.6118 -0.5792 -0.4003
 6594SOL    HW221224   5.551   0.048   3.836 -1.1021 -0.0233 -0.3099
 6595SOL     OW21225   4.683   7.738   5.443 -0.1928 -0.5758  0.1214
 6595SOL    HW121226   4.772   7.715   5.471 -0.0815 -0.4930 -0.1616
 6595SOL    HW221227   4.695   7.794   5.367 -0.4626  0.5092  0.8525
 6596SOL     OW21228   2.924   5.050  11.445  0.1924  0.3684  0.0260
 6596SOL    HW121229   2.980   5.112  11.491  0.7893 -0.5515  0.5658
 6596SOL    HW221230   2.928   5.078  11.354  0.1043  1.3776  0.3166
 6597SOL     OW21231   6.260   0.165   2.826  0.1218 -0.0294 -0.7035
 6597SOL    HW121232   6.352   0.143   2.814  0.5353  1.1944 -0.0052
 6597SOL    HW221233   6.231   0.196   2.741  0.5901  0.3617 -0.7238
 6598SOL     OW21234   1.511   5.929   0.546  0.1970  0.0700  0.2044
 6598SOL    HW121235   1.419   5.927   0.519  0.1382 -0.7302  0.4552
 6598SOL    HW221236   1.530   6.023   0.556 -0.6574  0.2378  0.3747
 6599SOL     OW21237   2.427   1.183  10.560 -0.2774  0.3400  0.1120
 6599SOL    HW121238   2.357   1.205  10.621 -0.2700 -1.2850  0.7596
 6599SOL    HW221239   2.385   1.130  10.492  0.4050 -1.3456  0.9367
 6600SOL     OW21240   7.240   3.087  12.242 -0.3357 -0.2306 -0.2500
 6600SOL    HW121241   7.292   3.160  12.275  0.9630 -0.9947 -0.5211
 6600SOL    HW221242   7.229   3.029  12.318  2.0611 -1.6496 -0.8703
 6601SOL     OW21243   0.999   3.164   2.312 -0.3385  0.2378 -0.0522
 6601SOL    HW121244   1.009   3.069   2.308  2.4398  0.4626 -0.4124
 6601SOL    HW221245   0.947   3.179   2.391 -3.0816 -1.6179 -1.3478
 6602SOL     OW21246   0.519   0.353   0.320  0.6701  0.3355  0.4807
 6602SOL    HW121247   0.466   0.398   0.386 -1.5502 -1.0515 -0.2649
 6602SOL    HW221248   0.456   0.315   0.259  2.5904  1.5947 -2.5554
 6603SOL     OW21249   7.605   2.832   1.341  0.0551 -0.0912 -0.8796
 6603SOL    HW121250   7.591   2.918   1.302 -0.4017  0.3544  0.2297
 6603SOL    HW221251   7.529   2.780   1.313 -0.1230  0.1394 -0.8286
 6604SOL     OW21252   2.602   2.334   6.433  0.3506 -0.0359  0.5179
 6604SOL    HW121253   2.610   2.268   6.364  0.8406 -1.0120  1.4677
 6604SOL    HW221254   2.661   2.405   6.406 -0.9740  0.5355 -1.0467
 6605SOL     OW21255   1.570   4.370   0.875  0.2463  0.3846  0.5914
 6605SOL    HW121256   1.579   4.392   0.782  0.6838 -0.5935  0.3919
 6605SOL    HW221257   1.476   4.361   0.888  0.2656 -1.6110 -0.3007
 6606SOL     OW21258   2.750   7.658   4.200  0.1240 -0.0505 -0.7669
 6606SOL    HW121259   2.684   7.622   4.259  0.3738  0.3603 -0.2251
 6606SOL    HW221260   2.710   7.736   4.163  0.9114  1.2136  0.9142
 6607SOL     OW21261   3.527   1.671   4.588  0.3364  0.1409  0.1976
 6607SOL    HW121262   3.552   1.630   4.505 -1.6180  1.6041 -1.2066
 6607SOL    HW221263   3.584   1.747   4.596 -0.2661  0.6697 -0.4422
 6608SOL     OW21264   7.623   2.104   0.152 -0.1155 -0.0856  0.1365
 6608SOL    HW121265   7.566   2.029   0.172  0.6492 -1.0100 -0.9910
 6608SOL    HW221266   7.653   2.087   0.062  0.7944  1.1147  0.1996
 6609SOL     OW21267   1.017   3.939   2.834 -0.4020  0.2428  0.3567
 6609SOL    HW121268   0.953   3.951   2.904 -0.0487 -0.1967  0.7615
 6609SOL    HW221269   1.004   3.849   2.805  0.9471 -0.3242  1.3903
 6610SOL     OW21270   0.531   3.401   1.760 -0.7875 -0.5614  0.3219
 6610SOL    HW121271   0.594   3.330   1.768  0.6254  0.4563 -1.1087
 6610SOL    HW221272   0.501   3.398   1.670  0.7806  1.7560 -0.3817
 6611SOL     OW21273   1.716   0.373   2.395 -0.2253  0.1559 -0.3013
 6611SOL    HW121274   1.670   0.438   2.448 -0.5238  0.4853 -0.9492
 6611SOL    HW221275   1.807   0.403   2.393 -0.2112  0.1328  0.0342
 6612SOL     OW21276   4.300   3.088  11.659  0.1587 -0.0400 -0.2990
 6612SOL    HW121277   4.348   3.145  11.599 -0.0161 -0.2186 -0.6130
 6612SOL    HW221278   4.302   3.133  11.743  1.2488 -0.2496 -0.1988
 6613SOL     OW21279   0.711   7.763   4.155  0.1933 -0.6430  0.3040
 6613SOL    HW121280   0.685   7.671   4.154 -0.1319 -0.5495 -0.5747
 6613SOL    HW221281   0.628   7.811   4.156  0.3201 -0.3292  2.8632
 6614SOL     OW21282   7.231   7.453   0.580 -0.3167  0.0718 -0.0761
 6614SOL    HW121283   7.242   7.362   0.555 -0.1484  0.2182 -0.5573
 6614SOL    HW221284   7.263   7.503   0.504 -1.7744  0.5241 -0.4321
 6615SOL     OW21285   4.590   7.785   7.879 -0.4513 -0.7723  0.1530
 6615SOL    HW121286   4.561   7.849   7.814  0.0528 -1.3608 -0.6754
 6615SOL    HW221287   4.584   7.701   7.834  1.2473 -1.0569  0.3838
 6616SOL     OW21288   3.043   4.747   5.317  0.7188  0.4882  0.0071
 6616SOL    HW121289   3.046   4.838   5.289 -0.4796  0.4801 -0.1985
 6616SOL    HW221290   3.093   4.746   5.399  1.5241  1.1416 -0.4686
 6617SOL     OW21291   4.289   0.084  11.697 -0.7319  0.0136 -0.2108
 6617SOL    HW121292   4.355   0.032  11.651 -0.7943 -1.0153  0.8277
 6617SOL    HW221293   4.257   0.027  11.766 -1.8151  0.9555  0.0914
 6618SOL     OW21294   1.317   7.262   3.481 -0.0707 -0.3752 -0.2280
 6618SOL    HW121295   1.222   7.272   3.488 -0.1918 -1.0558 -0.7739
 6618SOL    HW221296   1.345   7.236   3.569 -0.3155  0.2913  0.0585
 6619SOL     OW21297   4.752   4.468  10.673  0.3176 -0.4377 -0.1243
 6619SOL    HW121298   4.767   4.505  10.586  0.8654 -2.0448 -0.7463
 6619SOL    HW221299   4.660   4.489  10.692  0.1052 -0.2963 -1.2141
 6620SOL     OW21300   3.362   7.025   7.054  0.1706 -0.1615 -0.1053
 6620SOL    HW121301   3.344   7.083   6.980 -0.8690  0.3890  0.5433
 6620SOL    HW221302   3.323   7.070   7.129  0.4164 -1.1324  0.6249
 6621SOL     OW21303   4.854   0.200   0.690  0.4485  0.2692 -0.0948
 6621SOL    HW121304   4.800   0.184   0.612  0.6996  1.1295 -0.4544
 6621SOL    HW221305   4.846   0.119   0.741 -1.9348  0.6768  0.3269
 6622SOL     OW21306   6.493   5.687   1.353  0.0325 -0.6263  0.3761
 6622SOL    HW121307   6.450   5.638   1.283 -0.7394  0.1989  0.2419
 6622SOL    HW221308   6.505   5.775   1.316  0.1264 -0.3344  1.0824
 6623SOL     OW21309   7.530   0.686   4.569  0.3494  0.4868  0.4965
 6623SOL    HW121310   7.534   0.613   4.508 -0.4919  0.6422  0.2386
 6623SOL    HW221311   7.444   0.725   4.554 -0.3877 -0.1858  2.5872
 6624SOL     OW21312   3.355   7.881   1.530 -0.1652 -0.1977  0.1355
 6624SOL    HW121313   3.334   7.949   1.594 -0.1844 -1.4919  1.5602
 6624SOL    HW221314   3.433   7.914   1.485 -1.2720  1.6147 -0.5652
 6625SOL     OW21315   7.439   1.066   6.772  0.1340  0.3307 -0.2363
 6625SOL    HW121316   7.475   1.139   6.721  1.1067  1.8192  2.3989
 6625SOL    HW221317   7.516   1.012   6.793 -0.1859 -0.0173  0.0557
 6626SOL     OW21318   0.785   2.413   5.139 -0.2111  0.3994 -0.3440
 6626SOL    HW121319   0.868   2.402   5.186  1.3383  0.2287 -2.8981
 6626SOL    HW221320   0.780   2.507   5.120 -0.1300  0.2890 -0.9406
 6627SOL     OW21321   5.570   1.104   7.398 -0.0577  0.2117 -0.6386
 6627SOL    HW121322   5.595   1.196   7.391  2.4859 -0.5096 -2.0350
 6627SOL    HW221323   5.501   1.092   7.333  1.7389  0.5296 -2.7184
 6628SOL     OW21324   6.954   2.395  10.185 -1.0359 -0.2384  0.2230
 6628SOL    HW121325   7.035   2.445  10.199 -1.2490 -0.0755  0.9320
 6628SOL    HW221326   6.891   2.459  10.152 -0.9498 -0.3105 -0.0836
 6629SOL     OW21327   3.968   1.164   8.070 -0.7473  0.3110  0.4369
 6629SOL    HW121328   3.976   1.155   7.975 -0.4789 -0.0381  0.4883
 6629SOL    HW221329   3.880   1.132   8.090 -1.3752  1.7949  0.1450
 6630SOL     OW21330   3.699   2.688   9.841  0.1775 -0.1905  0.2177
 6630SOL    HW121331   3.640   2.747   9.793  0.8952 -0.8234 -1.5501
 6630SOL    HW221332   3.786   2.727   9.830  0.5131 -0.9901 -0.0454
 6631SOL     OW21333   5.306   3.759   0.295 -0.5562  0.5503  0.3700
 6631SOL    HW121334   5.333   3.822   0.362 -0.2690  2.2111 -1.2266
 6631SOL    HW221335   5.376   3.763   0.229 -0.4525 -1.5834  0.2814
 6632SOL     OW21336   1.396   1.785   1.604 -0.4458 -0.1606  0.6609
 6632SOL    HW121337   1.359   1.769   1.517 -0.6244 -0.0093  0.7104
 6632SOL    HW221338   1.469   1.845   1.588 -0.4392 -0.1829  0.6069
 6633SOL     OW21339   6.411   5.806   9.921  0.3575 -0.2585  0.1523
 6633SOL    HW121340   6.338   5.769   9.872 -0.3761 -1.4281  2.0045
 6633SOL    HW221341   6.419   5.896   9.890 -0.9204 -0.5553 -1.1141
 6634SOL     OW21342   1.508   3.786   6.547  0.0309 -0.3624  0.3212
 6634SOL    HW121343   1.490   3.740   6.629  0.8176 -0.8383  0.2404
 6634SOL    HW221344   1.462   3.736   6.480 -0.1204 -0.3238  0.3966
 6635SOL     OW21345   0.353   2.526   2.586  0.5712 -0.7024 -0.2128
 6635SOL    HW121346   0.299   2.572   2.650  2.3171  1.4741 -0.1659
 6635SOL    HW221347   0.298   2.455   2.553 -2.5439  1.7174 -0.6574
 6636SOL     OW21348   4.475   2.344   1.748  0.3462  0.3711 -0.0469
 6636SOL    HW121349   4.432   2.426   1.771 -0.8797 -0.2319 -0.0909
 6636SOL    HW221350   4.478   2.295   1.830  0.2024  0.0842 -0.2117
 6637SOL     OW21351   6.522   1.020   2.875 -0.0963 -0.0583  0.3742
 6637SOL    HW121352   6.517   0.998   2.782  0.0316  1.9256 -0.1432
 6637SOL    HW221353   6.461   1.093   2.885  0.6445  0.3980  1.6482
 6638SOL     OW21354   0.705   6.117   6.611  1.0329 -0.2593 -0.3923
 6638SOL    HW121355   0.619   6.122   6.571 -0.1715 -1.6691  1.8682
 6638SOL    HW221356   0.728   6.024   6.607  2.8852  0.1851 -1.6855
 6639SOL     OW21357   3.467   5.286  10.602 -0.6217  0.1594 -0.7445
 6639SOL    HW121358   3.457   5.197  10.635 -0.0354  0.2029 -0.4414
 6639SOL    HW221359   3.466   5.277  10.506 -1.4768 -0.0628 -0.7211
 6640SOL     OW21360   4.968   1.301  10.359 -0.6596  0.4791  0.1608
 6640SOL    HW121361   4.916   1.379  10.377  0.2189  0.8113  1.4041
 6640SOL    HW221362   4.914   1.228  10.389 -1.0623  0.6848 -0.0566
 6641SOL     OW21363   4.058   6.788   2.552 -0.0085 -0.7406 -0.5980
 6641SOL    HW121364   3.967   6.792   2.583  0.0562 -1.1093 -0.3606
 6641SOL    HW221365   4.079   6.878   2.528 -0.6228 -0.7431 -1.1868
 6642SOL     OW21366   0.925   0.202  10.743 -0.6584  0.4200 -0.0790
 6642SOL    HW121367   0.883   0.139  10.685  1.4964 -2.2176  1.0007
 6642SOL    HW221368   0.908   0.169  10.831  2.1264  0.1267  0.4588
 6643SOL     OW21369   7.646   4.724  11.937 -0.6178  0.2590  0.1666
 6643SOL    HW121370   7.557   4.698  11.959 -0.1411  1.0179  3.5547
 6643SOL    HW221371   7.686   4.747  12.021  3.2997 -1.5829 -0.9554
 6644SOL     OW21372   4.818   6.860  11.903  0.4284 -0.5395 -0.2316
 6644SOL    HW121373   4.786   6.820  11.822  0.9026 -1.6792  0.1284
 6644SOL    HW221374   4.786   6.951  11.899 -1.5684 -1.2052 -0.5947
 6645SOL     OW21375   6.740   6.170   7.145  0.3616 -0.4487 -0.2566
 6645SOL    HW121376   6.678   6.176   7.072 -0.1179 -0.0137  0.1854
 6645SOL    HW221377   6.815   6.122   7.108  0.1075 -0.2752 -1.0199
 6646SOL     OW21378   3.969   5.133   1.250  0.0666 -0.2618 -0.7144
 6646SOL    HW121379   4.050   5.170   1.285 -1.0405  1.9084 -0.2710
 6646SOL    HW221380   3.947   5.189   1.175 -1.6123 -0.0899 -0.1360
 6647SOL     OW21381   2.548   7.850   8.622  0.1409  0.0345 -0.0335
 6647SOL    HW121382   2.502   7.911   8.564 -1.0293 -0.7949 -0.0157
 6647SOL    HW221383   2.631   7.833   8.577  1.8294  3.7406  1.2733
 6648SOL     OW21384   2.172   5.755  11.733  0.2636  0.1056 -0.2184
 6648SOL    HW121385   2.202   5.673  11.692  0.5737  0.1153 -0.0137
 6648SOL    HW221386   2.098   5.783  11.679 -0.2724 -0.6597  0.1008
 6649SOL     OW21387   0.707   2.683   2.488 -0.0195  0.0733 -0.2648
 6649SOL    HW121388   0.734   2.719   2.573  0.5478  1.1657 -0.8832
 6649SOL    HW221389   0.773   2.616   2.469 -0.7750 -0.9784  0.6429
 6650SOL     OW21390   7.606   7.067   1.208  0.0738 -0.5726  0.4347
 6650SOL    HW121391   7.608   7.129   1.281  0.6304  0.0933 -0.1256
 6650SOL    HW221392   7.595   7.122   1.131 -2.2404 -1.3939  0.1203
 6651SOL     OW21393   5.223   4.153   6.722 -0.1844  0.3750 -0.0176
 6651SOL    HW121394   5.265   4.232   6.688  0.1677  0.0302 -0.4008
 6651SOL    HW221395   5.202   4.102   6.644 -1.4636  0.6102  0.1567
 6652SOL     OW21396   1.999   0.834  12.220  0.0320  0.4402  0.2079
 6652SOL    HW121397   2.038   0.875  12.296 -1.0268  0.5854  0.6916
 6652SOL    HW221398   2.030   0.886  12.146  0.8360  0.4728  0.5581
 6653SOL     OW21399   2.489   1.033   2.273 -0.7326 -0.4353  0.1049
 6653SOL    HW121400   2.484   1.128   2.266  0.7680 -0.2004  1.4740
 6653SOL    HW221401   2.554   1.007   2.208  0.6797 -0.1928  1.3511
 6654SOL     OW21402   5.073   5.034   3.426 -0.3339  1.0131 -0.2178
 6654SOL    HW121403   5.131   4.991   3.489  1.9076 -0.1836 -2.8912
 6654SOL    HW221404   4.996   4.978   3.422  0.0590  0.4026  0.4891
 6655SOL     OW21405   2.621   7.053  10.115  0.1364  0.0829 -0.2749
 6655SOL    HW121406   2.590   7.074  10.203  1.5126  0.3744  0.1610
 6655SOL    HW221407   2.689   6.987  10.128 -1.3639 -1.7754 -1.3298
 6656SOL     OW21408   5.624   2.220   3.120 -0.4874  0.3128  0.2107
 6656SOL    HW121409   5.676   2.151   3.079  0.9064  1.0988  0.6148
 6656SOL    HW221410   5.579   2.262   3.046  0.7836  0.7168 -0.3539
 6657SOL     OW21411   0.055   0.194   7.840 -0.6979 -0.0902 -0.1448
 6657SOL    HW121412   0.006   0.129   7.790 -0.4772 -0.3040 -0.0820
 6657SOL    HW221413   0.003   0.206   7.920  0.4335 -1.9425  0.9561
 6658SOL     OW21414   7.825   6.214  10.424 -0.5455  0.3700  0.5486
 6658SOL    HW121415   7.748   6.161  10.407 -0.2625  0.0557  0.2328
 6658SOL    HW221416   7.893   6.176  10.368 -0.7811  2.1302 -1.0411
 6659SOL     OW21417   3.689   1.392   3.911  0.4453 -0.3655  0.1285
 6659SOL    HW121418   3.709   1.361   3.823  1.4259  1.4204 -0.3400
 6659SOL    HW221419   3.619   1.335   3.942 -1.5014  0.3240 -2.6589
 6660SOL     OW21420   0.656   2.009   3.904 -0.3338  0.2991  0.2578
 6660SOL    HW121421   0.737   2.050   3.934  0.0874  0.3997 -0.9447
 6660SOL    HW221422   0.649   2.034   3.812 -1.6542  0.1592  0.2959
 6661SOL     OW21423   0.325   7.917   7.339  0.0095  0.3859  0.8243
 6661SOL    HW121424   0.363   7.829   7.341  1.9131  1.1863  1.7316
 6661SOL    HW221425   0.312   7.936   7.246 -0.3397 -0.8020  0.6111
 6662SOL     OW21426   2.451   1.978   1.705  0.1717  0.1799 -0.1881
 6662SOL    HW121427   2.420   1.893   1.673 -0.7215 -0.0205  1.1330
 6662SOL    HW221428   2.544   1.980   1.682  0.4943 -1.6557  0.7275
 6663SOL     OW21429   4.760   6.300   5.089 -0.0142 -0.2702  0.1045
 6663SOL    HW121430   4.689   6.360   5.112  0.2888 -0.6516  2.3009
 6663SOL    HW221431   4.837   6.336   5.134  0.2922 -1.9334  1.0099
 6664SOL     OW21432   5.008   7.933  10.331 -0.2804 -0.1098  0.3920
 6664SOL    HW121433   5.083   7.899  10.380 -0.6835  1.2884  2.0828
 6664SOL    HW221434   4.967   7.855  10.294  2.7985 -0.8322 -1.9171
 6665SOL     OW21435   5.923   3.246   3.290  0.1498  0.2369 -0.4887
 6665SOL    HW121436   5.967   3.179   3.341  1.4380  0.0852 -1.7264
 6665SOL    HW221437   5.925   3.213   3.200 -0.3018  1.3664 -0.9335
 6666SOL     OW21438   1.428   2.005   3.337 -0.7950  0.5827 -0.2511
 6666SOL    HW121439   1.515   2.042   3.324 -1.2814  1.8021 -0.2364
 6666SOL    HW221440   1.380   2.029   3.257 -0.8637 -0.8711 -0.6627
 6667SOL     OW21441   5.785   4.509   4.367  0.5318 -0.2274  0.0553
 6667SOL    HW121442   5.708   4.474   4.411  0.9788  0.3711  1.3772
 6667SOL    HW221443   5.753   4.540   4.283 -0.8156  0.6013  0.8378
 6668SOL     OW21444   1.299   7.611   9.976  0.1678  0.0381  0.1843
 6668SOL    HW121445   1.227   7.579   9.922 -0.0459  0.4307  0.2340
 6668SOL    HW221446   1.300   7.706   9.962  2.0616 -0.1557 -1.5138
 6669SOL     OW21447   0.900   5.833   1.664  0.6759  1.0005 -0.1977
 6669SOL    HW121448   0.938   5.863   1.747 -0.0273  0.5174  0.3022
 6669SOL    HW221449   0.972   5.786   1.621  0.4182 -0.7339  1.1629
 6670SOL     OW21450   5.919   7.058   0.401  0.5238  0.1137  0.3626
 6670SOL    HW121451   5.997   7.021   0.361  0.8727  1.0172  0.1900
 6670SOL    HW221452   5.935   7.152   0.404 -0.1359  0.2135  1.2421
 6671SOL     OW21453   7.350   2.585   5.707 -0.1022 -0.2110  0.2611
 6671SOL    HW121454   7.433   2.585   5.755  0.2047  1.6964 -0.1613
 6671SOL    HW221455   7.283   2.594   5.775  0.2461  1.0348  0.4733
 6672SOL     OW21456   7.185   4.587   6.097  0.4673 -0.3522 -0.1458
 6672SOL    HW121457   7.242   4.644   6.149  0.0152 -0.4037  0.4095
 6672SOL    HW221458   7.096   4.612   6.122  0.1365  1.1930 -2.5277
 6673SOL     OW21459   6.942   2.281   6.570 -0.3058  0.2171 -0.0886
 6673SOL    HW121460   6.881   2.220   6.613  0.8036 -0.9426 -0.1029
 6673SOL    HW221461   6.970   2.340   6.640 -0.6586  0.1268  0.1342
 6674SOL     OW21462   2.929   6.754  10.231 -0.0791 -0.0492  0.4306
 6674SOL    HW121463   2.933   6.847  10.209  1.5311  0.2902  1.8997
 6674SOL    HW221464   2.985   6.711  10.165  0.1708  0.1986  0.4802
 6675SOL     OW21465   6.759   6.790   3.990  0.4715  0.2414 -0.2500
 6675SOL    HW121466   6.774   6.743   3.908 -1.1543  0.0904 -0.5062
 6675SOL    HW221467   6.679   6.751   4.025  1.6049 -0.3199  1.8899
 6676SOL     OW21468   4.787   6.031  11.367 -0.8730  0.1311 -0.2187
 6676SOL    HW121469   4.873   6.017  11.407 -1.1034 -0.3008  0.1367
 6676SOL    HW221470   4.725   5.997  11.432 -1.2066 -1.4597 -1.3211
 6677SOL     OW21471   7.367   0.928  11.401  0.3234 -0.7082 -0.0343
 6677SOL    HW121472   7.402   0.979  11.328 -0.3613  1.8908  1.3356
 6677SOL    HW221473   7.318   0.857  11.359  1.6156 -0.5088 -2.0307
 6678SOL     OW21474   3.957   0.411   3.783 -0.2042  0.5738  0.1720
 6678SOL    HW121475   3.911   0.418   3.867  1.4220 -0.0118  1.1649
 6678SOL    HW221476   3.994   0.498   3.769  1.9398 -0.0251  1.5902
 6679SOL     OW21477   4.372   1.718   3.385 -0.2078 -0.0740 -0.0084
 6679SOL    HW121478   4.292   1.770   3.393 -1.4105 -1.7234 -0.7064
 6679SOL    HW221479   4.387   1.713   3.290  1.3157  1.0185  0.1391
 6680SOL     OW21480   4.174   6.594   7.853  0.6793 -0.0533  0.2159
 6680SOL    HW121481   4.150   6.620   7.942 -2.2081 -1.0968 -0.1623
 6680SOL    HW221482   4.252   6.539   7.865  0.8585  0.5276  1.9989
 6681SOL     OW21483   6.490   3.218   4.623  0.2281 -0.6717 -0.1198
 6681SOL    HW121484   6.422   3.151   4.618 -0.5744  0.2234 -1.9151
 6681SOL    HW221485   6.496   3.238   4.717 -0.2246 -2.4964  0.3427
 6682SOL     OW21486   5.056   5.881   3.381  0.7718  0.3622 -0.3339
 6682SOL    HW121487   4.985   5.872   3.445 -0.8228  0.2509 -2.0518
 6682SOL    HW221488   5.107   5.956   3.412  0.2051  0.1521  1.1950
 6683SOL     OW21489   7.629   6.821   7.202  0.9454 -0.0809 -0.0957
 6683SOL    HW121490   7.643   6.913   7.224 -0.5104  0.1137  0.1446
 6683SOL    HW221491   7.668   6.810   7.115  0.9707  0.8026 -0.1983
 6684SOL     OW21492   2.390   6.398   1.200 -0.3811 -0.0611 -0.0787
 6684SOL    HW121493   2.304   6.396   1.158 -0.6178  1.0182  0.3178
 6684SOL    HW221494   2.452   6.390   1.128 -0.8070 -1.5303 -0.3068
 6685SOL     OW21495   1.195   7.203  10.865  0.0584 -0.5119 -0.5863
 6685SOL    HW121496   1.242   7.150  10.928 -0.7534  1.0275  1.4245
 6685SOL    HW221497   1.113   7.156  10.850 -0.0701 -0.5201  0.1253
 6686SOL     OW21498   6.871   7.212   2.840 -0.1790 -0.7869  0.0280
 6686SOL    HW121499   6.936   7.233   2.772 -1.0909 -1.9435 -1.2610
 6686SOL    HW221500   6.871   7.288   2.897  0.8629  0.1049 -1.1036
 6687SOL     OW21501   5.129   6.938  12.336  0.2159  0.0054 -0.0341
 6687SOL    HW121502   5.125   6.852  12.293 -2.2957  0.2474 -0.4131
 6687SOL    HW221503   5.142   7.000  12.263  0.7881  0.0616  0.1087
 6688SOL     OW21504   5.685   0.646   1.736  0.1209 -0.1435  0.5593
 6688SOL    HW121505   5.761   0.680   1.690 -0.6635  1.0134  0.0606
 6688SOL    HW221506   5.621   0.630   1.666 -0.3817 -0.2993  1.0516
 6689SOL     OW21507   4.175   3.738   7.889  0.0394 -0.1674 -0.6511
 6689SOL    HW121508   4.173   3.711   7.797  0.5593  3.3575 -1.8279
 6689SOL    HW221509   4.249   3.797   7.896 -1.4159  1.5991  1.4159
 6690SOL     OW21510   3.978   4.182   3.824 -0.2442 -0.3989 -0.2069
 6690SOL    HW121511   4.028   4.102   3.806 -0.6958 -0.6445 -0.3866
 6690SOL    HW221512   3.938   4.167   3.910  0.8854  0.2557  0.4567
 6691SOL     OW21513   3.924   6.181   5.280 -0.0414  0.1966 -0.4253
 6691SOL    HW121514   3.848   6.154   5.229 -1.1581 -0.9219  1.6973
 6691SOL    HW221515   3.900   6.163   5.371  2.6553  0.0861  0.3591
 6692SOL     OW21516   7.269   6.391   8.051 -0.2283 -0.2569 -0.0845
 6692SOL    HW121517   7.186   6.345   8.063  0.2246 -1.0621  0.0182
 6692SOL    HW221518   7.254   6.448   7.975 -0.7737 -0.6281 -0.2627
 6693SOL     OW21519   5.428   6.974   6.207 -0.5037  0.0567  0.4159
 6693SOL    HW121520   5.415   6.884   6.175  0.0620  0.3727 -0.7620
 6693SOL    HW221521   5.428   7.027   6.127 -1.2139  1.1595  1.1324
 6694SOL     OW21522   3.420   5.929   5.526 -0.3527  0.5135  0.9673
 6694SOL    HW121523   3.333   5.895   5.507 -1.0795  1.7334  1.9964
 6694SOL    HW221524   3.441   5.897   5.614 -0.5934  1.7719  1.5054
 6695SOL     OW21525   3.612   0.909   8.161  0.5499  0.1433  0.4660
 6695SOL    HW121526   3.661   0.917   8.079 -1.0052 -0.3814 -0.5590
 6695SOL    HW221527   3.625   0.817   8.187 -0.4128 -0.1997 -0.1912
 6696SOL     OW21528   2.223   1.792  12.173  0.6962  0.4801  0.1048
 6696SOL    HW121529   2.219   1.878  12.132 -0.0563  0.6734  0.5502
 6696SOL    HW221530   2.250   1.809  12.263 -0.2098  0.3492  0.4172
 6697SOL     OW21531   5.645   3.286  10.488  0.0635 -0.0786  0.0873
 6697SOL    HW121532   5.578   3.218  10.476  0.1412 -0.5439  1.9482
 6697SOL    HW221533   5.612   3.340  10.559  1.0539  0.4759  0.1484
 6698SOL     OW21534   1.195   1.511   2.471  0.2337 -0.1050 -0.6326
 6698SOL    HW121535   1.224   1.461   2.394 -0.2286 -1.1314 -0.1548
 6698SOL    HW221536   1.249   1.478   2.543 -0.1267  0.0357 -0.2944
 6699SOL     OW21537   6.872   1.663   4.569 -0.1199  0.6527 -0.1017
 6699SOL    HW121538   6.927   1.739   4.550  2.2019  0.0845  3.4098
 6699SOL    HW221539   6.802   1.699   4.625  0.2228  0.4389  0.4705
 6700SOL     OW21540   0.815   7.499   3.067  0.3941  0.2979  0.5790
 6700SOL    HW121541   0.829   7.419   3.118  0.8156  0.0829  0.1433
 6700SOL    HW221542   0.778   7.562   3.129 -0.5867 -0.4420  0.7704
 6701SOL     OW21543   0.341   6.723   1.131 -0.0409  0.0752  0.2731
 6701SOL    HW121544   0.390   6.654   1.176 -0.0267 -0.3615 -0.3879
 6701SOL    HW221545   0.398   6.799   1.133  0.5460 -0.3378 -0.2067
 6702SOL     OW21546   1.379   1.991   6.788  0.7261 -0.3490  0.2511
 6702SOL    HW121547   1.424   1.915   6.825  1.1382 -0.0746  0.3185
 6702SOL    HW221548   1.439   2.024   6.721 -0.7508 -1.9280 -2.0362
 6703SOL     OW21549   3.787   3.108  10.679 -0.2225 -0.2690  0.4814
 6703SOL    HW121550   3.777   3.131  10.587  1.3895 -0.9355  0.1005
 6703SOL    HW221551   3.754   3.018  10.685  0.5370 -0.5708  0.3267
 6704SOL     OW21552   6.134   1.814   5.378 -0.1502 -0.6113  0.4750
 6704SOL    HW121553   6.144   1.740   5.438 -0.3844 -1.4656 -0.5090
 6704SOL    HW221554   6.040   1.832   5.379  0.2679  2.5332  3.9865
 6705SOL     OW21555   1.870   4.613  12.269  0.3712 -0.1358 -0.3277
 6705SOL    HW121556   1.936   4.682  12.277  1.1127 -0.9001  0.2903
 6705SOL    HW221557   1.859   4.580  12.358  0.8099 -1.5161 -0.7557
 6706SOL     OW21558   4.360   3.539  11.135 -0.5034 -0.4174  0.1509
 6706SOL    HW121559   4.424   3.600  11.097  0.3504 -1.1076  0.4548
 6706SOL    HW221560   4.299   3.595  11.183 -1.1121  0.4071 -1.4907
 6707SOL     OW21561   7.570   5.968   1.045 -0.1537 -0.4594 -0.1724
 6707SOL    HW121562   7.522   6.037   1.090  1.0995  0.0003  0.4948
 6707SOL    HW221563   7.517   5.948   0.967 -0.3531  1.5115 -0.5797
 6708SOL     OW21564   7.810   3.934   2.073 -0.0841  0.0130 -0.6158
 6708SOL    HW121565   7.777   4.022   2.092  0.1583 -0.2983  1.3976
 6708SOL    HW221566   7.768   3.911   1.990 -1.3063  1.4418 -0.4410
 6709SOL     OW21567   2.369   7.435   9.709 -0.3536  0.6297 -0.1206
 6709SOL    HW121568   2.377   7.365   9.644 -1.8921  1.3216 -1.1146
 6709SOL    HW221569   2.452   7.434   9.756 -0.6605 -2.4879  0.5570
 6710SOL     OW21570   4.448   7.879  11.594 -0.4554 -0.2679 -0.8367
 6710SOL    HW121571   4.539   7.886  11.625 -0.9795 -1.1756  1.1197
 6710SOL    HW221572   4.446   7.797  11.545 -0.3974 -0.7416 -0.0700
 6711SOL     OW21573   5.248   2.227   6.230 -0.4007 -0.5460  0.1822
 6711SOL    HW121574   5.198   2.307   6.214 -0.4907 -0.6332  0.0250
 6711SOL    HW221575   5.300   2.215   6.150  0.3307 -0.1226  0.5795
 6712SOL     OW21576   3.809   7.577   3.091 -0.7978  0.5082  0.5572
 6712SOL    HW121577   3.820   7.529   3.009 -0.6303  1.1608  0.1869
 6712SOL    HW221578   3.823   7.512   3.159 -0.3314  0.0847  0.0657
 6713SOL     OW21579   3.095   1.044   9.834  0.3754 -0.2934  0.2112
 6713SOL    HW121580   3.140   1.009   9.910  1.5154  1.2782  0.3169
 6713SOL    HW221581   3.072   1.134   9.860 -0.0386 -0.0447 -0.9676
 6714SOL     OW21582   2.374   3.858   0.548 -0.2470  0.0626 -0.2715
 6714SOL    HW121583   2.425   3.921   0.498  0.4897  0.8949  1.4455
 6714SOL    HW221584   2.435   3.787   0.566 -0.4900 -0.2029 -0.4881
 6715SOL     OW21585   0.782   2.341   2.689  0.2180  0.2795 -0.0595
 6715SOL    HW121586   0.759   2.293   2.610  0.4688 -0.3033  0.2215
 6715SOL    HW221587   0.724   2.417   2.688 -1.1058 -0.7011  0.1721
 6716SOL     OW21588   5.997   6.195   0.236  0.3310 -0.0337  0.3282
 6716SOL    HW121589   5.943   6.191   0.157 -0.7498 -3.1121  1.0798
 6716SOL    HW221590   6.086   6.208   0.203 -0.3381  0.8884 -1.2351
 6717SOL     OW21591   6.609   7.529   9.557  0.1454 -0.3451  0.0523
 6717SOL    HW121592   6.672   7.532   9.630 -0.0624  2.8073  0.2565
 6717SOL    HW221593   6.663   7.516   9.479  0.7831 -0.0871  0.4440
 6718SOL     OW21594   3.796   2.602  11.031 -0.2241  0.5726  0.1408
 6718SOL    HW121595   3.717   2.655  11.038 -0.4068  0.3675 -0.3120
 6718SOL    HW221596   3.765   2.512  11.028 -0.0457  0.5273 -0.9566
 6719SOL     OW21597   4.087   5.778  11.946  0.0271 -0.2466  0.2504
 6719SOL    HW121598   3.998   5.752  11.922  0.0467  0.3415 -0.4965
 6719SOL    HW221599   4.077   5.827  12.028 -0.1560 -1.4385  0.9669
 6720SOL     OW21600   4.657   6.289   2.541 -0.2744  0.2661 -0.1767
 6720SOL    HW121601   4.695   6.367   2.582 -2.3541 -0.0242  2.6655
 6720SOL    HW221602   4.577   6.320   2.498 -1.1932 -0.2364  1.0961
 6721SOL     OW21603   4.936   5.677   1.672  0.0686  0.4465  0.3112
 6721SOL    HW121604   4.912   5.743   1.608 -1.8471  0.5220  1.0601
 6721SOL    HW221605   4.910   5.594   1.632  0.5918  0.3179  0.2286
 6722SOL     OW21606   1.337   6.010   9.982 -0.5989 -0.3328  0.5694
 6722SOL    HW121607   1.291   5.936  10.023 -0.3668 -1.6658 -1.4498
 6722SOL    HW221608   1.334   5.991   9.889 -0.9365  2.4966 -0.0688
 6723SOL     OW21609   3.371   2.185  11.465  0.9389  0.1172  0.6854
 6723SOL    HW121610   3.418   2.175  11.382  0.7821  0.5520  0.5431
 6723SOL    HW221611   3.364   2.279  11.477 -0.5172  0.0701  0.3651
 6724SOL     OW21612   0.775   6.376  10.831 -0.0249 -0.4478 -0.9757
 6724SOL    HW121613   0.811   6.318  10.899 -1.0308 -1.0636 -0.9569
 6724SOL    HW221614   0.824   6.352  10.752  0.0333 -0.8519 -0.8229
 6725SOL     OW21615   1.406   6.721   3.815 -0.3632  0.4451  0.0336
 6725SOL    HW121616   1.496   6.749   3.799 -0.2020  2.5189  3.5886
 6725SOL    HW221617   1.357   6.757   3.741  1.5854 -0.5704 -1.8922
 6726SOL     OW21618   0.855   2.741   2.105  0.3628 -0.0522 -0.2211
 6726SOL    HW121619   0.830   2.830   2.079  0.0399 -0.1305 -0.1850
 6726SOL    HW221620   0.937   2.724   2.059 -1.5542 -1.2805 -3.5501
 6727SOL     OW21621   4.229   1.075  10.517 -0.2703 -0.2867  0.4219
 6727SOL    HW121622   4.134   1.092  10.511  0.1231  2.5092  0.5215
 6727SOL    HW221623   4.248   1.084  10.610  0.4706  2.3586  0.1128
 6728SOL     OW21624   5.977   7.903   6.381  0.3425 -0.0980  0.4099
 6728SOL    HW121625   6.003   7.843   6.312  0.9981  1.1471 -0.4531
 6728SOL    HW221626   5.885   7.881   6.398 -0.2758  0.4641 -1.8407
 6729SOL     OW21627   6.688   3.208   6.445 -0.2572 -0.3819 -0.4353
 6729SOL    HW121628   6.694   3.297   6.411  0.2872 -0.2926 -0.1263
 6729SOL    HW221629   6.635   3.216   6.524  0.7742 -0.1198  0.2537
 6730SOL     OW21630   6.825   4.518  10.757 -0.0551  0.1310  0.1542
 6730SOL    HW121631   6.858   4.462  10.828  0.3915  0.3703  0.1371
 6730SOL    HW221632   6.757   4.571  10.799  0.1721  0.2354  0.3957
 6731SOL     OW21633   5.499   5.437   0.325  0.0285 -0.3387 -0.2198
 6731SOL    HW121634   5.410   5.410   0.349 -0.0152  1.3812  1.7895
 6731SOL    HW221635   5.530   5.489   0.399  2.1220  0.4851 -1.5703
 6732SOL     OW21636   0.864   0.144   8.116 -0.2912  0.1591 -0.1260
 6732SOL    HW121637   0.955   0.130   8.090  0.2294  1.4282  0.9115
 6732SOL    HW221638   0.869   0.190   8.200 -1.8865  0.4247 -0.1355
 6733SOL     OW21639   2.247   0.544   8.347 -0.0654  0.5720  0.1110
 6733SOL    HW121640   2.319   0.514   8.292  0.3777  1.2774  0.2936
 6733SOL    HW221641   2.254   0.491   8.426 -0.9537 -0.7359 -0.6411
 6734SOL     OW21642   7.761   4.512   1.412  0.9101 -0.1375  0.1643
 6734SOL    HW121643   7.708   4.487   1.487  0.7407 -0.4471 -0.0566
 6734SOL    HW221644   7.708   4.575   1.363  1.2333  0.4763  0.5828
 6735SOL     OW21645   0.006   7.557  11.941 -0.0573 -0.6707  0.1081
 6735SOL    HW121646  -0.079   7.513  11.937 -0.7712  0.7097 -2.2161
 6735SOL    HW221647  -0.016   7.650  11.955  1.0778 -0.3504 -0.1316
 6736SOL     OW21648   5.737   7.849  11.530  0.4360 -0.7596 -0.2053
 6736SOL    HW121649   5.803   7.782  11.547  0.4233 -0.9424 -0.8363
 6736SOL    HW221650   5.733   7.900  11.610  0.7792 -1.2315  0.1188
 6737SOL     OW21651   4.625   4.395   9.725  0.0447  0.4005 -0.1802
 6737SOL    HW121652   4.677   4.354   9.794  0.0515  0.1561 -0.3306
 6737SOL    HW221653   4.547   4.428   9.770  0.6885  1.4613  0.1816
 6738SOL     OW21654   1.018   1.776   3.805  0.0293  0.1257 -0.2855
 6738SOL    HW121655   1.055   1.845   3.749 -0.3482  0.9067  0.4150
 6738SOL    HW221656   1.075   1.701   3.790  1.4114  1.0488  0.1257
 6739SOL     OW21657   3.612   6.127   7.122 -0.0150  0.2458  0.4454
 6739SOL    HW121658   3.625   6.172   7.039  1.0598 -0.5858  0.1419
 6739SOL    HW221659   3.568   6.045   7.098 -0.5938  0.4327  0.8271
 6740SOL     OW21660   3.689   3.276  10.188  0.2522 -0.3906  0.1185
 6740SOL    HW121661   3.756   3.344  10.190  0.2025 -0.3626  1.0319
 6740SOL    HW221662   3.635   3.299  10.112  0.4387  0.3952  0.2138
 6741SOL     OW21663   7.960   1.459   3.233  0.0320 -0.1724  0.5151
 6741SOL    HW121664   8.036   1.512   3.210 -0.1198 -0.3002 -0.3157
 6741SOL    HW221665   7.933   1.418   3.151 -0.1487 -1.1582  1.0420
 6742SOL     OW21666   3.880   0.124   5.460 -0.2295  0.1102  0.3858
 6742SOL    HW121667   3.809   0.074   5.422 -2.1608  1.8145  1.5317
 6742SOL    HW221668   3.935   0.148   5.386 -1.3920 -0.4190 -0.6808
 6743SOL     OW21669   1.254   6.235  12.291  0.3152 -0.1090 -0.5368
 6743SOL    HW121670   1.245   6.300  12.222 -1.3064  0.1799 -0.0859
 6743SOL    HW221671   1.334   6.187  12.269 -0.7472 -0.7907 -3.2521
 6744SOL     OW21672   7.320   3.744   7.272 -0.1422  0.2349  0.3952
 6744SOL    HW121673   7.396   3.716   7.222 -0.3991 -1.3211  0.8070
 6744SOL    HW221674   7.322   3.688   7.350 -2.3367 -0.6920 -0.1387
 6745SOL     OW21675   3.049   1.232   4.147 -0.8011 -0.0650 -0.3599
 6745SOL    HW121676   3.057   1.140   4.172 -0.7499  0.7390  3.0711
 6745SOL    HW221677   2.957   1.252   4.159 -0.5897  0.6152  0.2127
 6746SOL     OW21678   4.467   1.477   5.669  0.5163 -0.2874  0.0195
 6746SOL    HW121679   4.443   1.525   5.748 -0.2326 -0.4858 -0.0796
 6746SOL    HW221680   4.489   1.544   5.605  0.7584 -0.1191  0.2734
 6747SOL     OW21681   3.317   3.920   9.930 -0.0360  0.2159 -0.4524
 6747SOL    HW121682   3.321   3.959  10.017  0.7949 -0.1581 -0.3178
 6747SOL    HW221683   3.245   3.966   9.887 -0.0358  0.8553  0.2068
 6748SOL     OW21684   6.884   2.733   8.356  0.3107 -0.1627 -0.5118
 6748SOL    HW121685   6.815   2.698   8.411  0.3070 -0.3083 -0.6081
 6748SOL    HW221686   6.936   2.789   8.414  1.5811 -1.9695  0.1773
 6749SOL     OW21687   1.138   2.538   6.611 -0.2911  0.3044  0.5000
 6749SOL    HW121688   1.146   2.484   6.690 -1.2329 -0.3133  0.1933
 6749SOL    HW221689   1.055   2.510   6.571  0.0539  0.7770 -0.5804
 6750SOL     OW21690   6.124   0.159   2.202  0.1283 -0.1556  0.1261
 6750SOL    HW121691   6.138   0.142   2.295  1.6657 -0.5117 -0.1409
 6750SOL    HW221692   6.131   0.254   2.193  1.7140 -0.2490  0.1416
 6751SOL     OW21693   3.236   3.645  11.842  0.4655 -0.3799 -0.5902
 6751SOL    HW121694   3.279   3.587  11.905  0.5717  2.4974  2.2458
 6751SOL    HW221695   3.159   3.597  11.814  1.8921 -2.9032 -0.4871
 6752SOL     OW21696   5.951   4.565   8.961 -0.1655 -0.3711  0.7112
 6752SOL    HW121697   5.974   4.640   9.016  0.6543 -0.4847  0.5412
 6752SOL    HW221698   5.971   4.594   8.872 -3.4182  0.5692  0.1648
 6753SOL     OW21699   7.607   4.302  10.847 -0.0992 -0.5809 -0.1374
 6753SOL    HW121700   7.636   4.271  10.760  0.8622  0.8864 -0.3717
 6753SOL    HW221701   7.685   4.343  10.884 -1.6600  3.1040 -0.5685
 6754SOL     OW21702   4.908   0.168  11.457 -0.5758 -0.0989  0.0587
 6754SOL    HW121703   4.934   0.105  11.525  0.5636 -0.9850 -1.1317
 6754SOL    HW221704   4.966   0.243  11.471  0.3733 -0.6935 -0.5037
 6755SOL     OW21705   1.759   0.778  11.979  0.1425 -0.2416  0.2529
 6755SOL    HW121706   1.767   0.743  11.891 -0.2864 -1.6864  0.7591
 6755SOL    HW221707   1.807   0.716  12.034 -0.6344 -0.0382  1.1890
 6756SOL     OW21708   5.606   0.084   8.988  0.5641  0.3256 -0.4389
 6756SOL    HW121709   5.667   0.157   9.000 -1.0733  1.5431  0.9074
 6756SOL    HW221710   5.548   0.088   9.064 -1.8799 -0.0887 -2.1523
 6757SOL     OW21711   6.295   3.989   1.528 -0.5850 -0.1148 -0.0747
 6757SOL    HW121712   6.359   3.924   1.500 -0.9205 -0.9267  1.0022
 6757SOL    HW221713   6.340   4.040   1.595 -1.0607 -0.6975  0.6943
 6758SOL     OW21714   5.344   6.676   1.905 -0.1478  0.0959 -0.0102
 6758SOL    HW121715   5.285   6.630   1.965  1.1509 -0.3751  0.9709
 6758SOL    HW221716   5.287   6.724   1.846 -1.5012 -0.5229  0.7590
 6759SOL     OW21717   3.406   0.333   2.929  0.5177 -0.4628  0.1404
 6759SOL    HW121718   3.497   0.363   2.934  0.0418  0.8613  1.6898
 6759SOL    HW221719   3.394   0.283   3.010 -0.6371  0.9504  0.8767
 6760SOL     OW21720   6.498   2.619   3.850 -0.6828 -0.4681 -0.0840
 6760SOL    HW121721   6.547   2.595   3.771  1.3696 -1.3354  1.3477
 6760SOL    HW221722   6.426   2.674   3.818 -0.1943 -1.1300 -2.5725
 6761SOL     OW21723   5.300   2.412   7.799 -0.2253 -0.2402 -1.3839
 6761SOL    HW121724   5.225   2.362   7.767 -0.6651  0.6780 -1.8455
 6761SOL    HW221725   5.261   2.489   7.842  0.3320 -1.4477  1.5160
 6762SOL     OW21726   3.571   1.472  11.549 -0.5606  0.5176 -0.6230
 6762SOL    HW121727   3.509   1.412  11.507 -0.4866 -0.0159  0.0015
 6762SOL    HW221728   3.517   1.540  11.588 -0.6752  0.6385 -0.9896
 6763SOL     OW21729   1.281   3.094   7.200 -0.8067  0.0351  0.0654
 6763SOL    HW121730   1.356   3.042   7.228 -0.3123  0.1260 -1.0373
 6763SOL    HW221731   1.297   3.181   7.238 -0.1206  0.1752 -0.5255
 6764SOL     OW21732   7.456   1.027  11.875  0.0752  0.1775  0.0275
 6764SOL    HW121733   7.402   1.085  11.929 -0.1230  2.9562 -2.8637
 6764SOL    HW221734   7.410   1.024  11.791  1.3466 -2.3810 -0.6642
 6765SOL     OW21735   6.697   3.591   2.353  0.3459 -0.5725 -0.2979
 6765SOL    HW121736   6.620   3.648   2.349 -0.2225 -1.2182  1.0776
 6765SOL    HW221737   6.741   3.615   2.435  1.1055 -0.8502 -0.6119
 6766SOL     OW21738   5.075   6.159   2.308 -0.4797  0.6265  0.2366
 6766SOL    HW121739   5.017   6.222   2.265 -0.7347  0.8165  0.8468
 6766SOL    HW221740   5.155   6.160   2.254 -0.0203  2.3478  0.8645
 6767SOL     OW21741   3.440   6.695   1.973  0.4322  0.0331  0.6232
 6767SOL    HW121742   3.399   6.659   1.895  0.6813  0.8074  0.1205
 6767SOL    HW221743   3.372   6.750   2.013  0.4075 -0.1049  0.7710
 6768SOL     OW21744   6.806   6.978  11.496  0.0533  0.4086  0.1173
 6768SOL    HW121745   6.732   6.918  11.499  0.1908  0.0718 -2.0467
 6768SOL    HW221746   6.879   6.926  11.461  1.0362  1.0362  1.1318
 6769SOL     OW21747   5.365   2.329   5.554  0.8187 -0.3016 -0.2177
 6769SOL    HW121748   5.374   2.283   5.471  2.4260 -0.1530 -0.1704
 6769SOL    HW221749   5.441   2.388   5.557 -0.9788  2.1760 -0.1485
 6770SOL     OW21750   0.336   2.017   1.592  0.3391 -0.5001  0.1477
 6770SOL    HW121751   0.317   1.991   1.502  0.0332  2.7701 -0.8756
 6770SOL    HW221752   0.258   2.065   1.621  0.5309 -1.2581  2.1018
 6771SOL     OW21753   7.196   1.813   6.592  0.5817 -0.2399  0.5404
 6771SOL    HW121754   7.141   1.819   6.515  1.4959 -1.8042 -0.2974
 6771SOL    HW221755   7.154   1.747   6.647  0.8163 -0.3498  0.5902
 6772SOL     OW21756   5.906   0.179   6.950  0.0310  0.0179  0.0345
 6772SOL    HW121757   5.859   0.188   6.867  1.6609  0.3544 -0.8873
 6772SOL    HW221758   5.907   0.084   6.966  1.5132 -0.2652 -1.4514
 6773SOL     OW21759   6.432   4.858   8.397 -0.0077  0.1158 -0.3809
 6773SOL    HW121760   6.507   4.799   8.386 -0.2292 -0.0947 -0.8055
 6773SOL    HW221761   6.470   4.943   8.419  0.5312  0.6648 -3.0875
 6774SOL     OW21762   1.962   1.355   3.469 -0.0951  0.0299  0.2288
 6774SOL    HW121763   2.012   1.277   3.495  0.1572 -0.3070 -1.1898
 6774SOL    HW221764   2.020   1.428   3.492  1.0470 -0.3496 -1.2333
 6775SOL     OW21765   3.086   4.387   8.581  0.5357 -0.4020  0.0170
 6775SOL    HW121766   3.149   4.356   8.517  0.4083  2.0920 -1.4537
 6775SOL    HW221767   3.002   4.387   8.535  0.3500  0.9496  0.3054
 6776SOL     OW21768   0.014   6.943   1.207  0.4337  0.0166 -0.2561
 6776SOL    HW121769   0.060   7.019   1.172  1.4157 -0.9434 -1.1376
 6776SOL    HW221770  -0.062   6.933   1.150  0.0703  0.5789  0.1240
 6777SOL     OW21771   5.658   3.375  11.605  0.7587 -1.1904 -0.2522
 6777SOL    HW121772   5.583   3.429  11.582  0.2370 -2.5220 -1.9324
 6777SOL    HW221773   5.723   3.395  11.538  2.3955  0.7405  1.7940
 6778SOL     OW21774   7.476   7.394   2.504 -0.0208  0.4057  0.6417
 6778SOL    HW121775   7.454   7.307   2.536  1.4326  0.2448  1.2538
 6778SOL    HW221776   7.399   7.447   2.524 -1.0327 -0.7727  0.0242
 6779SOL     OW21777   6.184   1.425   0.998  0.5869 -0.2960  0.4532
 6779SOL    HW121778   6.205   1.498   0.939  0.4270  0.3038  1.1363
 6779SOL    HW221779   6.094   1.441   1.026  0.4934 -0.8442  0.4861
 6780SOL     OW21780   5.302   6.123   4.902  0.5571  0.2224 -0.0960
 6780SOL    HW121781   5.303   6.034   4.937 -1.8758  0.1811  0.0455
 6780SOL    HW221782   5.215   6.132   4.863  1.0757  2.2567 -0.9111
 6781SOL     OW21783   6.352   0.808  11.463 -0.3995  0.3970  0.3393
 6781SOL    HW121784   6.315   0.721  11.478 -1.0567  0.7600  0.8768
 6781SOL    HW221785   6.332   0.857  11.543  0.7294  0.7921  0.4094
 6782SOL     OW21786   0.260   2.794   4.940  0.4436  0.7061 -0.0177
 6782SOL    HW121787   0.191   2.728   4.945  0.1281  0.8705 -1.6874
 6782SOL    HW221788   0.233   2.851   4.868  2.3118  0.7966 -0.6766
 6783SOL     OW21789   1.762   3.756   6.626 -0.1931 -0.2028  0.0764
 6783SOL    HW121790   1.684   3.789   6.583 -0.4063 -0.0048  0.5964
 6783SOL    HW221791   1.744   3.766   6.720 -0.5557 -2.4654  0.2957
 6784SOL     OW21792   3.888   3.702   2.445  0.5255  0.2236  0.4416
 6784SOL    HW121793   3.931   3.787   2.430  0.3301 -0.0511 -2.0337
 6784SOL    HW221794   3.961   3.641   2.461  0.7811  0.5076  0.3782
 6785SOL     OW21795   6.745   5.060   9.711 -0.0101 -0.1100 -0.2734
 6785SOL    HW121796   6.782   4.973   9.694 -1.4851 -0.4579 -2.0561
 6785SOL    HW221797   6.657   5.043   9.743 -1.1738  0.6402 -2.7879
 6786SOL     OW21798   5.782   5.605  11.414 -0.1933 -0.2287  0.1740
 6786SOL    HW121799   5.763   5.525  11.365 -0.0986  0.5480 -1.1920
 6786SOL    HW221800   5.845   5.652  11.359 -0.6295  1.0157  0.7001
 6787SOL     OW21801   3.109   5.183   2.251 -0.4968  0.4751  0.5388
 6787SOL    HW121802   3.090   5.219   2.338 -1.1342 -0.5433  0.8337
 6787SOL    HW221803   3.198   5.213   2.232 -0.5044  1.0555  1.3601
 6788SOL     OW21804   1.264   1.911   2.696 -0.1762 -0.0612  0.9321
 6788SOL    HW121805   1.194   1.852   2.669 -0.0792  0.4439 -0.4765
 6788SOL    HW221806   1.340   1.884   2.645 -0.2538  1.5583 -0.1286
 6789SOL     OW21807   0.512   7.170   5.893  0.4267 -0.0374 -0.0317
 6789SOL    HW121808   0.460   7.091   5.908  0.1330  0.1292 -0.1756
 6789SOL    HW221809   0.448   7.237   5.868  0.8117 -0.0650 -1.1056
 6790SOL     OW21810   1.664   3.355   4.962 -0.4790 -0.4928  0.3329
 6790SOL    HW121811   1.611   3.434   4.971  0.5570  0.1605  0.8278
 6790SOL    HW221812   1.621   3.291   5.018 -0.5525  0.1288  0.9946
 6791SOL     OW21813   4.277   2.096   9.173  0.2340  0.2718  0.1898
 6791SOL    HW121814   4.191   2.099   9.130 -0.1991  1.0075  1.0771
 6791SOL    HW221815   4.270   2.024   9.236  0.2466  0.3792  0.3138
 6792SOL     OW21816   6.139   7.208   7.692  0.2493  0.0430 -0.2489
 6792SOL    HW121817   6.130   7.172   7.604 -0.3335  1.7790 -0.9355
 6792SOL    HW221818   6.205   7.276   7.683  1.7446 -1.1296  1.1417
 6793SOL     OW21819   7.212   0.089   1.654  0.2742 -0.6696  0.1201
 6793SOL    HW121820   7.294   0.080   1.606  0.2765 -1.4507  0.2595
 6793SOL    HW221821   7.145   0.054   1.596  0.1482 -0.7520  0.3126
 6794SOL     OW21822   0.804   0.792  11.889 -0.2062  0.0445  0.3674
 6794SOL    HW121823   0.883   0.797  11.836 -0.1594  0.1710  0.4499
 6794SOL    HW221824   0.765   0.707  11.866  0.3099 -0.3195  0.8313
 6795SOL     OW21825   0.279   6.587   6.295 -0.5127  0.4870 -0.2971
 6795SOL    HW121826   0.363   6.595   6.340 -0.0922  1.2947 -1.2100
 6795SOL    HW221827   0.214   6.591   6.366  0.0954  2.4429  0.2060
 6796SOL     OW21828   3.034   0.214   7.225  0.2586 -0.7696  0.8157
 6796SOL    HW121829   2.943   0.243   7.215  0.8977  0.8601 -0.9516
 6796SOL    HW221830   3.077   0.245   7.146  2.6061 -0.5139  2.1171
 6797SOL     OW21831   6.434   2.540   0.096 -0.8214 -0.0807  0.1700
 6797SOL    HW121832   6.459   2.448   0.084 -1.4354 -0.4962  1.8117
 6797SOL    HW221833   6.349   2.536   0.140 -0.9850  1.2872  0.0088
 6798SOL     OW21834   0.447   6.981   7.670 -0.1721 -0.6401  0.0590
 6798SOL    HW121835   0.495   6.933   7.737  1.4401  1.9052  0.8689
 6798SOL    HW221836   0.496   6.965   7.589  0.1153 -0.7186  0.2465
 6799SOL     OW21837   7.190   0.426   3.333 -0.1308  0.4008 -0.4370
 6799SOL    HW121838   7.235   0.475   3.402  0.1704  0.1585 -0.4554
 6799SOL    HW221839   7.244   0.441   3.255  0.8310 -1.1653 -0.1222
 6800SOL     OW21840   3.740   3.762   7.945 -0.1365  0.4348  0.4217
 6800SOL    HW121841   3.741   3.808   7.862 -0.1022  2.2895  1.4018
 6800SOL    HW221842   3.690   3.819   8.004  0.5908 -0.3887  1.9039
 6801SOL     OW21843   5.798   3.719  10.670 -0.1682 -0.2342 -0.1351
 6801SOL    HW121844   5.737   3.780  10.712  0.6271  0.3710  0.1777
 6801SOL    HW221845   5.858   3.775  10.620  0.6663 -0.7313  0.2735
 6802SOL     OW21846   1.686   3.499   0.064  0.0479 -0.1240 -0.5604
 6802SOL    HW121847   1.725   3.414   0.085 -0.9825 -0.5656 -0.3718
 6802SOL    HW221848   1.612   3.478   0.007 -0.6362  0.5801  0.0457
 6803SOL     OW21849   5.993   5.571  12.295 -0.1455  0.2796  0.7034
 6803SOL    HW121850   6.066   5.584  12.355 -0.2691 -1.5747  1.2870
 6803SOL    HW221851   6.035   5.557  12.210  0.1608 -0.0631  0.9075
 6804SOL     OW21852   1.857   2.108   7.157  0.5073 -0.2404 -0.3694
 6804SOL    HW121853   1.762   2.123   7.161  0.4975 -0.3622 -0.0965
 6804SOL    HW221854   1.896   2.190   7.187  0.4598 -0.6310  0.8263
 6805SOL     OW21855   5.931   1.300   1.245  0.3087 -0.5030  0.1919
 6805SOL    HW121856   5.881   1.221   1.266 -0.8148  0.1150 -0.0755
 6805SOL    HW221857   5.872   1.372   1.266 -0.4080  0.2112 -3.6056
 6806SOL     OW21858   0.777   5.403   8.624 -0.2387 -0.2282  0.2283
 6806SOL    HW121859   0.757   5.494   8.643 -1.4966 -0.5160  0.3840
 6806SOL    HW221860   0.847   5.380   8.685 -0.3745  0.4352  0.6408
 6807SOL     OW21861   7.321   3.600   0.311  0.0529 -0.0869  0.0828
 6807SOL    HW121862   7.271   3.532   0.356 -0.3250  0.4531  0.4878
 6807SOL    HW221863   7.257   3.641   0.253  0.5272 -0.7567 -0.9448
 6808SOL     OW21864   0.741   7.259  12.160 -0.0909  0.0063 -0.0686
 6808SOL    HW121865   0.755   7.351  12.181  0.0999  0.2504 -1.1946
 6808SOL    HW221866   0.647   7.245  12.172  0.1033 -0.0947  1.6821
 6809SOL     OW21867   7.333   3.053   3.191 -0.1581  0.4454 -0.2464
 6809SOL    HW121868   7.260   3.023   3.137 -2.0719  2.0972  1.2455
 6809SOL    HW221869   7.300   3.049   3.280  1.8328  0.6731  0.5472
 6810SOL     OW21870   3.928   2.310   1.003  0.1003 -0.4939 -0.3540
 6810SOL    HW121871   3.850   2.292   1.055 -0.7231  0.9631 -1.0145
 6810SOL    HW221872   3.894   2.339   0.918  1.3699 -0.0309 -0.7291
 6811SOL     OW21873   2.312   5.606   6.340 -0.4930  0.3260 -0.0491
 6811SOL    HW121874   2.350   5.679   6.291  0.3439 -0.5271 -0.7060
 6811SOL    HW221875   2.256   5.648   6.406  0.7986  1.5964  0.2880
 6812SOL     OW21876   6.334   0.386   4.443 -0.3000  0.2709  0.3075
 6812SOL    HW121877   6.389   0.307   4.444 -0.2233  0.3060 -0.5016
 6812SOL    HW221878   6.304   0.395   4.533 -0.3752 -0.7386  0.3957
 6813SOL     OW21879   7.862   2.313   6.742  0.0049  0.2189  0.0459
 6813SOL    HW121880   7.957   2.315   6.757  0.8690  0.9796 -4.2304
 6813SOL    HW221881   7.847   2.228   6.700 -1.3172 -0.0069  0.9231
 6814SOL     OW21882   4.012   5.792   6.127  0.1598 -0.1955  0.2447
 6814SOL    HW121883   4.020   5.878   6.170 -1.2481  0.2502 -0.3191
 6814SOL    HW221884   3.926   5.794   6.086  0.5829 -1.4518 -0.7667
 6815SOL     OW21885   5.949   4.233   8.587  0.0550  0.1273  0.1662
 6815SOL    HW121886   5.952   4.140   8.606 -0.1591  0.4107  1.6777
 6815SOL    HW221887   5.888   4.269   8.652  0.4525  1.3809 -0.1290
 6816SOL     OW21888   3.466   2.867   6.928 -0.5899 -0.9372  0.4223
 6816SOL    HW121889   3.460   2.879   7.022 -0.1675 -0.7641  0.4282
 6816SOL    HW221890   3.559   2.849   6.911 -0.7461 -1.4962  0.1016
 6817SOL     OW21891   0.782   2.413   6.157 -0.2655 -0.5381  0.2826
 6817SOL    HW121892   0.799   2.341   6.097 -1.1377  1.3015 -2.4023
 6817SOL    HW221893   0.691   2.401   6.185  0.1778 -1.4619  1.3864
 6818SOL     OW21894   4.473   6.624   4.559 -0.1073  0.0068  0.3871
 6818SOL    HW121895   4.520   6.667   4.488 -0.3620  0.1784  0.3201
 6818SOL    HW221896   4.414   6.691   4.593 -1.4270 -0.6381 -0.5535
 6819SOL     OW21897   5.973   1.280   4.578  0.9650  0.3081 -0.6238
 6819SOL    HW121898   6.011   1.342   4.517  1.8736  1.9848  1.5155
 6819SOL    HW221899   5.899   1.327   4.618  1.3205 -0.1360  0.6236
 6820SOL     OW21900   4.040   1.292   4.938  0.1917 -0.2231 -0.2335
 6820SOL    HW121901   4.109   1.323   4.997 -0.9128 -0.5099  1.3021
 6820SOL    HW221902   3.977   1.364   4.935 -0.3157 -0.6520 -0.1077
 6821SOL     OW21903   0.716   5.629  10.229  0.2798  0.3715 -0.1755
 6821SOL    HW121904   0.643   5.682  10.261  0.3057 -0.0214  0.5536
 6821SOL    HW221905   0.719   5.647  10.135 -1.4796 -0.4541 -0.4288
 6822SOL     OW21906   3.175   5.823   9.015  0.3433 -0.3858  0.2631
 6822SOL    HW121907   3.156   5.913   9.044  0.5411 -0.6936  1.3951
 6822SOL    HW221908   3.241   5.834   8.947  0.6803  0.3163  0.6901
 6823SOL     OW21909   5.400   5.643   4.903 -0.0212 -0.1908  0.0991
 6823SOL    HW121910   5.418   5.574   4.839 -3.9698 -0.5350 -0.9511
 6823SOL    HW221911   5.410   5.599   4.988  0.9236 -1.0313 -0.4186
 6824SOL     OW21912   3.446   6.430   2.622 -0.1584 -0.1828 -0.3114
 6824SOL    HW121913   3.477   6.497   2.683 -1.6440  0.9889 -0.8035
 6824SOL    HW221914   3.523   6.408   2.570  1.0442 -0.8965  1.6514
 6825SOL     OW21915   6.909   5.853   1.582 -0.7464  0.0691 -0.0693
 6825SOL    HW121916   6.950   5.917   1.525 -0.2373 -0.1459  0.0565
 6825SOL    HW221917   6.874   5.905   1.655  0.7352  0.0831  0.6599
 6826SOL     OW21918   2.805   5.749  11.578  0.2489 -0.3871  0.3758
 6826SOL    HW121919   2.766   5.682  11.634 -0.7627 -2.0635 -2.1924
 6826SOL    HW221920   2.889   5.768  11.620  0.4945 -3.1328  1.3247
 6827SOL     OW21921   7.898   4.611   9.830 -0.2876  0.3371 -0.4217
 6827SOL    HW121922   7.900   4.679   9.897 -1.2073 -0.4156  0.4173
 6827SOL    HW221923   7.979   4.562   9.843 -1.4848 -1.2504  1.7798
 6828SOL     OW21924   4.023   5.373   4.254  0.1743 -0.8060 -0.2640
 6828SOL    HW121925   4.101   5.376   4.199  1.5133 -0.2077  1.5497
 6828SOL    HW221926   4.055   5.396   4.342 -2.2807  0.8301  0.3059
 6829SOL     OW21927   2.552   6.095  11.834 -0.2446 -0.3587  0.1553
 6829SOL    HW121928   2.480   6.044  11.871 -1.2721  2.1542  1.9605
 6829SOL    HW221929   2.541   6.088  11.739 -2.3248 -0.7792  0.3842
 6830SOL     OW21930   4.675   0.611   3.421 -0.0219  0.0627 -0.2642
 6830SOL    HW121931   4.680   0.598   3.516 -0.2391 -0.3899 -0.3131
 6830SOL    HW221932   4.724   0.692   3.406 -0.0578  0.1862  0.2442
 6831SOL     OW21933   0.681   5.282   1.563  0.2920  0.2203 -0.2135
 6831SOL    HW121934   0.629   5.257   1.487  2.4109 -2.6070 -0.8906
 6831SOL    HW221935   0.622   5.269   1.638 -0.9396  0.3301 -1.1399
 6832SOL     OW21936   4.319   5.362   0.856 -0.4312 -0.1311  0.1890
 6832SOL    HW121937   4.227   5.369   0.833 -0.2743  1.3304 -0.1099
 6832SOL    HW221938   4.321   5.312   0.938 -1.5276  0.2727  0.4692
 6833SOL     OW21939   6.767   0.982   8.229 -0.6616  0.4629 -0.0463
 6833SOL    HW121940   6.697   0.917   8.236 -1.1845  1.1093  0.9890
 6833SOL    HW221941   6.804   0.986   8.317  1.3222 -0.5291 -0.7764
 6834SOL     OW21942   7.338   2.706   9.071  0.4364 -0.0528  0.4867
 6834SOL    HW121943   7.403   2.661   9.017 -0.2607  0.5186 -0.8672
 6834SOL    HW221944   7.313   2.640   9.136  2.4747 -0.2308  1.1733
 6835SOL     OW21945   2.853   4.256   7.817  0.2494 -0.4161  0.4090
 6835SOL    HW121946   2.926   4.259   7.756  0.3188 -0.1513  0.5040
 6835SOL    HW221947   2.777   4.232   7.764  0.1659  0.5151  0.0818
 6836SOL     OW21948   1.478   0.964  10.208  0.4561 -0.0603 -0.4362
 6836SOL    HW121949   1.424   0.885  10.205  1.2050 -0.5682 -0.5941
 6836SOL    HW221950   1.491   0.981  10.301  1.6344 -1.0519 -0.4048
 6837SOL     OW21951   2.246   3.482   1.959 -0.4358  0.0778 -0.2330
 6837SOL    HW121952   2.173   3.491   2.020 -1.0475  0.2358 -0.9687
 6837SOL    HW221953   2.295   3.406   1.991 -0.0229  0.9095  1.1751
 6838SOL     OW21954   0.010   2.147  12.175 -0.2861 -0.8272  0.2745
 6838SOL    HW121955  -0.077   2.156  12.135 -0.7093 -1.4572  1.0461
 6838SOL    HW221956   0.009   2.208  12.249  0.0113 -0.6790  0.1590
 6839SOL     OW21957   6.475   0.173   4.781 -0.7146  0.4677 -0.2738
 6839SOL    HW121958   6.507   0.129   4.860  1.6927  0.5709 -1.0997
 6839SOL    HW221959   6.390   0.132   4.763 -0.2391 -1.2188  1.0536
 6840SOL     OW21960   2.839   7.044   7.599 -0.2406  0.2770 -0.3058
 6840SOL    HW121961   2.901   7.058   7.527 -1.0055  1.2574 -0.7803
 6840SOL    HW221962   2.799   6.959   7.580 -0.0708  0.2994 -0.7623
 6841SOL     OW21963   5.215   1.774   4.963 -0.1932  0.1010 -0.1169
 6841SOL    HW121964   5.186   1.805   5.049  0.7287 -2.6193  1.2880
 6841SOL    HW221965   5.134   1.752   4.917 -0.6273 -1.4865  1.3416
 6842SOL     OW21966   7.175   1.892   9.208 -0.7288 -0.4214  0.3321
 6842SOL    HW121967   7.145   1.970   9.255 -0.6907 -0.3561  0.2483
 6842SOL    HW221968   7.271   1.896   9.214 -0.5263  1.1071 -2.1445
 6843SOL     OW21969   1.042   5.736   6.837  0.0409  0.2768 -0.1071
 6843SOL    HW121970   1.009   5.720   6.926  1.5999 -2.1577  0.1250
 6843SOL    HW221971   1.134   5.760   6.850  0.3084 -0.2120 -1.0714
 6844SOL     OW21972   2.797   4.998   8.957 -0.1463  0.1040  0.2299
 6844SOL    HW121973   2.879   4.949   8.960  0.6582  1.4426  1.1838
 6844SOL    HW221974   2.814   5.069   8.894  0.0006  1.3047  1.5674
 6845SOL     OW21975   6.452   2.190   1.601 -0.2163  0.1736 -0.1715
 6845SOL    HW121976   6.480   2.236   1.680 -1.1380  2.2338 -0.9546
 6845SOL    HW221977   6.528   2.140   1.574  0.9831  1.4769  0.6062
 6846SOL     OW21978   2.866   6.906   6.529  0.0742 -0.6723  0.1707
 6846SOL    HW121979   2.781   6.901   6.572  0.3649 -2.5139  0.6524
 6846SOL    HW221980   2.925   6.859   6.588  1.3988  0.4324 -0.2312
 6847SOL     OW21981   1.814   1.947   8.601 -0.2198 -0.1462 -0.1546
 6847SOL    HW121982   1.814   1.885   8.528  0.1616 -2.6483  1.8061
 6847SOL    HW221983   1.801   2.032   8.560 -0.2409 -1.4213 -3.0924
 6848SOL     OW21984   4.001   0.279   7.674 -0.2698 -0.3924  0.3258
 6848SOL    HW121985   4.060   0.235   7.614  1.3432  0.8538  0.9456
 6848SOL    HW221986   3.943   0.331   7.618  0.3723 -0.2439 -0.2053
 6849SOL     OW21987   2.568   4.194   6.010  0.3016  0.1569  0.4233
 6849SOL    HW121988   2.656   4.199   5.972  0.2117 -0.6886  0.0851
 6849SOL    HW221989   2.581   4.216   6.102  0.9795 -0.5899  0.5202
 6850SOL     OW21990   2.586   4.048   2.680 -0.6484  0.0235 -0.2082
 6850SOL    HW121991   2.522   4.063   2.610  0.1475 -0.1451 -0.9918
 6850SOL    HW221992   2.578   3.954   2.700  0.7366 -0.4694 -1.7399
 6851SOL     OW21993   7.367   1.464   0.594 -0.6455  0.8045  0.7258
 6851SOL    HW121994   7.278   1.437   0.616 -1.1152  0.6860 -1.1692
 6851SOL    HW221995   7.415   1.382   0.584 -0.6816  0.8196  0.4064
 6852SOL     OW21996   4.162   1.488   3.883  1.0852 -0.1413  0.5164
 6852SOL    HW121997   4.112   1.535   3.816 -0.1862  1.0841  2.2362
 6852SOL    HW221998   4.169   1.399   3.850  0.3107  0.3735 -1.1321
 6853SOL     OW21999   2.970   6.830   3.657  0.2972  0.1673  0.2173
 6853SOL    HW122000   3.041   6.789   3.607  0.4331 -0.4238  0.8869
 6853SOL    HW222001   2.890   6.790   3.621  0.3604  0.1506  0.0937
 6854SOL     OW22002   1.689   4.803   2.125 -0.0835  0.0379 -0.4735
 6854SOL    HW122003   1.741   4.746   2.069 -1.6187  1.1713 -3.2791
 6854SOL    HW222004   1.605   4.811   2.079 -0.0270  4.3645 -0.2475
 6855SOL     OW22005   3.367   6.305   7.071 -0.5735 -0.0762  0.4488
 6855SOL    HW122006   3.402   6.392   7.052  1.0563 -0.7904 -0.0044
 6855SOL    HW222007   3.423   6.271   7.141 -0.2568 -1.2978 -0.3634
 6856SOL     OW22008   2.041   5.622   5.870  0.0051 -0.3861  0.4704
 6856SOL    HW122009   2.056   5.710   5.837  0.7243 -0.7430 -0.2043
 6856SOL    HW222010   2.029   5.633   5.964  0.5398  0.3896  0.4608
 6857SOL     OW22011   7.728   6.837   8.306 -0.3098 -0.1666 -0.2886
 6857SOL    HW122012   7.793   6.875   8.364 -1.5809  1.0568  0.3930
 6857SOL    HW222013   7.658   6.902   8.301 -0.0326  0.0639 -3.6805
 6858SOL     OW22014   7.904   0.141  11.175 -0.3311  0.3370  0.0976
 6858SOL    HW122015   7.866   0.227  11.158 -0.6811  0.2787  0.5694
 6858SOL    HW222016   7.995   0.149  11.146 -0.6561  0.5285 -0.8789
 6859SOL     OW22017   1.900   5.503   1.895 -0.7565 -0.2698 -0.1121
 6859SOL    HW122018   1.909   5.421   1.847 -0.5395 -0.7702  0.7660
 6859SOL    HW222019   1.817   5.494   1.942 -0.4914 -0.1846  0.3689
 6860SOL     OW22020   3.694   6.246   4.068 -0.0814  0.0461 -0.3756
 6860SOL    HW122021   3.667   6.285   3.985 -0.5879  1.1393  0.2872
 6860SOL    HW222022   3.644   6.293   4.135  0.6824 -0.4751  0.5981
 6861SOL     OW22023   3.467   6.870   5.172 -0.1923 -0.6644  1.0565
 6861SOL    HW122024   3.521   6.913   5.106  0.8430 -2.8276  0.3696
 6861SOL    HW222025   3.530   6.842   5.240 -0.7832 -1.1284  1.4247
 6862SOL     OW22026   4.533   2.455   6.453  0.5255 -0.4219 -0.0119
 6862SOL    HW122027   4.606   2.428   6.509  1.0487  0.8541 -0.0672
 6862SOL    HW222028   4.489   2.372   6.431  1.3945 -1.1189  0.7740
 6863SOL     OW22029   1.617   4.064   0.919  0.1831 -0.4456 -0.6143
 6863SOL    HW122030   1.560   4.125   0.965  0.0756 -0.1287 -1.1554
 6863SOL    HW222031   1.610   3.982   0.968  0.6621  0.0830  0.3729
 6864SOL     OW22032   5.104   7.057   4.519 -0.1340 -0.5042  0.3594
 6864SOL    HW122033   5.062   7.141   4.535  0.5823 -0.1562  0.4246
 6864SOL    HW222034   5.033   6.993   4.531 -0.9811  0.1542 -0.9081
 6865SOL     OW22035   0.155   6.970   7.635 -0.0926  0.2469 -0.2569
 6865SOL    HW122036   0.108   7.053   7.638 -0.3489  0.3160 -3.1555
 6865SOL    HW222037   0.236   6.986   7.682 -0.1359  2.1395 -0.7597
 6866SOL     OW22038   1.400   6.507   3.401  0.1961  0.3998 -0.3631
 6866SOL    HW122039   1.391   6.429   3.346  0.0212 -0.2458  0.5597
 6866SOL    HW222040   1.416   6.579   3.339  0.6449 -0.4106 -1.2038
 6867SOL     OW22041   4.606   0.197   5.420  0.4625 -0.3033  0.2994
 6867SOL    HW122042   4.615   0.280   5.467 -0.2608 -0.4756  0.7648
 6867SOL    HW222043   4.645   0.132   5.478  0.3371 -0.3951  0.2817
 6868SOL     OW22044   5.420   4.882   7.571  0.0913  0.1280 -0.1565
 6868SOL    HW122045   5.365   4.818   7.616 -0.1053  1.0110  0.8965
 6868SOL    HW222046   5.497   4.890   7.627 -0.0580  1.0853 -0.0822
 6869SOL     OW22047   3.656   6.200   8.062  0.7146 -0.2601 -0.3541
 6869SOL    HW122048   3.639   6.209   7.968 -1.2905  0.5324  0.0319
 6869SOL    HW222049   3.742   6.239   8.074  1.3255 -1.0323 -1.9562
 6870SOL     OW22050   0.206   2.322   8.784  0.1584  0.8398 -0.1597
 6870SOL    HW122051   0.155   2.402   8.799 -1.1351  0.1947 -0.9002
 6870SOL    HW222052   0.293   2.341   8.819 -0.2008  2.4753 -0.1050
 6871SOL     OW22053   2.225   1.369   1.206 -0.3037  0.4407  0.1243
 6871SOL    HW122054   2.203   1.439   1.145  1.4966 -0.3413 -1.4981
 6871SOL    HW222055   2.251   1.415   1.286  0.1906  1.6123 -0.6783
 6872SOL     OW22056   3.032   4.111   4.339  0.8234  0.1806  0.0224
 6872SOL    HW122057   3.056   4.018   4.330 -0.0211  0.0602 -1.2738
 6872SOL    HW222058   3.037   4.128   4.433  0.8949 -1.2097  0.2948
 6873SOL     OW22059   1.302   4.842   4.910 -0.2404 -0.4094 -0.3069
 6873SOL    HW122060   1.369   4.775   4.901  0.1815 -0.0508  0.0689
 6873SOL    HW222061   1.324   4.887   4.992 -1.0136 -0.3664 -0.1121
 6874SOL     OW22062   2.430   5.450  10.534  0.3245  0.1134 -0.4300
 6874SOL    HW122063   2.462   5.457  10.625  1.0498  1.2961 -0.7416
 6874SOL    HW222064   2.465   5.367  10.502  0.6783  0.0340  0.1503
 6875SOL     OW22065   0.304   2.580   7.079  0.2940 -0.1902  0.2194
 6875SOL    HW122066   0.301   2.672   7.106 -0.6021  0.5187 -2.0825
 6875SOL    HW222067   0.387   2.572   7.032  0.8584 -0.8705  1.2778
 6876SOL     OW22068   1.997   4.524   8.000 -0.3502  0.0096  0.5074
 6876SOL    HW122069   1.918   4.567   7.967 -1.4659  0.1544  3.1168
 6876SOL    HW222070   2.064   4.592   7.997 -1.0636  0.7490  0.8537
 6877SOL     OW22071   2.527   5.320   6.523  0.4289  0.1624 -0.3704
 6877SOL    HW122072   2.457   5.287   6.468  0.4150 -0.6749  0.1463
 6877SOL    HW222073   2.485   5.342   6.606  0.2282  2.4897 -0.9984
 6878SOL     OW22074   1.007   1.353   9.749  0.1436 -0.1301  0.1192
 6878SOL    HW122075   1.091   1.348   9.704  0.4786 -0.4857  0.7683
 6878SOL    HW222076   0.966   1.433   9.717  1.1842  0.6035  0.5814
 6879SOL     OW22077   7.646   5.358   9.703 -0.1845 -0.4039  0.3314
 6879SOL    HW122078   7.710   5.287   9.711  1.8754  1.0502 -1.9265
 6879SOL    HW222079   7.621   5.358   9.611 -0.7772  1.2689  0.4577
 6880SOL     OW22080   1.560   1.697   4.195 -0.8637  0.3363  0.3767
 6880SOL    HW122081   1.485   1.656   4.239 -0.0057 -0.0146  1.5728
 6880SOL    HW222082   1.634   1.679   4.253  0.6919 -1.5872 -2.0028
 6881SOL     OW22083   3.692   6.326  11.123  0.1622  0.3429 -0.1117
 6881SOL    HW122084   3.757   6.260  11.097  0.1020 -0.7145  2.2040
 6881SOL    HW222085   3.744   6.403  11.144  0.4797  0.1686 -0.2452
 6882SOL     OW22086   5.689   0.116  11.339  0.0372  0.5281 -0.2764
 6882SOL    HW122087   5.726   0.041  11.386  1.4338  1.2851 -0.1298
 6882SOL    HW222088   5.672   0.181  11.406 -1.0156  0.4273 -0.4263
 6883SOL     OW22089   4.625   2.735   7.837 -0.2250 -0.0770 -0.1262
 6883SOL    HW122090   4.678   2.789   7.895 -1.6460  1.3009 -0.0458
 6883SOL    HW222091   4.643   2.769   7.749 -2.4166  1.8108  0.0637
 6884SOL     OW22092   5.743   7.565  11.151  0.1373  0.2060  0.0286
 6884SOL    HW122093   5.813   7.624  11.180  1.3312 -0.6085 -1.0595
 6884SOL    HW222094   5.731   7.587  11.058 -1.2397  0.4852  0.2494
 6885SOL     OW22095   0.091   2.014  11.765  0.2723 -0.3798  0.1355
 6885SOL    HW122096   0.167   2.072  11.772  0.3721 -0.1699 -2.1524
 6885SOL    HW222097   0.016   2.072  11.772  0.3732 -0.0329 -1.3027
 6886SOL     OW22098   0.135   6.407  12.215 -0.4220  0.1133  0.0650
 6886SOL    HW122099   0.194   6.430  12.144 -0.3123 -0.1453  0.0715
 6886SOL    HW222100   0.148   6.476  12.280  0.1638 -0.1504  0.2333
 6887SOL     OW22101   1.774   0.061   3.444  0.3413 -0.5766  0.8452
 6887SOL    HW122102   1.690   0.093   3.478 -0.0152  0.5586 -0.9652
 6887SOL    HW222103   1.750   0.008   3.368  1.2345 -0.7342  0.6674
 6888SOL     OW22104   3.883   6.513  10.289 -0.0592 -0.2504 -0.0111
 6888SOL    HW122105   3.932   6.432  10.276  0.0700 -0.3668  1.1178
 6888SOL    HW222106   3.793   6.485  10.302  0.0222 -0.2316  0.6042
 6889SOL     OW22107   2.342   3.729   2.306  1.2861  0.2619 -0.3775
 6889SOL    HW122108   2.283   3.665   2.346  2.8180 -0.7522  0.3315
 6889SOL    HW222109   2.290   3.770   2.237 -0.1096 -0.8814 -0.0378
 6890SOL     OW22110   7.180   3.674   8.985  0.3247  0.2578  0.6118
 6890SOL    HW122111   7.116   3.641   8.922  0.1714 -1.8935  1.7788
 6890SOL    HW222112   7.165   3.768   8.988 -0.8786  0.1687 -1.2003
 6891SOL     OW22113   2.359   7.068  11.290  0.3968 -0.0225  0.6773
 6891SOL    HW122114   2.347   7.154  11.248  1.6595 -0.5613 -0.9199
 6891SOL    HW222115   2.274   7.049  11.329 -0.2054  1.5267  0.2366
 6892SOL     OW22116   3.703   0.326  11.453 -0.1599  0.2900  0.8643
 6892SOL    HW122117   3.739   0.381  11.384 -0.3947 -0.1828  0.3621
 6892SOL    HW222118   3.780   0.289  11.496 -0.0023 -0.9820 -0.4212
 6893SOL     OW22119   5.426   1.778   8.171 -0.3597  0.0772 -0.6247
 6893SOL    HW122120   5.482   1.721   8.223 -0.6881 -0.8647 -1.2727
 6893SOL    HW222121   5.349   1.725   8.150 -0.5081  0.6297 -1.5594
 6894SOL     OW22122   5.218   6.734   0.423 -0.5255  0.2336  0.1108
 6894SOL    HW122123   5.186   6.707   0.509 -1.4762  0.0473 -0.2947
 6894SOL    HW222124   5.214   6.654   0.370  1.0103  0.0992  0.1521
 6895SOL     OW22125   0.582   7.328   5.277 -0.1076  0.4664 -0.2046
 6895SOL    HW122126   0.553   7.413   5.244  0.8374  0.9981  0.3000
 6895SOL    HW222127   0.510   7.268   5.255 -0.0195  1.0215 -2.1770
 6896SOL     OW22128   6.665   4.273   3.188 -0.0518 -0.2826 -0.3152
 6896SOL    HW122129   6.711   4.341   3.237  0.3348 -0.6628 -0.1432
 6896SOL    HW222130   6.573   4.283   3.212 -0.0038  0.2176 -0.3391
 6897SOL     OW22131   4.445   1.985   5.816 -0.4081 -0.2008  0.1169
 6897SOL    HW122132   4.389   2.021   5.885 -0.1492  0.8168 -0.1800
 6897SOL    HW222133   4.415   1.895   5.805 -1.5904  0.1464  0.3744
 6898SOL     OW22134   1.624   1.854   0.651  0.2132 -0.3866 -0.1152
 6898SOL    HW122135   1.660   1.916   0.588  0.5304 -0.2915  0.1534
 6898SOL    HW222136   1.680   1.864   0.729 -0.3292 -0.3133  0.2723
 6899SOL     OW22137   2.029   4.877   2.659 -0.0185 -0.3997  0.5263
 6899SOL    HW122138   2.082   4.951   2.687 -0.3903  0.2350 -0.4110
 6899SOL    HW222139   1.976   4.854   2.736  1.0049 -0.5142  1.2096
 6900SOL     OW22140   1.638   1.276   0.103  0.6810  0.3623  0.2245
 6900SOL    HW122141   1.628   1.364   0.139  2.6560  0.5766  0.3298
 6900SOL    HW222142   1.731   1.267   0.087  0.2290 -0.7996 -2.1984
 6901SOL     OW22143   7.719   7.041   9.703  0.4853  0.1265  0.2642
 6901SOL    HW122144   7.776   7.117   9.697  0.8610 -0.2061 -0.5031
 6901SOL    HW222145   7.753   6.980   9.637  0.4453 -0.8722  1.1340
 6902SOL     OW22146   3.095   7.536  11.866 -0.5321 -0.0054  0.7050
 6902SOL    HW122147   3.149   7.587  11.805  1.3064 -2.0893  0.4687
 6902SOL    HW222148   3.025   7.500  11.811 -1.2701  1.3642  0.6883
 6903SOL     OW22149   5.358   7.353   5.293  0.2966 -0.1258  0.5171
 6903SOL    HW122150   5.371   7.333   5.200 -1.9914 -0.8501  0.2959
 6903SOL    HW222151   5.294   7.288   5.322 -0.2074  1.0887  2.2131
 6904SOL     OW22152   3.865   2.100  12.199  0.2881 -0.0209 -0.3504
 6904SOL    HW122153   3.779   2.061  12.206 -0.5582  1.6805 -0.7332
 6904SOL    HW222154   3.857   2.163  12.128  2.4146 -1.1795 -1.7308
 6905SOL     OW22155   5.644   7.156   2.594  0.4139 -0.0653 -0.4668
 6905SOL    HW122156   5.645   7.085   2.530 -1.1374 -0.3643 -0.2144
 6905SOL    HW222157   5.617   7.233   2.543 -0.1367 -0.1542 -0.3151
 6906SOL     OW22158   5.687   3.722   8.857 -0.1817 -0.0632  0.0870
 6906SOL    HW122159   5.724   3.686   8.776  0.1434  0.0047  0.2043
 6906SOL    HW222160   5.611   3.772   8.828  0.5089  0.8003 -0.2862
 6907SOL     OW22161   6.615   5.059   7.506 -0.2574 -0.0937  0.0753
 6907SOL    HW122162   6.578   4.988   7.559 -1.7830 -1.4287 -2.5964
 6907SOL    HW222163   6.548   5.078   7.441  1.5403  1.3994 -1.4462
 6908SOL     OW22164   3.758   6.202  10.739 -0.5326 -0.1025  0.6994
 6908SOL    HW122165   3.664   6.183  10.741 -1.1273  2.6179  2.3566
 6908SOL    HW222166   3.773   6.237  10.651 -1.2081  0.1407  0.6759
 6909SOL     OW22167   7.120   2.756  11.343 -0.0329  0.2367 -0.9591
 6909SOL    HW122168   7.198   2.726  11.298  0.5801 -1.9319  1.3147
 6909SOL    HW222169   7.150   2.778  11.431 -1.7947  0.4586 -0.3676
 6910SOL     OW22170   7.413   3.958   8.942  0.3154 -0.1615  0.0079
 6910SOL    HW122171   7.321   3.935   8.954 -0.0903  0.8670 -0.9936
 6910SOL    HW222172   7.461   3.879   8.969 -0.8462 -0.6936  0.5815
 6911SOL     OW22173   1.982   3.928   2.486  0.1506  0.0824  0.0134
 6911SOL    HW122174   2.014   4.007   2.443  0.4507  0.5831  1.1064
 6911SOL    HW222175   2.001   3.942   2.579 -3.9585  0.8649  0.9415
 6912SOL     OW22176   6.505   4.680   8.851  0.6286  0.1452 -0.2210
 6912SOL    HW122177   6.531   4.650   8.938 -0.5399  0.0195  0.0964
 6912SOL    HW222178   6.581   4.729   8.819  0.9505  0.4800  1.0035
 6913SOL     OW22179   5.479   6.854   6.927 -0.4129  0.0268 -0.8508
 6913SOL    HW122180   5.438   6.904   6.998 -0.7198 -0.2467 -0.8349
 6913SOL    HW222181   5.564   6.828   6.963 -1.6993 -2.6269  0.5490
 6914SOL     OW22182   1.831   7.205   8.508  0.3748  0.3054 -0.4155
 6914SOL    HW122183   1.865   7.270   8.569 -1.7057  1.1418 -0.0629
 6914SOL    HW222184   1.791   7.256   8.437 -1.1140 -0.5424 -0.2437
 6915SOL     OW22185   0.009   2.808   6.180  0.1594 -0.1430  0.0956
 6915SOL    HW122186   0.072   2.870   6.217 -0.2147  0.0767  0.3684
 6915SOL    HW222187  -0.012   2.749   6.252 -0.3115  0.0772  0.1399
 6916SOL     OW22188   4.441   6.213   5.386 -0.1193  0.0021  0.0389
 6916SOL    HW122189   4.463   6.251   5.301  2.8900 -3.3207 -0.9227
 6916SOL    HW222190   4.369   6.154   5.368  2.1025 -2.6081 -0.9747
 6917SOL     OW22191   3.968   5.178  11.104 -0.2030 -0.4934  0.2086
 6917SOL    HW122192   4.026   5.208  11.035  0.3149  0.8015  1.1532
 6917SOL    HW222193   3.895   5.241  11.103 -0.5870 -0.9295  0.3240
 6918SOL     OW22194   5.935   4.891   1.767  0.1757  0.8095 -0.8032
 6918SOL    HW122195   6.011   4.848   1.805 -1.0982 -1.8203 -1.0259
 6918SOL    HW222196   5.935   4.864   1.676 -0.5777  1.4847 -1.0197
 6919SOL     OW22197   3.625   0.671   1.798  0.6247  0.1146  0.1924
 6919SOL    HW122198   3.538   0.688   1.761  0.1718 -0.3764  0.9973
 6919SOL    HW222199   3.643   0.748   1.853 -0.1214 -0.5990  1.4785
 6920SOL     OW22200   6.332   6.539   0.246  0.2553  0.6438 -0.4689
 6920SOL    HW122201   6.242   6.565   0.267 -0.1217 -0.5222 -0.5492
 6920SOL    HW222202   6.379   6.621   0.234 -0.3990  1.3002  1.2311
 6921SOL     OW22203   3.670   7.166   6.225  0.0207  0.1438 -0.1392
 6921SOL    HW122204   3.752   7.132   6.188  0.1404  1.3711 -1.0775
 6921SOL    HW222205   3.610   7.092   6.223  0.5834 -0.3097 -1.1169
 6922SOL     OW22206   7.693   6.210   6.527  0.4078 -0.2719 -0.0802
 6922SOL    HW122207   7.698   6.120   6.495 -0.1299  0.1681 -1.4701
 6922SOL    HW222208   7.779   6.225   6.568  0.1403 -1.7226  1.1192
 6923SOL     OW22209   3.190   0.983   8.959  0.0445  0.3311  0.9766
 6923SOL    HW122210   3.239   1.049   8.911 -0.8677  0.6603  0.4807
 6923SOL    HW222211   3.158   0.922   8.893 -0.4442  0.2723  1.2558
 6924SOL     OW22212   1.427   2.328   7.654  0.7860  0.0831 -0.6229
 6924SOL    HW122213   1.392   2.318   7.742 -1.8684  2.2303 -1.2881
 6924SOL    HW222214   1.504   2.384   7.664  1.5556 -1.1197  0.4532
 6925SOL     OW22215   6.205   3.536  12.414  0.0262 -0.1821 -0.3613
 6925SOL    HW122216   6.131   3.500  12.364  0.6600 -0.1980 -1.2985
 6925SOL    HW222217   6.192   3.631  12.411  0.8210 -0.1051 -1.7657
 6926SOL     OW22218   7.322   0.483   2.589  0.1471  0.1992 -0.2591
 6926SOL    HW122219   7.341   0.548   2.656 -1.0431  0.6589 -0.3530
 6926SOL    HW222220   7.374   0.406   2.615  1.9530  1.3048 -0.4177
 6927SOL     OW22221   0.061   0.662   0.148 -0.5315 -0.1784 -0.4135
 6927SOL    HW122222   0.045   0.734   0.088  1.2843  1.0581  0.4993
 6927SOL    HW222223   0.007   0.590   0.114  0.4576  0.4187 -3.5355
 6928SOL     OW22224   3.856   7.574   1.264 -0.6965 -0.1848  0.6178
 6928SOL    HW122225   3.921   7.557   1.196 -1.6012  1.3651 -0.7179
 6928SOL    HW222226   3.906   7.585   1.345  0.4049 -2.1342  0.2500
 6929SOL     OW22227   3.864   7.715   9.727  0.1351 -0.1365 -0.2469
 6929SOL    HW122228   3.803   7.675   9.666  0.1217  0.3846 -0.5753
 6929SOL    HW222229   3.853   7.809   9.715 -0.6709 -0.0034  1.3354
 6930SOL     OW22230   5.513   1.464   3.710 -0.0758  0.2312 -0.0951
 6930SOL    HW122231   5.460   1.476   3.632 -0.3564 -1.1100 -0.1286
 6930SOL    HW222232   5.597   1.432   3.677  0.2753  0.9559  0.0671
 6931SOL     OW22233   1.378   3.491   5.886 -0.0258  0.0994 -0.4818
 6931SOL    HW122234   1.470   3.477   5.867 -0.5449 -2.1201 -1.7271
 6931SOL    HW222235   1.333   3.476   5.803 -1.4708  2.3720 -0.2254
 6932SOL     OW22236   1.055   3.215   7.016  0.5990 -0.1346 -0.0305
 6932SOL    HW122237   1.125   3.174   7.067  0.6903 -2.1003 -1.6202
 6932SOL    HW222238   0.982   3.225   7.078  1.3816 -0.5245  0.9768
 6933SOL     OW22239   7.431   7.839   1.310  0.4626 -0.1521 -0.0046
 6933SOL    HW122240   7.387   7.842   1.225 -0.5378  0.7427  0.5159
 6933SOL    HW222241   7.483   7.759   1.308  0.5961 -0.0449 -1.5237
 6934SOL     OW22242   4.278   5.053   2.141 -0.2108 -0.4311 -0.0159
 6934SOL    HW122243   4.341   5.058   2.068 -1.4901  0.7602 -1.1105
 6934SOL    HW222244   4.319   4.994   2.204  4.4713  3.8911  1.7495
 6935SOL     OW22245   5.484   4.022   0.893  0.1053 -0.8483  0.4328
 6935SOL    HW122246   5.448   3.944   0.850 -0.4854  0.7004 -2.0844
 6935SOL    HW222247   5.414   4.054   0.949 -0.1503 -1.3408  0.3955
 6936SOL     OW22248   0.073   1.404   2.646  0.2451 -0.2042 -0.6031
 6936SOL    HW122249   0.012   1.393   2.573  0.2478  1.4081 -0.8835
 6936SOL    HW222250   0.118   1.486   2.628  0.9865 -0.2902  0.7048
 6937SOL     OW22251   4.884   5.043  11.609  0.2100  0.0129  0.1234
 6937SOL    HW122252   4.940   4.978  11.566 -3.0597 -1.3424 -2.6203
 6937SOL    HW222253   4.827   4.992  11.666  0.2381  1.0231  1.0797
 6938SOL     OW22254   1.777   6.522   9.242 -0.0423  0.1019  0.3079
 6938SOL    HW122255   1.849   6.465   9.217  0.5506  0.3766  1.3611
 6938SOL    HW222256   1.711   6.509   9.173  0.8190 -0.4815 -0.4207
 6939SOL     OW22257   0.221   5.789   8.049 -0.5028 -0.6708  0.4990
 6939SOL    HW122258   0.177   5.852   8.107  0.4872  0.6316 -0.1047
 6939SOL    HW222259   0.155   5.767   7.983 -0.1691  1.7160 -0.7496
 6940SOL     OW22260   7.271   6.982   0.306  0.4367  0.6369 -0.1959
 6940SOL    HW122261   7.312   6.896   0.298  0.5282  0.6128  0.4391
 6940SOL    HW222262   7.292   7.027   0.224 -0.5266 -0.3266 -0.9896
 6941SOL     OW22263   3.269   3.526   8.732  0.1889  0.2361 -0.0844
 6941SOL    HW122264   3.202   3.578   8.777 -0.7674  1.1845 -2.4722
 6941SOL    HW222265   3.339   3.588   8.715  1.1150 -0.4282  1.1638
 6942SOL     OW22266   1.603   1.604   0.981  0.2132 -0.1002  0.4367
 6942SOL    HW122267   1.688   1.648   0.983 -0.0918  0.5046  0.1601
 6942SOL    HW222268   1.596   1.564   1.068  0.1651  1.0353  0.9668
 6943SOL     OW22269   0.426   7.630   5.540 -0.1409 -0.5590  0.5543
 6943SOL    HW122270   0.479   7.698   5.498  0.8344 -1.2790  0.6007
 6943SOL    HW222271   0.353   7.616   5.479  1.6794 -2.1861 -1.3802
 6944SOL     OW22272   4.953   7.682   1.732  0.2453  0.0455  0.6102
 6944SOL    HW122273   4.879   7.669   1.791  0.7281 -0.8520  1.0425
 6944SOL    HW222274   4.936   7.766   1.689 -1.7035 -0.7507 -0.2993
 6945SOL     OW22275   2.693   5.668  11.157  0.0020  0.2389  0.2187
 6945SOL    HW122276   2.651   5.677  11.242 -0.0209  0.7973  0.1464
 6945SOL    HW222277   2.779   5.630  11.176 -0.3202 -0.4035  0.4138
 6946SOL     OW22278   2.889   0.893   7.925  0.1549  0.0154 -0.5583
 6946SOL    HW122279   2.845   0.809   7.918  1.0696 -0.6072  0.7818
 6946SOL    HW222280   2.839   0.951   7.868 -0.4022 -1.4574 -1.6424
 6947SOL     OW22281   3.852   1.880   9.824 -0.0093 -0.5543  0.0345
 6947SOL    HW122282   3.773   1.828   9.832 -0.8458  0.7241  0.4243
 6947SOL    HW222283   3.852   1.936   9.901  0.3225  0.7098 -0.8505
 6948SOL     OW22284   6.851   6.434   7.153 -0.1367  0.1542 -0.1879
 6948SOL    HW122285   6.778   6.495   7.145 -1.2893 -1.0183  0.9631
 6948SOL    HW222286   6.812   6.347   7.144  0.6016 -0.6487  2.9351
 6949SOL     OW22287   3.423   5.028  10.662 -0.3051  0.0225  0.3826
 6949SOL    HW122288   3.514   4.999  10.667 -0.5136 -0.4203  1.8348
 6949SOL    HW222289   3.398   5.010  10.571  0.2213 -2.4000  0.6537
 6950SOL     OW22290   2.495   7.478   3.074 -0.0987 -0.0781  0.2986
 6950SOL    HW122291   2.514   7.569   3.050 -1.5094  0.3812  0.8057
 6950SOL    HW222292   2.413   7.483   3.123 -0.6064 -1.7046 -0.3101
 6951SOL     OW22293   7.817   5.215  11.271 -0.1616  0.3259 -0.6133
 6951SOL    HW122294   7.764   5.194  11.348 -1.0214 -0.2393 -1.3369
 6951SOL    HW222295   7.795   5.147  11.207 -0.6097  1.6110 -1.8942
 6952SOL     OW22296   4.532   5.390  12.321  0.0437  0.0929 -0.6315
 6952SOL    HW122297   4.624   5.399  12.344  0.0552 -0.1333 -0.5870
 6952SOL    HW222298   4.502   5.315  12.372 -0.5833  1.1563  0.6232
 6953SOL     OW22299   6.142   4.937  11.472 -0.5268  0.6759  0.0908
 6953SOL    HW122300   6.068   4.895  11.430 -0.0149 -0.0444 -0.1020
 6953SOL    HW222301   6.121   5.031  11.468 -1.0830  0.5337 -0.6200
 6954SOL     OW22302   7.036   4.878   9.844  0.2800  0.4126  0.7941
 6954SOL    HW122303   7.039   4.822   9.921  1.2956 -2.7316 -1.3187
 6954SOL    HW222304   7.124   4.917   9.840  0.0649  0.9821  1.4570
 6955SOL     OW22305   6.292   5.447   3.475  0.1405  0.6728 -0.6238
 6955SOL    HW122306   6.253   5.376   3.527  0.9210  0.8313  0.2066
 6955SOL    HW222307   6.304   5.409   3.388 -0.2568  0.0684 -0.4224
 6956SOL     OW22308   4.775   2.562  11.073  0.0370  0.2278  0.2169
 6956SOL    HW122309   4.718   2.638  11.088  0.3199  0.4425  0.2045
 6956SOL    HW222310   4.752   2.532  10.984 -0.7016 -0.2441  0.5483
 6957SOL     OW22311   4.764   2.440  10.573  0.1123 -0.2521  0.3493
 6957SOL    HW122312   4.735   2.373  10.511 -0.0577 -0.7420  0.9475
 6957SOL    HW222313   4.858   2.447  10.559  0.2261 -1.0373  0.6757
 6958SOL     OW22314   1.024   2.417  10.958  0.1306 -0.3121  0.2760
 6958SOL    HW122315   0.961   2.367  11.009  0.5341  0.0515  1.1611
 6958SOL    HW222316   1.109   2.384  10.986  0.3761  0.3116  0.2795
 6959SOL     OW22317   4.119   1.672   6.436 -0.1865  0.1065  0.2030
 6959SOL    HW122318   4.191   1.723   6.400 -0.7326  0.7385 -0.0089
 6959SOL    HW222319   4.130   1.678   6.531 -0.3180  0.7188  0.1796
 6960SOL     OW22320   0.013   0.782   6.661  0.3083  0.5247  0.0170
 6960SOL    HW122321   0.044   0.696   6.632 -0.0247  0.7010 -0.8857
 6960SOL    HW222322   0.082   0.814   6.719 -0.4457 -1.1922  2.0225
 6961SOL     OW22323   3.330   1.888   8.991  0.0539  0.0586  0.7402
 6961SOL    HW122324   3.356   1.970   9.032 -0.1504 -0.1557  1.3091
 6961SOL    HW222325   3.393   1.875   8.920  0.7184  0.1871  1.3002
 6962SOL     OW22326   1.604   0.208   0.215 -0.4039 -0.6826  0.3563
 6962SOL    HW122327   1.583   0.196   0.123 -0.6344  0.3199  0.2698
 6962SOL    HW222328   1.644   0.294   0.220 -0.3774 -0.7277  1.1958
 6963SOL     OW22329   2.190   5.063   7.179 -0.2774 -0.4333 -0.5738
 6963SOL    HW122330   2.131   4.994   7.151  0.1382 -1.1233  0.2294
 6963SOL    HW222331   2.242   5.024   7.249 -0.7503  1.0115  0.6342
 6964SOL     OW22332   2.410   2.318   5.265  0.1064  0.0708  0.0313
 6964SOL    HW122333   2.444   2.344   5.180 -0.2875 -0.1039 -0.1846
 6964SOL    HW222334   2.487   2.313   5.322  0.2589  1.0566 -0.0840
 6965SOL     OW22335   4.921   2.884  10.980 -0.0777  0.1161 -0.2439
 6965SOL    HW122336   4.902   2.959  10.924 -1.2527  2.2317  2.6979
 6965SOL    HW222337   4.836   2.851  11.007  0.4050 -0.2013  0.9994
 6966SOL     OW22338   6.526   4.686   5.742  0.8689  0.4680 -0.7657
 6966SOL    HW122339   6.483   4.749   5.684  1.3138  1.9799  0.4680
 6966SOL    HW222340   6.514   4.601   5.699 -1.1492  1.1608 -1.6958
 6967SOL     OW22341   0.728   1.505  11.145 -0.5155  0.2239 -0.0682
 6967SOL    HW122342   0.725   1.596  11.175  0.3318  0.1443  0.2842
 6967SOL    HW222343   0.750   1.510  11.052  0.1708  0.3637  0.0966
 6968SOL     OW22344   7.648   4.239   1.290  0.0296 -0.0396 -0.3731
 6968SOL    HW122345   7.704   4.312   1.318 -0.4296  0.0357  0.3772
 6968SOL    HW222346   7.656   4.174   1.360  0.3963 -0.6974 -1.0145
 6969SOL     OW22347   3.904   7.373   1.729 -0.3499  0.2235 -0.5823
 6969SOL    HW122348   3.888   7.401   1.818  1.8167 -0.1385 -0.0051
 6969SOL    HW222349   3.862   7.287   1.723  0.8846 -0.5039  0.6642
 6970SOL     OW22350   1.263   3.740   0.975 -0.1943 -0.4737  0.1996
 6970SOL    HW122351   1.278   3.696   0.891 -0.9593 -3.1352  1.3536
 6970SOL    HW222352   1.340   3.717   1.027 -0.4248 -0.0981  0.7060
 6971SOL     OW22353   1.035   6.457   6.201  0.6586  0.0120 -0.3354
 6971SOL    HW122354   1.043   6.535   6.255 -1.9543 -0.2824  0.6529
 6971SOL    HW222355   0.983   6.396   6.255  2.1879 -2.2321 -1.2607
 6972SOL     OW22356   1.951   5.804   8.264  0.0202  0.1740  0.2340
 6972SOL    HW122357   1.905   5.886   8.285 -2.1150 -0.6926 -0.8335
 6972SOL    HW222358   2.000   5.824   8.184 -0.9960  0.2606 -0.3831
 6973SOL     OW22359   6.693   4.797   6.588  0.2504 -0.5839  0.0939
 6973SOL    HW122360   6.654   4.746   6.516 -0.1702 -1.1659  0.7182
 6973SOL    HW222361   6.687   4.888   6.559  0.5337 -0.8392 -0.8185
 6974SOL     OW22362   7.977   5.666   6.776  0.0751 -0.2703 -0.6239
 6974SOL    HW122363   8.063   5.653   6.816 -0.1668 -0.6150 -0.1979
 6974SOL    HW222364   7.957   5.758   6.790  0.7826  0.0429 -1.5652
 6975SOL     OW22365   4.247   7.516   5.055 -0.0172  0.5043  0.0711
 6975SOL    HW122366   4.307   7.447   5.086 -0.0954  1.0345  1.4518
 6975SOL    HW222367   4.160   7.483   5.077  0.0031  1.5694  1.9177
 6976SOL     OW22368   0.518   4.900   6.717 -0.1037 -0.2941  0.7835
 6976SOL    HW122369   0.597   4.953   6.716 -0.3027 -0.0023  0.4848
 6976SOL    HW222370   0.495   4.889   6.624 -0.3896 -0.4110  0.8672
 6977SOL     OW22371   2.548   3.381   5.464  0.5917  0.0516  0.1740
 6977SOL    HW122372   2.569   3.328   5.540  0.9163 -0.6442 -0.3860
 6977SOL    HW222373   2.590   3.336   5.391 -1.7232 -0.6396 -0.8102
 6978SOL     OW22374   2.952   3.065   2.015 -0.1997  0.3784  0.1011
 6978SOL    HW122375   2.870   3.034   2.053  1.1181 -1.2774  1.7392
 6978SOL    HW222376   3.006   3.089   2.090  1.2491  0.3288 -0.8843
 6979SOL     OW22377   1.463   4.830   6.166  0.0420 -0.2774 -0.0084
 6979SOL    HW122378   1.497   4.918   6.179 -0.8057  0.0431  0.1342
 6979SOL    HW222379   1.537   4.780   6.131  0.5031  0.5138 -0.1831
 6980SOL     OW22380   2.209   1.138   0.807 -0.2650 -0.1587  0.0828
 6980SOL    HW122381   2.285   1.090   0.838 -0.3685 -0.0142  0.5603
 6980SOL    HW222382   2.147   1.136   0.880 -0.9509 -0.7560 -0.4928
 6981SOL     OW22383   4.463   0.852   7.454  0.1449 -0.4504  0.0683
 6981SOL    HW122384   4.389   0.912   7.447  0.8536  0.5411  0.7769
 6981SOL    HW222385   4.453   0.793   7.380 -0.6347  0.4887 -0.6062
 6982SOL     OW22386   5.874   0.482  11.810  0.1022  0.3055  0.1872
 6982SOL    HW122387   5.940   0.524  11.866 -0.2579  1.2473 -0.0663
 6982SOL    HW222388   5.917   0.404  11.776  0.6494  0.2251  1.0367
 6983SOL     OW22389   0.600   5.376   5.180  0.3043  0.1174  0.4148
 6983SOL    HW122390   0.511   5.339   5.175 -0.3907  1.4037  2.2731
 6983SOL    HW222391   0.629   5.358   5.269  1.2839  1.0945  0.3155
 6984SOL     OW22392   3.767   0.385   7.540 -0.2521 -0.0984 -0.3396
 6984SOL    HW122393   3.704   0.421   7.478 -0.0628  0.2646 -0.3240
 6984SOL    HW222394   3.766   0.291   7.523 -1.7684 -0.2783  0.5496
 6985SOL     OW22395   1.580   2.952   5.754 -0.4193 -0.1412  0.3598
 6985SOL    HW122396   1.597   2.912   5.668 -0.7070 -0.8867  0.6437
 6985SOL    HW222397   1.519   3.023   5.735  0.2968  0.3434 -0.1894
 6986SOL     OW22398   0.066   4.200   1.580 -0.1122  0.2373  0.1927
 6986SOL    HW122399   0.015   4.122   1.604 -0.7963  1.1423  1.8778
 6986SOL    HW222400   0.113   4.223   1.660  0.4570  1.2775 -0.4227
 6987SOL     OW22401   2.889   6.446   5.706  0.4661  0.6412 -0.0946
 6987SOL    HW122402   2.819   6.381   5.714  1.7338 -0.7982 -0.2640
 6987SOL    HW222403   2.919   6.460   5.796 -0.1887  1.4459  0.0053
 6988SOL     OW22404   7.873   2.808  11.522  0.2320 -0.1637 -0.7964
 6988SOL    HW122405   7.955   2.777  11.559 -0.1219 -0.2532 -0.0537
 6988SOL    HW222406   7.833   2.731  11.483 -0.4713 -0.6132  0.7158
 6989SOL     OW22407   6.338   1.993   4.722  0.1726  0.7112 -0.0256
 6989SOL    HW122408   6.419   2.016   4.768 -0.0105 -1.0326  1.2704
 6989SOL    HW222409   6.362   1.918   4.667 -0.7771 -0.6206  1.2980
 6990SOL     OW22410   5.137   2.173   2.716 -0.2814  0.4783  0.0847
 6990SOL    HW122411   5.059   2.163   2.771 -0.1505 -0.5862  0.1018
 6990SOL    HW222412   5.160   2.083   2.691  2.0184  0.5528  1.6196
 6991SOL     OW22413   5.766   3.065  11.959  0.0731  0.0926 -0.0012
 6991SOL    HW122414   5.814   3.019  11.890 -0.7119 -0.2049 -0.3557
 6991SOL    HW222415   5.833   3.087  12.023  0.5971 -0.8157 -0.2162
 6992SOL     OW22416   5.885   2.181   2.807  0.1383 -0.1793  0.2351
 6992SOL    HW122417   5.807   2.151   2.853 -0.1743 -0.3256 -0.3766
 6992SOL    HW222418   5.890   2.275   2.823 -1.5365  0.3068 -1.6833
 6993SOL     OW22419   3.287   6.410   2.845 -0.2795  0.4964 -0.2649
 6993SOL    HW122420   3.216   6.350   2.820 -0.8378  1.2362 -0.5026
 6993SOL    HW222421   3.341   6.417   2.766 -0.1156  0.1867 -0.1848
 6994SOL     OW22422   6.034   7.252  10.225  0.3052 -0.1841 -0.3461
 6994SOL    HW122423   6.090   7.314  10.178  1.5730 -0.4078  0.8040
 6994SOL    HW222424   6.035   7.284  10.315 -0.7491 -0.6960 -0.1383
 6995SOL     OW22425   3.787   6.071   5.994 -0.5050 -0.2227 -0.7983
 6995SOL    HW122426   3.878   6.098   5.978 -0.1646 -0.6927  0.2457
 6995SOL    HW222427   3.778   6.074   6.089 -1.4476 -0.6249 -0.8714
 6996SOL     OW22428   7.354   1.161  11.648  0.0306 -0.2209  0.2252
 6996SOL    HW122429   7.383   1.134  11.561 -0.7144  2.3366 -0.9217
 6996SOL    HW222430   7.384   1.251  11.657 -0.9371 -0.0235  2.1577
 6997SOL     OW22431   4.072   7.334   7.968 -0.3527 -0.2132 -0.0160
 6997SOL    HW122432   3.999   7.302   8.021 -0.6240  0.3738 -0.0160
 6997SOL    HW222433   4.033   7.405   7.916  0.3471  0.4863  0.4025
 6998SOL     OW22434   0.312   2.665   9.343  0.2982 -0.3203  0.3067
 6998SOL    HW122435   0.222   2.645   9.370  0.1422  0.3110  0.2735
 6998SOL    HW222436   0.342   2.586   9.299 -0.1152 -0.6683  0.6425
 6999SOL     OW22437   0.038   0.339  12.334 -0.3090  0.0865  0.2359
 6999SOL    HW122438   0.052   0.434  12.328  0.1912  0.2081  2.4279
 6999SOL    HW222439   0.115   0.301  12.292 -0.7449  0.6101 -1.0968
 7000SOL     OW22440   0.522   4.987   5.027 -0.4940 -0.4252 -0.6224
 7000SOL    HW122441   0.437   5.011   5.064  0.5284  2.3744  0.1045
 7000SOL    HW222442   0.586   5.024   5.087  1.2490  1.8185 -3.6102
 7001SOL     OW22443   7.882   3.405   3.677  0.3605  0.1245  0.4148
 7001SOL    HW122444   7.922   3.319   3.665 -0.1868 -0.1179  0.3371
 7001SOL    HW222445   7.919   3.437   3.760 -0.4896 -0.7821  1.1662
 7002SOL     OW22446   0.372   1.781   3.389  0.3354 -0.6956 -0.4006
 7002SOL    HW122447   0.312   1.835   3.338 -1.4812 -3.5246 -1.4769
 7002SOL    HW222448   0.327   1.769   3.473  0.5832 -0.7941 -0.2830
 7003SOL     OW22449   7.147   7.776   0.479 -0.0005 -0.3284 -0.2125
 7003SOL    HW122450   7.181   7.707   0.423 -0.7406 -1.2936  0.4975
 7003SOL    HW222451   7.073   7.813   0.430  0.6636  0.2642 -0.7790
 7004SOL     OW22452   0.019   7.114   3.575  0.5145 -0.1394 -0.5618
 7004SOL    HW122453  -0.004   7.076   3.490 -0.3290  0.1254 -0.4608
 7004SOL    HW222454  -0.031   7.195   3.580 -0.5838 -0.8422  0.7861
 7005SOL     OW22455   6.083   0.719   5.419  0.4705 -0.1790  0.4550
 7005SOL    HW122456   6.004   0.664   5.411 -0.2919  0.5023  2.6201
 7005SOL    HW222457   6.137   0.673   5.484  1.4328 -0.1363 -0.2997
 7006SOL     OW22458   5.060   4.060   7.106 -0.9122 -0.5211  0.2638
 7006SOL    HW122459   5.108   3.994   7.056 -1.1324  0.4012 -1.2223
 7006SOL    HW222460   5.027   4.120   7.040 -0.3198  1.3615  1.6091
 7007SOL     OW22461   6.776   6.324   4.871 -0.1014 -0.6023 -0.7793
 7007SOL    HW122462   6.689   6.286   4.859 -0.0200 -1.1866  0.2980
 7007SOL    HW222463   6.814   6.272   4.942  1.0732 -0.2609 -1.1524
 7008SOL     OW22464   6.685   6.810   5.510  0.3292 -0.2314  0.0171
 7008SOL    HW122465   6.613   6.798   5.573  0.4804 -0.9959  0.0585
 7008SOL    HW222466   6.681   6.733   5.454  1.5475 -0.6379  0.4565
 7009SOL     OW22467   6.256   2.796   2.167 -0.1309  0.0344  0.1686
 7009SOL    HW122468   6.243   2.887   2.141 -0.9570 -0.6362 -1.9628
 7009SOL    HW222469   6.169   2.764   2.189  0.0172 -0.5101 -0.0191
 7010SOL     OW22470   6.808   7.103  10.368 -0.3671 -0.0094  0.1456
 7010SOL    HW122471   6.755   7.025  10.385  0.7985 -0.5196  1.5312
 7010SOL    HW222472   6.772   7.170  10.427 -0.1670 -0.0355  0.2966
 7011SOL     OW22473   1.621   4.598   6.040  0.2178 -0.1998 -0.6906
 7011SOL    HW122474   1.566   4.524   6.013  0.0368 -0.1480 -0.4626
 7011SOL    HW222475   1.674   4.617   5.963  2.0119 -2.1298 -0.0082
 7012SOL     OW22476   3.103   1.157   8.271 -0.6502  0.0403  0.3571
 7012SOL    HW122477   3.126   1.184   8.183  0.5553  1.5600  1.0888
 7012SOL    HW222478   3.102   1.061   8.268  0.3442  0.0580 -1.0684
 7013SOL     OW22479   0.049   6.203   4.974 -0.4007  0.1526 -0.7201
 7013SOL    HW122480   0.124   6.251   4.938  0.2170 -1.1483 -1.2284
 7013SOL    HW222481   0.058   6.114   4.939 -0.9891 -0.5982  0.9002
 7014SOL     OW22482   7.095   1.804   6.218 -0.4465 -0.8329 -0.1900
 7014SOL    HW122483   7.061   1.793   6.307  2.6458  0.1453  1.2414
 7014SOL    HW222484   7.123   1.895   6.214  1.7149 -1.4869 -1.3007
 7015SOL     OW22485   5.522   0.533   2.558  0.2353 -0.2490  0.4155
 7015SOL    HW122486   5.578   0.480   2.501  0.6159 -0.1339  0.6806
 7015SOL    HW222487   5.509   0.478   2.636 -0.9078 -0.7245 -0.0858
 7016SOL     OW22488   7.605   4.855  10.318  0.4089  0.8809 -0.1864
 7016SOL    HW122489   7.695   4.833  10.342  0.5058  1.2028 -0.2482
 7016SOL    HW222490   7.611   4.885  10.227 -0.1979 -2.0746 -1.3473
 7017SOL     OW22491   5.816   6.778   0.123 -0.7006  0.1592  0.1203
 7017SOL    HW122492   5.780   6.714   0.184  0.2456  1.2113  1.8555
 7017SOL    HW222493   5.760   6.771   0.045 -0.5075 -2.8829  0.1224
 7018SOL     OW22494   0.185   4.091  10.703  0.5294  0.5339 -0.5261
 7018SOL    HW122495   0.270   4.073  10.745  0.7865  0.9255 -0.8668
 7018SOL    HW222496   0.124   4.033  10.747  0.5196  1.8632  1.3405
 7019SOL     OW22497   2.854   6.843  12.281 -0.0449  0.2646  0.6334
 7019SOL    HW122498   2.787   6.783  12.249 -0.1373 -0.4968  2.1739
 7019SOL    HW222499   2.904   6.792  12.345 -0.6858  2.0421  2.6627
 7020SOL     OW22500   5.629   4.560   6.142 -0.0060  0.4827 -0.1540
 7020SOL    HW122501   5.691   4.576   6.071 -1.0675  0.4649 -1.1186
 7020SOL    HW222502   5.544   4.588   6.107 -0.7286 -0.4960  0.7193
 7021SOL     OW22503   0.213   5.645   3.236  0.8138 -0.5265  0.0672
 7021SOL    HW122504   0.215   5.665   3.142  2.5641  0.9088  0.3623
 7021SOL    HW222505   0.219   5.550   3.240  0.3552 -0.6385 -1.2657
 7022SOL     OW22506   4.477   2.456   0.356 -0.3202  0.1054 -0.0587
 7022SOL    HW122507   4.442   2.389   0.415  0.4833  1.0440  1.5297
 7022SOL    HW222508   4.414   2.458   0.284 -1.5556 -0.8103  0.9331
 7023SOL     OW22509   2.011   6.364   4.316 -0.4434  0.4344 -0.7302
 7023SOL    HW122510   2.065   6.327   4.386  0.0080 -0.2897 -1.4432
 7023SOL    HW222511   1.942   6.412   4.362  0.2820  0.6233  0.2034
 7024SOL     OW22512   3.507   6.694   1.393 -0.1281  0.2872 -0.1301
 7024SOL    HW122513   3.427   6.641   1.393  0.3632 -0.4952  1.1657
 7024SOL    HW222514   3.529   6.704   1.485  0.8386  1.1847 -0.4416
 7025SOL     OW22515   0.832   1.952   5.306 -0.0125  0.2400  0.5878
 7025SOL    HW122516   0.792   2.039   5.305 -0.5896 -0.0256  0.3174
 7025SOL    HW222517   0.824   1.920   5.216 -0.6694 -0.4791  0.8919
 7026SOL     OW22518   2.273   7.186   6.790 -0.8416  0.3668 -0.0657
 7026SOL    HW122519   2.337   7.224   6.851 -0.4080 -0.2454 -0.1260
 7026SOL    HW222520   2.206   7.149   6.847 -0.5555  0.0007  0.0387
 7027SOL     OW22521   5.786   1.450  10.572 -0.1661 -0.1176  0.8667
 7027SOL    HW122522   5.755   1.360  10.569 -0.9744  0.1560  0.6756
 7027SOL    HW222523   5.780   1.481  10.482  0.4879  0.0122  0.8577
 7028SOL     OW22524   3.270   3.293  11.756  0.3126  0.1058  0.1604
 7028SOL    HW122525   3.201   3.342  11.710  2.0342  1.4772 -1.0870
 7028SOL    HW222526   3.222   3.227  11.806 -1.9063  0.9640 -0.6767
 7029SOL     OW22527   3.241   2.970   7.283  0.2966 -0.3982  0.2277
 7029SOL    HW122528   3.237   2.937   7.373  0.4508 -0.3847  0.2405
 7029SOL    HW222529   3.267   2.894   7.230  0.6394 -0.3000  0.2560
 7030SOL     OW22530   0.996   7.222   9.930 -0.1904  0.3442  0.1817
 7030SOL    HW122531   1.030   7.244   9.843 -0.7789 -0.6716 -0.3146
 7030SOL    HW222532   0.931   7.154   9.914 -1.2024  1.0204  1.2947
 7031SOL     OW22533   2.286   1.996   9.656 -0.6967 -0.0422  0.6386
 7031SOL    HW122534   2.296   2.012   9.562  0.2198  2.0683  1.0591
 7031SOL    HW222535   2.238   1.913   9.660 -0.1045 -0.5767 -1.6721
 7032SOL     OW22536   1.067   5.809   4.426  0.9537 -0.0986 -0.0830
 7032SOL    HW122537   0.986   5.860   4.425  1.5964  0.9578 -0.0989
 7032SOL    HW222538   1.058   5.749   4.352  0.5420  0.5801 -0.5970
 7033SOL     OW22539   0.204   5.965   6.521 -0.5195  0.5604 -0.4688
 7033SOL    HW122540   0.293   5.930   6.522 -0.7373 -0.0025 -0.3891
 7033SOL    HW222541   0.197   6.014   6.438  0.6241  2.6407  0.5790
 7034SOL     OW22542   1.816   0.062   2.106  0.5433 -0.2441  0.4376
 7034SOL    HW122543   1.771   0.095   2.028  0.8520 -0.1924  0.2785
 7034SOL    HW222544   1.903   0.102   2.102 -0.2374  1.8554  2.1903
 7035SOL     OW22545   0.915   0.791   7.954 -0.6667  0.3321 -0.1306
 7035SOL    HW122546   0.926   0.710   8.003  3.2688  0.0056 -1.2345
 7035SOL    HW222547   1.001   0.808   7.915 -1.9061  3.8820 -1.7786
 7036SOL     OW22548   2.851   3.126   5.128 -0.0654 -0.0430 -0.4401
 7036SOL    HW122549   2.874   3.072   5.053 -2.5911 -3.5310  1.0193
 7036SOL    HW222550   2.912   3.099   5.197 -0.6121 -0.1902 -0.0079
 7037SOL     OW22551   0.760   2.697   9.920 -0.0504 -0.1512  0.1441
 7037SOL    HW122552   0.760   2.785   9.957 -1.8458 -0.0055 -0.1143
 7037SOL    HW222553   0.667   2.673   9.914  0.2513 -1.0368 -2.1539
 7038SOL     OW22554   5.273   5.167   3.286 -0.3583 -0.3779 -0.3582
 7038SOL    HW122555   5.194   5.130   3.326 -0.1218 -1.6324 -0.9867
 7038SOL    HW222556   5.330   5.188   3.360  0.4843 -3.6005  0.0646
 7039SOL     OW22557   5.288   7.976   0.950 -0.9399  0.0237  0.2512
 7039SOL    HW122558   5.293   8.017   0.863 -1.3163 -1.1058 -0.3282
 7039SOL    HW222559   5.299   7.882   0.932  1.8403 -0.0355  1.7104
 7040SOL     OW22560   6.992   6.852   5.505  0.5821  0.1696  0.0193
 7040SOL    HW122561   7.014   6.771   5.550  2.0944  0.2759 -0.4374
 7040SOL    HW222562   6.897   6.850   5.494  0.5943 -1.5446  0.0034
 7041SOL     OW22563   3.622   3.234   2.373  0.2456  0.3318 -0.3725
 7041SOL    HW122564   3.709   3.234   2.333  1.0103 -4.6808  0.7338
 7041SOL    HW222565   3.629   3.174   2.446 -3.5613  1.8352  1.4817
 7042SOL     OW22566   4.696   5.192   5.020 -0.5767 -0.1661  0.6079
 7042SOL    HW122567   4.723   5.117   4.968  0.0024 -0.2355  0.9955
 7042SOL    HW222568   4.736   5.178   5.106  0.2339  0.9882  0.4461
 7043SOL     OW22569   7.680   7.346   8.893  0.2374  0.0251  0.4607
 7043SOL    HW122570   7.753   7.408   8.888  0.2249  0.2354  2.2680
 7043SOL    HW222571   7.603   7.398   8.869  0.5568  0.0099 -0.6441
 7044SOL     OW22572   1.618   0.401   7.651 -0.1951  0.0754 -0.0961
 7044SOL    HW122573   1.656   0.315   7.668 -1.1576 -0.4396 -0.5374
 7044SOL    HW222574   1.645   0.422   7.561  0.7695  0.6352  0.3063
 7045SOL     OW22575   6.924   1.742  12.275 -0.1208 -0.9182  0.6405
 7045SOL    HW122576   6.906   1.697  12.357  2.3301 -1.6687  0.8507
 7045SOL    HW222577   7.012   1.713  12.250 -0.2433  0.3305 -1.5607
 7046SOL     OW22578   2.785   2.136   4.713 -0.0785 -0.7726 -0.0688
 7046SOL    HW122579   2.713   2.074   4.700  2.0549 -3.3764 -0.3369
 7046SOL    HW222580   2.837   2.131   4.632  0.4790  1.0159  0.1161
 7047SOL     OW22581   0.923   2.760   0.757  0.4397  0.8005 -0.6464
 7047SOL    HW122582   0.953   2.670   0.753 -1.5205  0.1241 -3.2295
 7047SOL    HW222583   0.947   2.790   0.844  2.7755 -1.5917 -0.3413
 7048SOL     OW22584   4.664   7.746   5.753 -0.1416  0.1609  0.1829
 7048SOL    HW122585   4.592   7.790   5.799 -0.4252 -0.8803  0.7596
 7048SOL    HW222586   4.624   7.716   5.671 -0.0831  0.5100  0.0243
 7049SOL     OW22587   4.939   7.580   4.449  0.1219 -0.1441 -0.1268
 7049SOL    HW122588   4.987   7.595   4.531  0.4414  1.3479 -0.5376
 7049SOL    HW222589   4.956   7.489   4.427  0.8388 -0.2948  0.9651
 7050SOL     OW22590   7.590   6.022   0.227 -0.5264 -0.0996 -0.0058
 7050SOL    HW122591   7.669   5.970   0.222 -1.1574 -1.2013  1.1259
 7050SOL    HW222592   7.524   5.971   0.179 -1.2446 -0.5677  1.4314
 7051SOL     OW22593   7.357   5.420  12.111  0.1438 -0.3022  0.0096
 7051SOL    HW122594   7.355   5.338  12.161  0.4506 -0.5603 -0.3915
 7051SOL    HW222595   7.351   5.488  12.177 -0.7279 -0.6517  0.3097
 7052SOL     OW22596   7.041   3.802   8.152 -0.6446  0.1640  0.2631
 7052SOL    HW122597   7.123   3.796   8.104  0.4144 -0.2349  2.0118
 7052SOL    HW222598   6.977   3.756   8.097  0.5624 -0.5339 -0.5952
 7053SOL     OW22599   0.452   5.797   0.415  0.4431  0.2247  0.2508
 7053SOL    HW122600   0.440   5.706   0.388 -0.6590  0.4370 -0.0449
 7053SOL    HW222601   0.502   5.837   0.345 -0.6233  0.2662 -0.5212
 7054SOL     OW22602   2.280   2.901   2.900  0.2609  0.2437  0.4968
 7054SOL    HW122603   2.226   2.823   2.914  1.2779 -0.5137  0.3410
 7054SOL    HW222604   2.225   2.974   2.930 -2.0444 -0.0962 -2.4332
 7055SOL     OW22605   0.272   0.183   9.438  0.1722  0.0094 -0.3817
 7055SOL    HW122606   0.189   0.145   9.408 -0.1353 -0.9676  1.5727
 7055SOL    HW222607   0.254   0.215   9.526  2.0895 -1.0849  0.4681
 7056SOL     OW22608   0.805   3.289   5.362  0.2003 -0.4637  0.0553
 7056SOL    HW122609   0.733   3.237   5.326  0.3974 -1.3056  0.8342
 7056SOL    HW222610   0.801   3.274   5.456 -0.0578  1.3731  0.3812
 7057SOL     OW22611   3.554   1.777  11.348  0.2606  0.3480  0.3311
 7057SOL    HW122612   3.511   1.852  11.306  0.1500  0.4282  0.5857
 7057SOL    HW222613   3.483   1.718  11.369  0.2395  0.6253  1.0446
 7058SOL     OW22614   0.777   0.773   8.387  0.0276  0.3589 -0.4755
 7058SOL    HW122615   0.842   0.728   8.442 -2.6619 -1.5606  1.3809
 7058SOL    HW222616   0.739   0.840   8.444 -0.8694  0.2248 -0.8968
 7059SOL     OW22617   7.692   7.912   1.125  0.1245  0.4241  0.0007
 7059SOL    HW122618   7.767   7.892   1.181 -1.0529 -0.8557  1.1729
 7059SOL    HW222619   7.683   7.836   1.068 -0.2447  0.6078 -0.1885
 7060SOL     OW22620   5.680   1.252   2.033 -0.1347 -0.2581 -0.1373
 7060SOL    HW122621   5.744   1.301   1.982 -0.3356 -1.4790 -1.6529
 7060SOL    HW222622   5.718   1.164   2.039 -0.7469 -0.4739  0.7018
 7061SOL     OW22623   4.318   6.747   2.693 -0.0268  0.1320  0.1908
 7061SOL    HW122624   4.370   6.807   2.640  0.9602 -0.8590  0.0044
 7061SOL    HW222625   4.239   6.731   2.641  0.5472 -0.1652 -0.5945
 7062SOL     OW22626   5.100   0.120   6.111 -0.1805 -0.8866  0.4050
 7062SOL    HW122627   5.115   0.027   6.127  3.2203 -0.3109  1.3662
 7062SOL    HW222628   5.164   0.144   6.044 -0.5573  0.8762  0.6183
 7063SOL     OW22629   2.705   3.888   6.246  0.5882 -0.1040  0.4747
 7063SOL    HW122630   2.758   3.895   6.325  0.0197 -0.0406  0.8570
 7063SOL    HW222631   2.717   3.799   6.216 -0.3347 -0.5910  1.4669
 7064SOL     OW22632   0.506   1.544  11.749 -0.0107 -0.1609 -0.0211
 7064SOL    HW122633   0.436   1.487  11.779  0.7241 -2.4386 -2.3299
 7064SOL    HW222634   0.572   1.540  11.819  0.8271 -3.7163 -0.8589
 7065SOL     OW22635   7.279   2.575   7.196  0.3771  0.2399  0.5931
 7065SOL    HW122636   7.248   2.587   7.285  2.4137  0.6163  1.3051
 7065SOL    HW222637   7.353   2.515   7.204 -0.3092 -0.9058 -1.0547
 7066SOL     OW22638   2.026   2.369  12.408 -0.8756  0.1292 -0.4844
 7066SOL    HW122639   1.963   2.320  12.461 -2.2965  0.9002 -1.3988
 7066SOL    HW222640   1.982   2.452  12.388  0.3264  0.5899 -1.3713
 7067SOL     OW22641   2.212   3.146   1.923  0.7137 -0.1717  0.4594
 7067SOL    HW122642   2.277   3.192   1.977  0.2878  1.5267 -0.4225
 7067SOL    HW222643   2.261   3.073   1.885  2.0642  0.9156  0.0298
 7068SOL     OW22644   3.389   4.307   6.465 -0.8908  0.4370 -0.7293
 7068SOL    HW122645   3.323   4.343   6.406 -0.4876 -0.6734 -1.9370
 7068SOL    HW222646   3.367   4.214   6.472 -0.0724  0.2587 -0.3259
 7069SOL     OW22647   1.641   1.256   2.908  0.1725 -0.0101 -0.1060
 7069SOL    HW122648   1.600   1.342   2.912 -2.5128 -1.2362  2.6347
 7069SOL    HW222649   1.688   1.248   2.991 -1.6158 -1.9800  0.8028
 7070SOL     OW22650   2.802   1.538  12.019  0.0945  0.4261 -0.0164
 7070SOL    HW122651   2.709   1.560  12.020 -0.1635 -0.6224 -0.2755
 7070SOL    HW222652   2.836   1.582  11.941 -0.3363  0.2193 -0.3251
 7071SOL     OW22653   7.923   6.833   0.956  0.3916 -0.3663 -0.2683
 7071SOL    HW122654   7.944   6.761   1.017 -1.1525  0.3648  1.2214
 7071SOL    HW222655   7.852   6.798   0.902 -0.4687  0.0615  0.5629
 7072SOL     OW22656   0.330   3.595   5.163 -0.2260 -0.0722  0.5805
 7072SOL    HW122657   0.243   3.600   5.202 -0.9344  1.1021 -1.0384
 7072SOL    HW222658   0.384   3.551   5.229 -1.8416 -0.0784  1.9483
 7073SOL     OW22659   4.029   3.861   4.531  0.2419 -0.0452 -0.5002
 7073SOL    HW122660   4.072   3.793   4.584  0.3196 -0.4096 -1.0191
 7073SOL    HW222661   3.972   3.907   4.592 -0.3875 -1.0758 -0.2938
 7074SOL     OW22662   3.927   6.623   2.920 -0.1560 -0.6411 -0.2452
 7074SOL    HW122663   3.892   6.601   3.006 -0.4138 -0.6692 -0.3555
 7074SOL    HW222664   3.858   6.597   2.859 -0.5957  0.7386 -0.3647
 7075SOL     OW22665   5.866   7.693   7.182  0.3180 -0.1798  0.1940
 7075SOL    HW122666   5.844   7.605   7.213 -0.0358 -0.0716  0.2614
 7075SOL    HW222667   5.877   7.745   7.261  0.8373 -0.2364  0.1589
 7076SOL     OW22668   1.814   5.382   7.222  0.0004 -0.0537  0.0669
 7076SOL    HW122669   1.847   5.317   7.160  0.6852  0.0600  0.2991
 7076SOL    HW222670   1.828   5.343   7.308  3.7351  1.7231  0.4640
 7077SOL     OW22671   4.411   2.565   6.741 -0.0723 -0.3296  0.1868
 7077SOL    HW122672   4.458   2.624   6.800  1.2921 -1.6198  0.4376
 7077SOL    HW222673   4.478   2.506   6.707 -1.3772 -1.7397 -0.0634
 7078SOL     OW22674   1.696   0.250   6.361  0.4178  0.2044 -0.1521
 7078SOL    HW122675   1.756   0.279   6.429 -1.0280  0.6044  1.0307
 7078SOL    HW222676   1.700   0.155   6.364  0.9716  0.2324 -0.0557
 7079SOL     OW22677   1.868   4.795   6.274 -0.7870 -0.2236  0.6558
 7079SOL    HW122678   1.879   4.812   6.180  1.9334 -1.6016  0.6182
 7079SOL    HW222679   1.921   4.862   6.317  1.6862 -2.1759  0.9076
 7080SOL     OW22680   2.310   4.311   6.012 -0.6571 -0.3029 -0.6110
 7080SOL    HW122681   2.402   4.295   5.989  0.2058  1.2410  1.4333
 7080SOL    HW222682   2.282   4.380   5.952 -0.9717 -1.6922 -2.1451
 7081SOL     OW22683   4.799   7.308   4.007  0.3488  1.2627 -0.0049
 7081SOL    HW122684   4.704   7.309   3.997  0.3938  1.3845 -0.4322
 7081SOL    HW222685   4.833   7.302   3.917  0.7379  0.9209  0.1597
 7082SOL     OW22686   5.404   5.589   3.189  0.0280 -0.2488  0.2132
 7082SOL    HW122687   5.312   5.611   3.205 -0.1271 -0.6303 -0.1379
 7082SOL    HW222688   5.434   5.657   3.128  0.1603  0.2462  0.8239
 7083SOL     OW22689   0.370   3.442   7.676 -0.1118  0.3619  0.5186
 7083SOL    HW122690   0.414   3.500   7.614  0.0041  0.4874  0.7141
 7083SOL    HW222691   0.441   3.410   7.733 -0.4193  1.5532  1.6368
 7084SOL     OW22692   3.111   4.986   5.495 -0.2011  0.3814 -0.2512
 7084SOL    HW122693   3.075   5.004   5.409 -0.0829  1.6005 -0.0608
 7084SOL    HW222694   3.206   4.993   5.483 -0.2118  1.2728  0.1197
 7085SOL     OW22695   0.916   7.301   0.456  0.4253 -0.2379  0.3433
 7085SOL    HW122696   0.862   7.269   0.527 -0.7037 -0.5462 -0.6226
 7085SOL    HW222697   0.923   7.228   0.395 -1.6533  1.0518 -1.5845
 7086SOL     OW22698   2.624   1.724   9.318  0.3149  0.4497  0.7035
 7086SOL    HW122699   2.639   1.796   9.257  0.3495  0.2564  0.4818
 7086SOL    HW222700   2.712   1.690   9.336  0.2821  0.3427  0.6612
 7087SOL     OW22701   2.541   5.675   7.917  0.0300  0.0093  0.0699
 7087SOL    HW122702   2.504   5.734   7.983  0.9704  2.7537 -1.6740
 7087SOL    HW222703   2.635   5.696   7.917  0.3630 -1.3621 -0.7866
 7088SOL     OW22704   0.689   1.620   2.884  0.0687  0.0396 -0.0182
 7088SOL    HW122705   0.727   1.660   2.807  0.0298 -2.0503 -1.1852
 7088SOL    HW222706   0.688   1.526   2.865 -0.9696 -0.4354  2.0624
 7089SOL     OW22707   5.419   1.432   2.725  0.0725 -0.0565 -0.8369
 7089SOL    HW122708   5.495   1.382   2.755 -0.7311 -1.7592 -1.4424
 7089SOL    HW222709   5.395   1.389   2.642  0.4485  2.5715 -2.4247
 7090SOL     OW22710   5.866   1.034  11.175 -0.1363 -0.1051 -0.0712
 7090SOL    HW122711   5.850   0.992  11.260 -2.2577 -0.2172 -0.4811
 7090SOL    HW222712   5.822   0.977  11.112  0.2078  0.7268 -1.0873
 7091SOL     OW22713   4.659   5.197   2.041 -0.2592 -0.2268  0.3162
 7091SOL    HW122714   4.679   5.136   2.112  1.8233 -1.3090 -1.0549
 7091SOL    HW222715   4.714   5.273   2.059 -2.3535  1.0683  1.6599
 7092SOL     OW22716   3.434   7.930   8.297  0.3903 -0.3658 -0.2063
 7092SOL    HW122717   3.470   7.846   8.268  0.0835 -1.2000  1.6840
 7092SOL    HW222718   3.464   7.939   8.387 -0.5007  1.0435 -0.0220
 7093SOL     OW22719   4.433   5.692  12.087  0.4548  0.0246  0.5022
 7093SOL    HW122720   4.416   5.771  12.036  1.7129 -0.1816 -0.2798
 7093SOL    HW222721   4.518   5.709  12.129  0.8384 -0.9733  0.1622
 7094SOL     OW22722   4.855   1.983  12.416 -0.2215 -0.2526 -0.1652
 7094SOL    HW122723   4.917   1.912  12.434 -0.2871 -0.0805  0.7751
 7094SOL    HW222724   4.807   1.954  12.338 -0.9352 -1.6978  0.7804
 7095SOL     OW22725   6.195   0.453   1.712 -0.3457 -0.2030 -0.0670
 7095SOL    HW122726   6.110   0.424   1.678 -0.2246 -1.4652  0.6748
 7095SOL    HW222727   6.247   0.373   1.719 -0.1154  0.1060  2.3530
 7096SOL     OW22728   6.597   0.646   0.484  0.6211 -0.6252  0.2516
 7096SOL    HW122729   6.551   0.620   0.564  0.5179 -0.2307  0.3233
 7096SOL    HW222730   6.629   0.734   0.503  0.0213 -0.2621 -0.3867
 7097SOL     OW22731   5.317   1.324   9.038 -0.1633  0.5717  0.1358
 7097SOL    HW122732   5.245   1.363   8.989  0.2951  1.3121  0.0201
 7097SOL    HW222733   5.317   1.370   9.122  0.8355  1.3702 -0.2750
 7098SOL     OW22734   6.203   1.924   0.803  0.5102 -0.2934  0.1247
 7098SOL    HW122735   6.262   1.985   0.758  2.8306 -2.6783 -0.3026
 7098SOL    HW222736   6.219   1.939   0.896 -0.6832  1.2963  0.1078
 7099SOL     OW22737   4.785   5.418   5.413 -0.6060 -0.1313  0.1231
 7099SOL    HW122738   4.738   5.500   5.428 -0.6281 -0.3427  1.3591
 7099SOL    HW222739   4.855   5.419   5.479 -1.4274 -1.7110  1.0630
 7100SOL     OW22740   7.672   0.701   6.595 -0.4841 -0.4634 -0.3211
 7100SOL    HW122741   7.737   0.716   6.526 -1.3276 -1.1136 -1.2880
 7100SOL    HW222742   7.589   0.730   6.556 -0.6700  1.3045  1.2414
 7101SOL     OW22743   5.860   1.183  11.769 -0.2320  0.1352 -0.0046
 7101SOL    HW122744   5.934   1.225  11.725 -1.0609  0.8377 -0.7868
 7101SOL    HW222745   5.797   1.168  11.699 -0.0789 -2.2304  0.3019
 7102SOL     OW22746   0.131   7.406   6.585 -0.4633 -0.3493  0.0262
 7102SOL    HW122747   0.087   7.385   6.668 -1.1479  0.3401 -0.1456
 7102SOL    HW222748   0.123   7.326   6.533  1.5957 -1.4304  1.2730
 7103SOL     OW22749   0.157   5.394   3.139 -0.3472  0.2118  0.2777
 7103SOL    HW122750   0.079   5.400   3.194 -0.4746  0.5564  0.0610
 7103SOL    HW222751   0.126   5.355   3.058  0.0349 -1.2766  0.8182
 7104SOL     OW22752   4.224   1.446   8.620  0.0302 -0.0289 -0.2477
 7104SOL    HW122753   4.264   1.505   8.683 -0.1305  1.5924 -1.5899
 7104SOL    HW222754   4.152   1.404   8.668 -0.0954  1.1637  0.6369
 7105SOL     OW22755   7.691   0.523   9.927  0.3106 -0.0384  0.2850
 7105SOL    HW122756   7.637   0.520   9.848 -0.0559 -2.1620  0.5571
 7105SOL    HW222757   7.776   0.487   9.899  1.1089  1.7550  0.2505
 7106SOL     OW22758   6.284   5.199   6.610 -0.8555 -0.5901 -0.1846
 7106SOL    HW122759   6.200   5.240   6.628  0.9098  3.3609  0.1272
 7106SOL    HW222760   6.328   5.195   6.695 -0.4787 -2.0847 -0.4244
 7107SOL     OW22761   0.338   3.581   2.194 -0.5074  0.6920 -0.1284
 7107SOL    HW122762   0.392   3.597   2.271  1.0852 -0.4128 -0.9474
 7107SOL    HW222763   0.267   3.525   2.226 -1.2709  2.2376  0.9852
 7108SOL     OW22764   0.798   5.221   3.938  0.1096 -0.4949  0.5265
 7108SOL    HW122765   0.791   5.184   4.026  0.9537  0.5069  1.0320
 7108SOL    HW222766   0.714   5.267   3.924 -0.3152 -1.2678  0.5066
 7109SOL     OW22767   6.048   2.574   5.492 -0.4108  0.7262  0.8669
 7109SOL    HW122768   5.993   2.632   5.545 -0.7410  1.8503 -0.6298
 7109SOL    HW222769   5.987   2.511   5.454 -0.4851  1.1799  0.2242
 7110SOL     OW22770   4.742   6.961   4.900 -0.3920 -0.3114 -0.3857
 7110SOL    HW122771   4.829   6.936   4.929  0.0242  2.1808  0.8419
 7110SOL    HW222772   4.736   6.929   4.810  2.1061  0.0783 -0.7675
 7111SOL     OW22773   4.761   6.498   1.618 -0.1125 -0.0972  0.4889
 7111SOL    HW122774   4.801   6.412   1.606  0.7182  0.4585 -0.8614
 7111SOL    HW222775   4.811   6.556   1.562 -0.8179  1.2417  1.1999
 7112SOL     OW22776   0.414   7.556   1.860  0.2642  0.4234 -0.0421
 7112SOL    HW122777   0.409   7.608   1.940  0.5124  0.8025 -0.2712
 7112SOL    HW222778   0.502   7.572   1.826  0.2391  0.0839 -0.2688
 7113SOL     OW22779   1.069   0.382   7.333  0.0959 -0.1180 -1.1165
 7113SOL    HW122780   1.058   0.319   7.405  0.6942  0.4278 -0.5441
 7113SOL    HW222781   1.032   0.337   7.257 -0.3021 -0.8090 -0.5284
 7114SOL     OW22782   2.945   3.419   7.763  0.1060  0.3207  0.2734
 7114SOL    HW122783   2.858   3.429   7.726  0.5607  2.4153 -0.3696
 7114SOL    HW222784   2.970   3.508   7.790  2.4079 -0.0243 -0.4850
 7115SOL     OW22785   7.215   6.602   1.487  0.1685 -0.3353 -0.0898
 7115SOL    HW122786   7.264   6.536   1.536  0.3965 -0.6445 -0.7266
 7115SOL    HW222787   7.262   6.610   1.404  0.8465  1.4607  0.3953
 7116SOL     OW22788   5.375   2.708   5.615  0.6250 -0.1175 -0.1775
 7116SOL    HW122789   5.282   2.694   5.599  0.7391  0.2482 -1.2043
 7116SOL    HW222790   5.394   2.794   5.576  1.4252 -0.2507 -0.1118
 7117SOL     OW22791   6.475   6.372   8.988 -0.6586  0.3670 -0.0816
 7117SOL    HW122792   6.482   6.358   9.083 -1.6798  1.1225  0.1208
 7117SOL    HW222793   6.464   6.467   8.979 -0.1162  0.3476 -0.9894
 7118SOL     OW22794   7.878   0.014   0.867  0.1918 -0.4923 -0.3736
 7118SOL    HW122795   7.878   0.108   0.879  1.1502 -0.6000  0.6477
 7118SOL    HW222796   7.824  -0.021   0.937  0.4018 -0.7359 -0.3261
 7119SOL     OW22797   7.061   1.908   1.402  0.1838 -0.4785 -0.3323
 7119SOL    HW122798   7.124   1.977   1.380 -0.1011 -0.0663  0.1343
 7119SOL    HW222799   6.997   1.910   1.331  0.8336 -1.0827 -0.9558
 7120SOL     OW22800   3.689   4.664   9.850 -0.0982 -0.2061  0.1963
 7120SOL    HW122801   3.648   4.745   9.820  1.7768  0.4509 -0.7717
 7120SOL    HW222802   3.715   4.619   9.769  2.5858  0.2652  0.7024
 7121SOL     OW22803   6.004   0.711   7.921 -0.0667 -0.1317 -0.3270
 7121SOL    HW122804   5.915   0.695   7.950 -0.7526  2.0812 -1.0530
 7121SOL    HW222805   6.038   0.624   7.899 -0.8257 -1.4859  3.1168
 7122SOL     OW22806   2.444   3.987   6.170  0.0826 -0.3194  0.9419
 7122SOL    HW122807   2.526   3.948   6.198 -0.1502 -1.8361 -0.3550
 7122SOL    HW222808   2.469   4.053   6.106  0.3232 -0.5776  0.7666
 7123SOL     OW22809   1.165   0.171   3.623  0.2978  0.7687  0.5694
 7123SOL    HW122810   1.152   0.175   3.529  1.5235 -1.1190  0.2639
 7123SOL    HW222811   1.188   0.261   3.648  1.0872  1.0696 -1.1124
 7124SOL     OW22812   1.875   5.938   6.122  0.3037 -0.1894  0.0610
 7124SOL    HW122813   1.789   5.957   6.085  0.1977  0.7933  0.7539
 7124SOL    HW222814   1.882   5.997   6.197  1.0134 -1.2388  0.8512
 7125SOL     OW22815   5.880   6.893   5.959 -0.5955  0.2174  0.3361
 7125SOL    HW122816   5.904   6.983   5.939  0.1618 -0.2923 -1.1834
 7125SOL    HW222817   5.784   6.894   5.959 -0.6050  0.8923 -0.3768
 7126SOL     OW22818   6.436   3.815   5.871 -0.0139 -0.5012  0.4416
 7126SOL    HW122819   6.354   3.767   5.884 -1.0832  1.4590  1.3128
 7126SOL    HW222820   6.463   3.840   5.959 -0.6508  2.2512 -0.0551
 7127SOL     OW22821   2.309   5.628  12.465 -0.0780  0.2130  0.0764
 7127SOL    HW122822   2.300   5.554  12.524 -1.7681  1.4555  1.4610
 7127SOL    HW222823   2.300   5.590  12.377 -1.7110 -1.1175  0.7760
 7128SOL     OW22824   7.113   7.747   3.085 -0.3659 -0.3181  0.3330
 7128SOL    HW122825   7.167   7.713   3.156 -0.0113 -0.5536 -0.0426
 7128SOL    HW222826   7.149   7.833   3.066 -1.9591  0.7776  2.0281
 7129SOL     OW22827   2.976   0.148   8.155 -0.7357 -0.2678 -0.8645
 7129SOL    HW122828   2.994   0.216   8.220 -0.1576  0.7616 -2.0666
 7129SOL    HW222829   2.980   0.066   8.205 -0.2397  0.4791  0.3802
 7130SOL     OW22830   4.405   7.592   8.260  0.2499  0.0966 -0.7295
 7130SOL    HW122831   4.469   7.552   8.202  2.6061  0.8017  1.2167
 7130SOL    HW222832   4.402   7.684   8.233 -0.5870 -0.1074 -1.3468
 7131SOL     OW22833   0.366   2.198   5.655 -0.4100 -0.2225  0.2040
 7131SOL    HW122834   0.435   2.264   5.641  1.3196 -1.6677  1.3837
 7131SOL    HW222835   0.311   2.235   5.724 -1.5836  1.4569 -1.5310
 7132SOL     OW22836   7.165   5.963   4.449  0.2643  0.3006  0.1594
 7132SOL    HW122837   7.163   6.058   4.458  1.2373  0.3250  0.1598
 7132SOL    HW222838   7.080   5.941   4.411  0.6710  1.3463 -1.4494
 7133SOL     OW22839   3.759   2.507   0.660  0.0947  0.7114 -0.3987
 7133SOL    HW122840   3.695   2.443   0.628  1.9675 -0.9427 -1.0446
 7133SOL    HW222841   3.735   2.521   0.752 -2.6232  2.0706 -1.1850
 7134SOL     OW22842   1.508   4.358   4.252 -0.3873  0.4149 -0.2616
 7134SOL    HW122843   1.484   4.270   4.279 -1.3578  0.8439  0.3114
 7134SOL    HW222844   1.433   4.412   4.276  0.2435  1.4194 -0.4914
 7135SOL     OW22845   5.277   6.313   5.994  0.0749 -0.0170  0.1207
 7135SOL    HW122846   5.188   6.317   6.030 -0.8313 -0.2297 -1.9383
 7135SOL    HW222847   5.329   6.272   6.063 -1.5864 -0.5847  1.0946
 7136SOL     OW22848   1.700   6.569   4.992  1.1536  0.4931 -0.3949
 7136SOL    HW122849   1.634   6.499   4.986  0.8163  0.8141 -0.4872
 7136SOL    HW222850   1.736   6.576   4.904  1.8546 -0.1914 -0.1800
 7137SOL     OW22851   2.302   6.361   0.475  0.0607  0.2704  0.2013
 7137SOL    HW122852   2.213   6.368   0.510  0.0746 -0.4598  0.3918
 7137SOL    HW222853   2.356   6.339   0.551  0.2085 -0.5695 -0.1452
 7138SOL     OW22854   7.915   0.975  11.181  0.2194  0.1510 -0.2452
 7138SOL    HW122855   7.972   0.898  11.184  2.2108  1.5171 -0.5200
 7138SOL    HW222856   7.943   1.028  11.256 -0.3450  1.0887 -0.6783
 7139SOL     OW22857   7.881   2.584   7.434  0.0799 -0.3822  0.0716
 7139SOL    HW122858   7.908   2.671   7.406 -1.6776 -0.5267 -2.3845
 7139SOL    HW222859   7.946   2.525   7.395 -0.2327 -0.3273 -0.5423
 7140SOL     OW22860   4.964   4.986   2.349 -0.4327 -0.3062 -0.6090
 7140SOL    HW122861   5.008   5.014   2.429 -1.5636  0.3647 -0.2005
 7140SOL    HW222862   4.952   4.891   2.360 -2.2209  0.0515  0.8711
 7141SOL     OW22863   6.966   3.069   7.511 -0.1889 -0.9392  0.3114
 7141SOL    HW122864   6.921   3.118   7.580 -0.8034 -0.8919 -0.1215
 7141SOL    HW222865   6.932   3.105   7.429  1.1067 -0.4516 -0.0367
 7142SOL     OW22866   3.186   7.264  11.648  0.4192 -0.6730 -0.1061
 7142SOL    HW122867   3.124   7.336  11.653 -1.1403 -1.7761 -2.2296
 7142SOL    HW222868   3.255   7.296  11.589  0.0172 -0.7068 -0.5989
 7143SOL     OW22869   1.269   0.141  10.151 -0.1844  0.4802  1.0424
 7143SOL    HW122870   1.321   0.183  10.082 -0.2031 -0.2817  0.5561
 7143SOL    HW222871   1.193   0.198  10.162 -0.1560  0.6316  0.4651
 7144SOL     OW22872   7.422   4.815  11.279  0.3218  0.2198 -0.2980
 7144SOL    HW122873   7.341   4.862  11.260  0.1460  0.4824  0.9972
 7144SOL    HW222874   7.486   4.883  11.297  0.4681 -0.0018  0.0319
 7145SOL     OW22875   3.732   2.186  10.988  0.5061  0.0923 -0.2884
 7145SOL    HW122876   3.721   2.097  10.957 -1.2803  0.4220 -0.6948
 7145SOL    HW222877   3.774   2.177  11.074  0.2922 -1.1285 -0.3047
 7146SOL     OW22878   6.423   2.823   3.707  0.1481 -0.5901 -0.0682
 7146SOL    HW122879   6.331   2.841   3.686 -0.0847 -1.8298 -0.2351
 7146SOL    HW222880   6.455   2.775   3.631  1.3028  0.9023 -0.5492
 7147SOL     OW22881   2.404   7.733   7.071  1.2692  0.1474 -0.1604
 7147SOL    HW122882   2.329   7.782   7.037  0.7386 -1.0369 -0.7588
 7147SOL    HW222883   2.380   7.712   7.161  1.0502  0.1216 -0.2244
 7148SOL     OW22884   2.836   6.931  10.678  0.6863 -0.6532 -0.3930
 7148SOL    HW122885   2.782   6.893  10.609  0.1754 -0.5026 -0.0799
 7148SOL    HW222886   2.851   6.859  10.739  1.4745 -0.8920 -0.8572
 7149SOL     OW22887   7.040   0.910   7.029 -0.7322 -0.4503  0.1807
 7149SOL    HW122888   6.960   0.961   7.012 -0.8271 -1.5160 -3.1162
 7149SOL    HW222889   7.105   0.947   6.969  0.8343 -0.6696  1.6713
 7150SOL     OW22890   6.832   3.616   8.032 -0.2320 -0.0972 -0.5329
 7150SOL    HW122891   6.814   3.556   7.960  1.1219 -1.3190  0.0974
 7150SOL    HW222892   6.779   3.694   8.012 -0.1455 -0.5202 -2.6508
 7151SOL     OW22893   0.148   0.890  10.655  0.1278  0.0275 -0.7157
 7151SOL    HW122894   0.209   0.947  10.702 -0.1568  0.7920 -1.2499
 7151SOL    HW222895   0.065   0.939  10.654 -1.5836 -2.3843  2.9818
 7152SOL     OW22896   7.848   7.740   1.926 -0.6116  0.0464  0.1315
 7152SOL    HW122897   7.886   7.713   2.010 -0.3773 -2.4261 -0.7016
 7152SOL    HW222898   7.923   7.744   1.866 -1.0421 -0.3226 -0.4453
 7153SOL     OW22899   1.622   7.507   6.307 -0.3267  0.3239 -0.6472
 7153SOL    HW122900   1.604   7.501   6.213 -0.9311 -1.2931 -0.4611
 7153SOL    HW222901   1.713   7.534   6.312 -0.4102  0.8638 -1.7011
 7154SOL     OW22902   1.447   4.014   9.685  0.4688  0.5256 -0.0152
 7154SOL    HW122903   1.415   3.961   9.758 -0.8239  1.1970 -0.0749
 7154SOL    HW222904   1.386   3.997   9.614  2.2189 -0.8334 -1.2899
 7155SOL     OW22905   5.615   2.433   5.516  0.0928  0.9906  0.2404
 7155SOL    HW122906   5.668   2.429   5.596  1.2315  0.1995 -0.5171
 7155SOL    HW222907   5.677   2.464   5.450 -0.8341  1.6196 -0.3405
 7156SOL     OW22908   1.168   2.133   6.938 -0.3969  0.7011 -0.1113
 7156SOL    HW122909   1.144   2.103   7.026 -0.8115 -2.6238 -1.1978
 7156SOL    HW222910   1.261   2.109   6.930 -0.6868 -0.1626 -0.9778
 7157SOL     OW22911   1.107   7.009   1.219  0.4946 -0.0486  0.1837
 7157SOL    HW122912   1.189   7.042   1.183 -0.0882  0.4564 -0.7373
 7157SOL    HW222913   1.086   7.069   1.291  0.0189  0.9331 -0.7537
 7158SOL     OW22914   1.105   4.815   4.485  0.4560 -0.1693  0.5833
 7158SOL    HW122915   1.029   4.831   4.540 -0.2508 -1.2372 -0.0546
 7158SOL    HW222916   1.179   4.853   4.533 -0.5063  1.1454  1.0726
 7159SOL     OW22917   3.191   3.704   1.123  0.3868  0.5950  0.1245
 7159SOL    HW122918   3.150   3.695   1.209  0.1355  1.6139  0.1270
 7159SOL    HW222919   3.118   3.696   1.061  0.4058  0.8791  0.0620
 7160SOL     OW22920   6.837   4.123  12.242  0.2169  0.3322  0.1544
 7160SOL    HW122921   6.803   4.212  12.235 -1.8088 -0.5141 -2.5873
 7160SOL    HW222922   6.763   4.071  12.273  1.4328 -0.4486  1.9386
 7161SOL     OW22923   3.409   7.527   2.067  0.1483  0.1887 -0.1480
 7161SOL    HW122924   3.472   7.587   2.028 -0.3436 -0.2517 -1.6827
 7161SOL    HW222925   3.356   7.582   2.125  0.9558  0.8437 -0.0138
 7162SOL     OW22926   7.913   2.845   4.533 -0.0176 -0.7033  0.1531
 7162SOL    HW122927   7.910   2.938   4.509  1.5614 -0.8303 -0.6955
 7162SOL    HW222928   8.007   2.824   4.535 -0.1887 -1.6489  2.9404
 7163SOL     OW22929   5.691   0.620   1.091 -0.2885 -0.4560 -0.5025
 7163SOL    HW122930   5.725   0.706   1.067 -0.3615 -0.0291  0.8318
 7163SOL    HW222931   5.659   0.583   1.009  0.3385  0.5189 -1.2057
 7164SOL     OW22932   2.934   1.146   2.193  0.2701 -0.0893  0.2836
 7164SOL    HW122933   2.910   1.061   2.157  0.4821 -0.4545  1.0010
 7164SOL    HW222934   2.865   1.166   2.256 -3.3669  3.0735 -3.9616
 7165SOL     OW22935   7.924   1.913   4.309 -0.0936  0.8821  0.4388
 7165SOL    HW122936   7.916   1.996   4.354  0.7971  1.6576 -0.7619
 7165SOL    HW222937   8.007   1.876   4.341 -0.0596  0.8644  0.3318
 7166SOL     OW22938   5.312   7.159  11.325  0.1479 -0.3424 -0.4731
 7166SOL    HW122939   5.217   7.166  11.336  0.3819  1.8874  0.6897
 7166SOL    HW222940   5.348   7.202  11.403  2.1258 -0.8914 -1.0377
 7167SOL     OW22941   7.615   6.473   9.639 -0.1835 -0.3384 -0.3579
 7167SOL    HW122942   7.649   6.488   9.551  0.9988 -2.2244 -0.2681
 7167SOL    HW222943   7.683   6.506   9.697 -1.6181  2.3312 -0.0657
 7168SOL     OW22944   2.036   2.544   0.364 -0.2255 -0.0499 -0.2796
 7168SOL    HW122945   2.098   2.559   0.292 -0.6477  1.7657 -0.3146
 7168SOL    HW222946   1.960   2.597   0.340 -0.6421  0.0305  1.1774
 7169SOL     OW22947   7.790   1.246   5.744  0.2136  0.0188  0.5643
 7169SOL    HW122948   7.776   1.324   5.798 -1.9796  0.0844  0.0101
 7169SOL    HW222949   7.733   1.259   5.668 -1.5082 -2.7783  1.1953
 7170SOL     OW22950   1.650   7.137   7.416 -0.4337  0.0365  0.7056
 7170SOL    HW122951   1.736   7.160   7.453 -1.2513 -0.2748  2.9547
 7170SOL    HW222952   1.614   7.220   7.385  0.6811  0.1566 -0.3987
 7171SOL     OW22953   5.756   2.187   4.176 -0.0825 -0.4885  0.4109
 7171SOL    HW122954   5.768   2.121   4.244  1.9807 -0.1140  0.4609
 7171SOL    HW222955   5.765   2.270   4.221 -0.7232 -0.1957  0.0098
 7172SOL     OW22956   1.175   5.173   2.672 -0.6659 -0.8404  0.7838
 7172SOL    HW122957   1.099   5.228   2.649  0.2298 -0.2247 -0.8369
 7172SOL    HW222958   1.138   5.086   2.686 -1.8350 -0.2832  1.3592
 7173SOL     OW22959   1.657   0.924   6.560  0.4422 -0.0697  0.6951
 7173SOL    HW122960   1.667   1.011   6.598 -1.1973  0.2731  0.4159
 7173SOL    HW222961   1.692   0.933   6.471 -1.7933  0.9796 -0.1471
 7174SOL     OW22962   3.706   2.810   0.408  0.2653 -0.2648  0.0191
 7174SOL    HW122963   3.773   2.793   0.475 -0.2068  0.0132  0.5719
 7174SOL    HW222964   3.634   2.851   0.456 -0.5434 -1.0926 -0.4526
 7175SOL     OW22965   5.185   4.483  10.269 -0.4127 -0.4628 -0.3043
 7175SOL    HW122966   5.172   4.567  10.224  0.1386 -0.4866 -0.5126
 7175SOL    HW222967   5.150   4.418  10.208  1.2630 -0.5933 -1.1767
 7176SOL     OW22968   7.440   0.954   7.179  0.7460 -0.2068 -0.5083
 7176SOL    HW122969   7.474   1.032   7.135 -0.8556 -0.5619 -2.5210
 7176SOL    HW222970   7.352   0.979   7.207 -0.0839 -1.4869 -1.8591
 7177SOL     OW22971   6.403   0.851   6.388 -0.0167 -0.0835 -0.0484
 7177SOL    HW122972   6.469   0.908   6.428  0.7940 -1.2350  0.3250
 7177SOL    HW222973   6.344   0.830   6.460 -0.4605  0.4652 -0.2442
 7178SOL     OW22974   0.871   1.962   9.502 -0.3004 -0.1864 -0.1415
 7178SOL    HW122975   0.869   1.901   9.429 -0.1694 -0.5253  0.1350
 7178SOL    HW222976   0.946   1.935   9.555  0.1727  0.6281 -0.3723
 7179SOL     OW22977   2.720   5.356   5.643 -0.1310 -0.2764 -0.2099
 7179SOL    HW122978   2.770   5.434   5.665 -0.7312  0.2288 -0.5794
 7179SOL    HW222979   2.777   5.307   5.583 -0.1256  0.3638 -0.7478
 7180SOL     OW22980   5.177   3.559   0.742 -0.0815 -0.6350 -0.1170
 7180SOL    HW122981   5.101   3.561   0.683 -1.1383 -0.3851  1.1914
 7180SOL    HW222982   5.252   3.543   0.685 -1.0340 -0.1681 -1.5452
 7181SOL     OW22983   2.131   5.572   7.427 -0.0938  0.5285  0.2985
 7181SOL    HW122984   2.102   5.658   7.395 -1.8327  1.1156  3.0823
 7181SOL    HW222985   2.169   5.590   7.512 -0.1228 -1.4207  0.7717
 7182SOL     OW22986   0.448   4.099   2.980  0.8197  0.0520  0.1473
 7182SOL    HW122987   0.482   4.121   2.893  2.7642  0.0069  0.8509
 7182SOL    HW222988   0.439   4.184   3.024 -0.7810  0.1309 -0.2744
 7183SOL     OW22989   3.886   4.429  11.864 -0.4482  0.5433 -0.4065
 7183SOL    HW122990   3.844   4.346  11.889 -0.0324  0.7901  1.2458
 7183SOL    HW222991   3.816   4.494  11.869 -0.3599  0.5994  0.2543
 7184SOL     OW22992   4.299   4.914  10.894  0.0808  0.5361 -0.3640
 7184SOL    HW122993   4.215   4.955  10.913  0.0177  0.0295  0.5340
 7184SOL    HW222994   4.287   4.870  10.810 -0.9683 -0.5728  0.3281
 7185SOL     OW22995   3.101   1.876   2.110  0.0353  0.1398  0.3287
 7185SOL    HW122996   3.145   1.902   2.028 -0.9595  1.4473  0.1732
 7185SOL    HW222997   3.078   1.784   2.097  0.1249  0.2577 -0.7631
 7186SOL     OW22998   3.658   6.403   1.664  0.0884 -0.5220  0.1795
 7186SOL    HW122999   3.665   6.496   1.684  0.2968 -0.4624 -0.1691
 7186SOL    HW223000   3.611   6.366   1.740  0.4812 -0.2269  0.5734
 7187SOL     OW23001   4.621   6.259   1.831  0.0711  0.1016 -0.2682
 7187SOL    HW123002   4.709   6.277   1.865 -0.6111  1.2536  0.9507
 7187SOL    HW223003   4.587   6.344   1.805 -0.0237 -0.5628 -2.5001
 7188SOL     OW23004   1.697   4.076   3.009  0.4022  0.5993 -0.2948
 7188SOL    HW123005   1.757   4.147   3.031 -0.3012  1.7025 -1.8058
 7188SOL    HW223006   1.743   4.026   2.942  0.7769 -0.2403  0.5642
 7189SOL     OW23007   6.807   3.883   8.350  0.0712  0.1424  0.7607
 7189SOL    HW123008   6.867   3.845   8.286  0.1234 -1.1857  1.5539
 7189SOL    HW223009   6.741   3.816   8.365 -1.6695  1.5775 -0.0935
 7190SOL     OW23010   0.025   3.784   7.065 -0.7613 -0.4566  0.2517
 7190SOL    HW123011  -0.022   3.749   6.989  0.0200  0.0060 -0.4678
 7190SOL    HW223012   0.080   3.853   7.028 -0.3376 -0.2561  1.2440
 7191SOL     OW23013   4.530   5.537   5.548 -0.0408 -0.0122  0.3516
 7191SOL    HW123014   4.574   5.496   5.623 -0.2152 -0.3014  0.2946
 7191SOL    HW223015   4.439   5.509   5.555 -0.1406  0.2848  0.2555
 7192SOL     OW23016   0.441   5.988  11.435 -0.3959 -0.6927  0.2250
 7192SOL    HW123017   0.374   5.981  11.503 -1.0460 -1.7144 -0.4705
 7192SOL    HW223018   0.398   5.952  11.357  0.6248 -0.3793 -0.4998
 7193SOL     OW23019   0.633   6.387   4.404  0.4632  0.3895  0.1697
 7193SOL    HW123020   0.711   6.355   4.357  0.5989  1.7523 -0.5804
 7193SOL    HW223021   0.604   6.312   4.455  2.7724  0.0742  1.1408
 7194SOL     OW23022   1.744   0.629   2.518  0.8164 -0.2318 -0.6723
 7194SOL    HW123023   1.655   0.660   2.538  0.7649  0.5092 -1.9277
 7194SOL    HW223024   1.784   0.702   2.470  2.2459 -0.4156  0.1986
 7195SOL     OW23025   2.011   7.671  11.661  0.7066 -0.0703  0.2340
 7195SOL    HW123026   2.061   7.681  11.742  1.5901  1.1533 -0.4496
 7195SOL    HW223027   2.059   7.721  11.595 -0.5746 -0.1475 -0.8100
 7196SOL     OW23028   3.980   1.353   6.544 -0.0659  0.1310  0.2007
 7196SOL    HW123029   3.956   1.406   6.468  0.6533 -0.8076 -0.7088
 7196SOL    HW223030   4.070   1.324   6.526 -0.5805 -1.7658  0.4302
 7197SOL     OW23031   0.623   4.208   9.467 -0.3976 -0.0223 -0.4818
 7197SOL    HW123032   0.633   4.276   9.400 -0.9931  0.7665  0.1969
 7197SOL    HW223033   0.703   4.214   9.519 -0.1349 -0.3310 -0.8440
 7198SOL     OW23034   7.586   3.709  11.518 -0.3129 -0.0724 -0.2317
 7198SOL    HW123035   7.653   3.674  11.576 -0.0775 -1.0775 -1.0751
 7198SOL    HW223036   7.628   3.783  11.473 -0.4099  0.5333  0.6490
 7199SOL     OW23037   6.892   0.738  11.616  0.0961  0.3723  0.1176
 7199SOL    HW123038   6.889   0.753  11.710  1.4236 -2.6382  0.7684
 7199SOL    HW223039   6.804   0.707  11.594  0.0007  0.3439  0.5272
 7200SOL     OW23040   4.096   5.498   7.163 -0.4486 -0.1383  0.3052
 7200SOL    HW123041   4.131   5.514   7.076 -0.3129  1.1568  0.5831
 7200SOL    HW223042   4.157   5.436   7.203 -1.3120 -1.9119 -1.0180
 7201SOL     OW23043   7.524   4.456  10.358  0.0387  0.1109  0.0322
 7201SOL    HW123044   7.545   4.537  10.405 -1.5197 -0.0953  1.1517
 7201SOL    HW223045   7.531   4.387  10.423 -2.3313 -0.1609  0.0993
 7202SOL     OW23046   2.226   3.913   4.590  0.2768 -0.0959 -0.4633
 7202SOL    HW123047   2.231   3.980   4.659 -1.0776 -0.4011 -0.0534
 7202SOL    HW223048   2.243   3.831   4.635  0.4751 -0.1889 -0.7046
 7203SOL     OW23049   7.694   0.365   7.194  0.0420  0.0051  0.1153
 7203SOL    HW123050   7.774   0.318   7.171 -0.5908 -1.7992  1.3696
 7203SOL    HW223051   7.720   0.422   7.266  0.2892 -0.3335  0.2998
 7204SOL     OW23052   5.162   4.231   8.530  0.2007 -0.6017 -0.1004
 7204SOL    HW123053   5.082   4.181   8.515 -1.2211  1.8101 -1.1068
 7204SOL    HW223054   5.131   4.315   8.565  2.3212  0.2981 -0.2575
 7205SOL     OW23055   3.163   0.263   4.328 -1.0598 -0.2866  0.6171
 7205SOL    HW123056   3.179   0.258   4.233  1.2338  0.4802  0.9059
 7205SOL    HW223057   3.237   0.217   4.367 -0.7220  1.3924  2.0908
 7206SOL     OW23058   2.058   6.750   1.232 -0.2070 -1.0348  0.7969
 7206SOL    HW123059   1.974   6.757   1.279  0.6326  0.9995  2.1488
 7206SOL    HW223060   2.056   6.823   1.169  0.2384 -1.4359  0.3129
 7207SOL     OW23061   0.073   0.222   5.067 -0.2816  0.4357  0.3813
 7207SOL    HW123062  -0.014   0.257   5.089 -0.6107  0.3695 -0.7133
 7207SOL    HW223063   0.091   0.158   5.136 -1.2584  0.2131  0.4527
 7208SOL     OW23064   2.119   7.756  10.924  0.2411 -0.3192 -0.0946
 7208SOL    HW123065   2.170   7.675  10.926 -1.2145 -1.3432 -1.6484
 7208SOL    HW223066   2.068   7.750  10.843  0.8685  2.6654 -0.8286
 7209SOL     OW23067   1.452   0.090   5.613  0.0604 -0.4637  0.0229
 7209SOL    HW123068   1.434   0.106   5.706 -2.0836 -3.4960  0.2617
 7209SOL    HW223069   1.505   0.165   5.586 -1.2777  1.7952  3.0642
 7210SOL     OW23070   5.419   4.037   9.897  0.0198  0.0869  0.3229
 7210SOL    HW123071   5.475   3.963   9.922 -0.9667 -0.6257  0.5343
 7210SOL    HW223072   5.476   4.114   9.903  0.4487 -0.3161  2.6456
 7211SOL     OW23073   1.727   3.039   1.095 -0.5898  0.3500  0.4047
 7211SOL    HW123074   1.645   3.089   1.103 -0.4614  0.6206  0.0363
 7211SOL    HW223075   1.788   3.085   1.153 -0.2446  1.1030 -0.5258
 7212SOL     OW23076   4.219   4.287   0.414  0.3412 -0.0996 -0.2294
 7212SOL    HW123077   4.205   4.355   0.480 -1.4327 -0.3235 -0.3250
 7212SOL    HW223078   4.283   4.324   0.354 -1.0191  1.7809 -0.6064
 7213SOL     OW23079   5.755   1.844   1.890 -0.1921  0.6799 -0.1017
 7213SOL    HW123080   5.697   1.846   1.815 -0.6921  0.9837  0.2865
 7213SOL    HW223081   5.772   1.936   1.911  2.3351  0.6700 -1.6366
 7214SOL     OW23082   6.524   7.072   9.068 -0.5112  0.1410  0.4076
 7214SOL    HW123083   6.561   7.079   9.156 -1.0793 -1.3460  0.7963
 7214SOL    HW223084   6.430   7.073   9.082 -0.6698 -2.7973  0.1592
 7215SOL     OW23085   2.259   2.066   6.626 -0.0322  0.0613  0.1835
 7215SOL    HW123086   2.246   2.041   6.535 -0.0674 -0.3299  0.2941
 7215SOL    HW223087   2.173   2.098   6.655 -0.0040  0.2507  0.0628
 7216SOL     OW23088   2.313   5.337   3.257 -0.0266  0.5740 -0.0304
 7216SOL    HW123089   2.244   5.400   3.278 -0.3546 -0.1564  1.2304
 7216SOL    HW223090   2.345   5.307   3.343  0.7333 -0.3106 -0.5960
 7217SOL     OW23091   3.140   1.831   4.358  0.4311  0.2243 -0.1712
 7217SOL    HW123092   3.157   1.767   4.289  2.0738 -0.0103  0.4119
 7217SOL    HW223093   3.052   1.811   4.388  0.4860 -1.0201 -0.7846
 7218SOL     OW23094   5.014   3.952   0.497 -0.2587  0.0833  0.3500
 7218SOL    HW123095   4.959   3.920   0.568 -0.9954  0.4131 -0.0649
 7218SOL    HW223096   5.090   3.989   0.540 -0.8885  0.6456  0.9854
 7219SOL     OW23097   2.567   6.155   1.422  0.3641 -0.5771 -0.1334
 7219SOL    HW123098   2.634   6.219   1.398 -0.1504  0.4748  1.0798
 7219SOL    HW223099   2.550   6.172   1.514 -2.9285  0.5450 -0.8089
 7220SOL     OW23100   0.397   0.572   1.916  0.0898 -0.0303  0.6709
 7220SOL    HW123101   0.333   0.525   1.862 -0.1047  2.3581 -1.3699
 7220SOL    HW223102   0.373   0.551   2.006 -0.2146 -3.3917 -0.0684
 7221SOL     OW23103   4.245   5.944   4.655 -0.6889 -0.2005 -0.2991
 7221SOL    HW123104   4.259   6.029   4.698 -2.0495  0.1561 -0.5128
 7221SOL    HW223105   4.153   5.946   4.628 -0.5503 -1.4730 -0.9241
 7222SOL     OW23106   2.613   1.720   1.931  0.5042 -0.0608 -0.0694
 7222SOL    HW123107   2.544   1.740   1.994 -0.3592 -1.4067 -0.5480
 7222SOL    HW223108   2.694   1.721   1.982  0.0883  1.0386  0.5976
 7223SOL     OW23109   7.415   3.267   2.260 -0.6254  0.2500  0.7134
 7223SOL    HW123110   7.387   3.176   2.256 -0.1072  0.1134 -0.0922
 7223SOL    HW223111   7.461   3.275   2.344 -2.2031  0.2364  1.6107
 7224SOL     OW23112   7.346   3.321   3.681  0.0233 -0.3822 -0.6061
 7224SOL    HW123113   7.434   3.293   3.707  1.2142  1.0471 -2.7556
 7224SOL    HW223114   7.347   3.416   3.693 -1.9393 -0.5273  1.1291
 7225SOL     OW23115   5.460   0.044   1.157 -0.0706 -0.0873  0.1385
 7225SOL    HW123116   5.511   0.125   1.148 -1.1842  0.5918 -0.2989
 7225SOL    HW223117   5.404   0.042   1.079  0.1343 -1.4309  0.0097
 7226SOL     OW23118   2.621   7.851  10.403 -0.3109 -0.6335 -0.3360
 7226SOL    HW123119   2.569   7.796  10.462 -0.0474  0.7357  1.2512
 7226SOL    HW223120   2.582   7.837  10.316 -1.1465 -2.1895  0.2547
 7227SOL     OW23121   0.773   7.309   6.980 -0.0852  0.0982  0.4447
 7227SOL    HW123122   0.836   7.285   7.048  0.5333 -0.4831 -0.3126
 7227SOL    HW223123   0.692   7.328   7.027  0.4562  0.1474  1.3728
 7228SOL     OW23124   5.201   3.259   8.411 -0.0202  0.2327  0.2407
 7228SOL    HW123125   5.183   3.179   8.361 -1.3433  2.1604 -2.6843
 7228SOL    HW223126   5.125   3.315   8.396  1.8117  2.9497  0.1255
 7229SOL     OW23127   1.876   2.645   8.334  0.7541  0.6188  0.7765
 7229SOL    HW123128   1.957   2.655   8.385 -0.1604  1.2968  2.1435
 7229SOL    HW223129   1.809   2.689   8.385  0.1710  3.4061 -2.0908
 7230SOL     OW23130   5.946   4.160   4.649 -0.6217 -0.2094 -0.3448
 7230SOL    HW123131   5.867   4.124   4.690 -2.0249 -2.1573 -4.2391
 7230SOL    HW223132   6.005   4.085   4.640  1.9693  1.2454  2.6621
 7231SOL     OW23133   7.750   7.694   2.887  0.0494 -0.2428  0.6467
 7231SOL    HW123134   7.705   7.775   2.862 -0.8023 -1.1623 -0.8987
 7231SOL    HW223135   7.827   7.691   2.831  0.3015 -0.3107  0.9925
 7232SOL     OW23136   2.665   7.159   1.133  0.4862  0.6922 -0.8493
 7232SOL    HW123137   2.679   7.245   1.094  0.2879  0.4584 -1.4525
 7232SOL    HW223138   2.651   7.101   1.059 -0.4189  0.3261 -0.4127
 7233SOL     OW23139   2.868   5.577   8.734  0.0437 -0.4186  0.1566
 7233SOL    HW123140   2.929   5.503   8.726 -0.6196 -0.9073 -0.5837
 7233SOL    HW223141   2.888   5.615   8.819  0.0532 -1.7775  0.7981
 7234SOL     OW23142   3.607   7.578   1.333 -0.3244  0.1857 -0.5730
 7234SOL    HW123143   3.700   7.569   1.312  0.6637  2.8375  2.0015
 7234SOL    HW223144   3.577   7.488   1.348  1.6182 -0.7733 -2.0568
 7235SOL     OW23145   5.174   5.135   0.367 -0.0074 -0.0913 -0.0687
 7235SOL    HW123146   5.173   5.144   0.272  0.2905 -1.4424 -0.2162
 7235SOL    HW223147   5.194   5.043   0.383  0.0407  0.1278  1.3080
 7236SOL     OW23148   7.183   4.572   1.860  0.9507 -0.4059  0.5900
 7236SOL    HW123149   7.184   4.644   1.796 -1.0379  0.4762  1.4666
 7236SOL    HW223150   7.139   4.609   1.936  1.4364 -2.0677  1.7241
 7237SOL     OW23151   4.772   0.348  12.280  0.0242  0.0077  0.1912
 7237SOL    HW123152   4.702   0.343  12.215  0.2560  0.6772 -0.1122
 7237SOL    HW223153   4.762   0.434  12.320 -0.6885 -0.7284  1.7086
 7238SOL     OW23154   5.372   1.615   0.557 -0.8931 -0.2594  0.2296
 7238SOL    HW123155   5.416   1.600   0.474 -0.7788  0.7212  0.1059
 7238SOL    HW223156   5.434   1.583   0.623 -0.0674  0.8780  0.0414
 7239SOL     OW23157   7.300   1.736   6.051 -0.0219 -0.3577  0.0195
 7239SOL    HW123158   7.232   1.780   6.101 -0.0651 -0.2996 -0.0912
 7239SOL    HW223159   7.375   1.795   6.056  0.5103 -1.1067  1.4155
 7240SOL     OW23160   1.195   4.667   9.711 -0.0224 -0.2674 -0.4738
 7240SOL    HW123161   1.268   4.614   9.680  1.5545  0.9918  0.9103
 7240SOL    HW223162   1.232   4.754   9.726 -1.2316 -0.1122  2.3585
 7241SOL     OW23163   1.891   7.745   7.079 -0.1398  0.4711 -0.1195
 7241SOL    HW123164   1.922   7.682   7.014  2.2030  0.8255  0.5547
 7241SOL    HW223165   1.850   7.691   7.147 -0.6575 -0.0639 -0.8416
 7242SOL     OW23166   5.426   5.357   4.787 -0.8630 -0.2417 -0.5817
 7242SOL    HW123167   5.437   5.273   4.831 -0.3407  0.1132 -0.0188
 7242SOL    HW223168   5.357   5.341   4.722 -2.1490 -0.5976  0.8061
 7243SOL     OW23169   6.993   3.705   7.779  0.5880 -0.1600  0.1665
 7243SOL    HW123170   6.932   3.637   7.750  0.8592 -0.4665  0.3100
 7243SOL    HW223171   7.064   3.657   7.823  0.0213  0.2953  1.6605
 7244SOL     OW23172   0.074   7.170   7.827 -0.2765  0.3772 -0.4447
 7244SOL    HW123173  -0.013   7.149   7.793  0.7418 -0.0212 -3.0269
 7244SOL    HW223174   0.107   7.088   7.863  0.6819 -0.7181 -3.5284
 7245SOL     OW23175   4.898   1.057   6.662 -0.1927 -0.0256 -0.5572
 7245SOL    HW123176   4.845   1.137   6.670 -0.1027 -0.0447  0.4095
 7245SOL    HW223177   4.841   0.987   6.693 -0.8527 -0.6310 -2.9389
 7246SOL     OW23178   0.470   1.109   5.829  0.0381 -0.4603 -0.0321
 7246SOL    HW123179   0.471   1.029   5.776  0.4669 -0.2332 -0.3667
 7246SOL    HW223180   0.549   1.156   5.804 -1.0668  0.9262 -1.1756
 7247SOL     OW23181   4.878   5.806   4.484  0.0361  0.3811 -0.6546
 7247SOL    HW123182   4.958   5.816   4.536 -0.1583 -1.1881  0.0126
 7247SOL    HW223183   4.897   5.735   4.424 -1.2900 -0.9824  0.4660
 7248SOL     OW23184   4.691   3.015   8.002  0.1192 -0.0920 -0.7567
 7248SOL    HW123185   4.644   3.091   8.036 -0.9303 -0.4894 -1.2633
 7248SOL    HW223186   4.704   2.957   8.077  2.0465  1.0996 -0.0989
 7249SOL     OW23187   4.517   2.107   8.647 -0.7030 -0.2507  0.0685
 7249SOL    HW123188   4.613   2.112   8.649 -0.7732  1.4472  1.2411
 7249SOL    HW223189   4.495   2.107   8.554  0.3839  1.3720 -0.2303
 7250SOL     OW23190   4.667   0.579  12.406 -0.2735 -0.2412 -0.5339
 7250SOL    HW123191   4.599   0.524  12.444  0.2736 -0.8099 -0.3443
 7250SOL    HW223192   4.711   0.619  12.480 -0.2847 -0.0262 -0.6436
 7251SOL     OW23193   1.543   2.377   8.248  0.3580  0.6990  0.4794
 7251SOL    HW123194   1.635   2.399   8.232  0.4814  0.0137  0.1873
 7251SOL    HW223195   1.545   2.283   8.267 -0.5143  0.1431 -1.7755
 7252SOL     OW23196   3.723   7.067   9.339 -0.3157  0.0490 -0.5208
 7252SOL    HW123197   3.728   7.160   9.318  0.9898  0.5245  1.6427
 7252SOL    HW223198   3.689   7.026   9.259  0.4715  2.1761 -2.0238
 7253SOL     OW23199   4.430   6.787   3.595 -0.1532  0.1805  0.3974
 7253SOL    HW123200   4.472   6.832   3.522  0.4655  0.8108  1.1337
 7253SOL    HW223201   4.343   6.765   3.561  0.0357  0.6691 -0.4491
 7254SOL     OW23202   3.729   6.100   9.476  0.0980 -0.4583  0.3855
 7254SOL    HW123203   3.756   6.101   9.384  1.4575  0.2325  0.7758
 7254SOL    HW223204   3.648   6.152   9.477  0.9407  0.9184 -0.1778
 7255SOL     OW23205   3.482   7.832   5.858  0.4659  0.2523 -0.6018
 7255SOL    HW123206   3.484   7.773   5.934 -0.7803 -0.3197 -0.9987
 7255SOL    HW223207   3.544   7.902   5.881  0.5316 -0.2062  0.7005
 7256SOL     OW23208   5.977   0.024   3.577  0.3574 -0.2491 -0.2490
 7256SOL    HW123209   5.930  -0.057   3.591 -1.0231  0.4725 -0.5318
 7256SOL    HW223210   6.033   0.007   3.501 -0.3182 -0.7740 -0.6357
 7257SOL     OW23211   0.882   5.706   5.090 -0.6177  0.2132 -0.2387
 7257SOL    HW123212   0.860   5.729   5.180 -0.0915  3.0027 -0.7206
 7257SOL    HW223213   0.803   5.724   5.039  0.2359  2.7686 -0.8461
 7258SOL     OW23214   6.896   4.222   3.398 -0.6991  0.1764 -0.1957
 7258SOL    HW123215   6.857   4.212   3.485 -1.6602 -0.2135 -0.6531
 7258SOL    HW223216   6.901   4.317   3.385  0.2413  0.2492  0.6163
 7259SOL     OW23217   7.024   0.599   4.159 -0.3193  0.2779  0.0010
 7259SOL    HW123218   6.964   0.629   4.227 -0.0820 -1.3588  0.9949
 7259SOL    HW223219   7.040   0.506   4.180  0.7504  0.0639 -1.5607
 7260SOL     OW23220   4.071   1.892  10.109 -0.1977 -0.0560  0.0891
 7260SOL    HW123221   4.132   1.913  10.039 -0.4825 -0.9033 -0.4277
 7260SOL    HW223222   3.998   1.953  10.097  0.2225  0.5004  0.2975
 7261SOL     OW23223   4.454   0.225   8.322  0.2955  0.0038  0.1437
 7261SOL    HW123224   4.474   0.271   8.404  1.7216  1.5594 -0.9920
 7261SOL    HW223225   4.366   0.192   8.335 -0.1695  1.6350  1.7163
 7262SOL     OW23226   7.170   2.085   8.541 -0.2921 -0.0074  0.7813
 7262SOL    HW123227   7.093   2.107   8.593 -0.1120 -0.6344  1.3356
 7262SOL    HW223228   7.139   2.087   8.450 -1.3119 -1.4870  1.0542
 7263SOL     OW23229   4.960   1.675   4.628  0.0664 -0.8407 -0.6122
 7263SOL    HW123230   5.051   1.644   4.625  0.4280  0.1160 -0.0289
 7263SOL    HW223231   4.962   1.758   4.580 -0.5413 -0.8973 -0.7390
 7264SOL     OW23232   0.955   3.932   8.100 -0.0216  0.3265 -0.3560
 7264SOL    HW123233   0.942   3.838   8.087  0.3540  0.1808  0.3048
 7264SOL    HW223234   1.037   3.939   8.149 -1.4223  0.8316  2.0817
 7265SOL     OW23235   5.495   0.619   3.505  0.2320 -0.0130 -1.0253
 7265SOL    HW123236   5.524   0.646   3.593 -0.9228 -2.2993  0.1543
 7265SOL    HW223237   5.538   0.534   3.491 -3.2129 -2.0349 -0.5081
 7266SOL     OW23238   6.811   2.823   9.189 -0.1126  0.0153 -0.1257
 7266SOL    HW123239   6.872   2.895   9.203 -0.1283  0.1151 -0.5608
 7266SOL    HW223240   6.866   2.749   9.166 -0.2434  0.5611 -2.3840
 7267SOL     OW23241   3.493   2.912   0.573  0.4105  0.6028 -0.7232
 7267SOL    HW123242   3.403   2.880   0.584  0.5252  0.8647  1.4729
 7267SOL    HW223243   3.485   2.986   0.513 -0.7221  0.2028 -1.1001
 7268SOL     OW23244   0.676   0.020   7.989  0.0917  0.3990  0.6097
 7268SOL    HW123245   0.600   0.075   8.007 -0.0735  0.0378  1.0364
 7268SOL    HW223246   0.746   0.056   8.043 -0.5533 -1.0324  2.5084
 7269SOL     OW23247   0.827   6.805   6.714  0.3387 -0.1715 -0.1867
 7269SOL    HW123248   0.775   6.725   6.726 -0.4603  0.5286  1.3677
 7269SOL    HW223249   0.916   6.773   6.700  0.1403 -1.3438  0.9932
 7270SOL     OW23250   0.889   2.326   7.527  0.1066  0.1657 -0.1569
 7270SOL    HW123251   0.859   2.235   7.517  0.3774  0.0562  0.0207
 7270SOL    HW223252   0.933   2.327   7.612 -1.8392  0.9782  0.9271
 7271SOL     OW23253   3.301   5.118   7.145 -0.3355 -0.0293  0.0650
 7271SOL    HW123254   3.212   5.145   7.124  0.1105 -0.0823 -2.1414
 7271SOL    HW223255   3.290   5.033   7.189 -1.3899  0.2370  0.3527
 7272SOL     OW23256   4.832   0.646   8.500  0.6234  0.4492 -0.5510
 7272SOL    HW123257   4.765   0.596   8.453  1.2912 -0.0111 -1.0410
 7272SOL    HW223258   4.784   0.712   8.550 -0.3715 -1.1519  0.7106
 7273SOL     OW23259   1.041   5.320   8.777  0.0503 -0.1373  0.3481
 7273SOL    HW123260   1.077   5.242   8.733 -0.0947  0.1558 -0.3051
 7273SOL    HW223261   1.117   5.371   8.802  0.1320 -0.2423  0.3157
 7274SOL     OW23262   6.898   2.263   3.762  0.3105  0.2917 -0.7854
 7274SOL    HW123263   6.866   2.301   3.844  1.0888  0.8665 -0.7399
 7274SOL    HW223264   6.843   2.301   3.694  0.3776  0.6592 -0.6341
 7275SOL     OW23265   4.996   5.632   2.158 -0.0608 -0.2009 -0.0993
 7275SOL    HW123266   5.078   5.589   2.133  1.7856  2.4932  0.8888
 7275SOL    HW223267   4.974   5.594   2.243  0.8788 -0.0796  0.2108
 7276SOL     OW23268   2.764   5.712   1.278 -0.0854 -0.2544 -0.3736
 7276SOL    HW123269   2.679   5.703   1.236 -1.4802 -1.6304  2.4237
 7276SOL    HW223270   2.746   5.695   1.371  3.0296  0.7484  0.5306
 7277SOL     OW23271   1.959   1.521  10.159  0.2661 -0.4152 -0.1246
 7277SOL    HW123272   1.943   1.613  10.140  0.0599 -0.4101  0.0660
 7277SOL    HW223273   1.873   1.480  10.150 -0.0614 -0.2458  1.7482
 7278SOL     OW23274   0.158   0.967   0.783 -0.0609  0.3786 -0.2404
 7278SOL    HW123275   0.064   0.967   0.765  0.0360 -0.8776 -0.8820
 7278SOL    HW223276   0.180   1.059   0.797 -1.2576  0.7605 -0.7411
 7279SOL     OW23277   0.186   3.733   5.686 -0.1212 -0.2819 -0.2468
 7279SOL    HW123278   0.184   3.721   5.781  0.2144 -0.3854 -0.2532
 7279SOL    HW223279   0.125   3.806   5.671 -0.3690 -0.4267  0.0202
 7280SOL     OW23280   0.950   0.802   8.778 -0.2170  0.2529  0.6414
 7280SOL    HW123281   0.921   0.889   8.750  1.9534  0.2024 -2.2097
 7280SOL    HW223282   1.037   0.816   8.813  0.5722 -0.8310 -0.7758
 7281SOL     OW23283   2.870   4.707   2.581  0.3747 -0.0877  0.0514
 7281SOL    HW123284   2.927   4.654   2.526 -1.7841  0.8471 -3.4593
 7281SOL    HW223285   2.900   4.797   2.567 -1.4584  0.3617 -1.4392
 7282SOL     OW23286   2.779   1.093  11.877  0.6829  0.7439  0.1463
 7282SOL    HW123287   2.797   1.171  11.931 -1.4038 -0.0770  2.2048
 7282SOL    HW223288   2.800   1.020  11.934  1.9810 -0.2698 -1.5398
 7283SOL     OW23289   4.006   2.651   3.949 -0.0445 -0.2040 -0.3705
 7283SOL    HW123290   4.055   2.569   3.950 -0.3887 -0.4112  1.0752
 7283SOL    HW223291   4.004   2.680   4.040  0.6279  1.7617 -0.9208
 7284SOL     OW23292   6.981   7.286   6.363 -0.1945 -0.1512  0.0170
 7284SOL    HW123293   6.899   7.313   6.405 -0.1708 -1.2875  0.8401
 7284SOL    HW223294   6.957   7.267   6.272 -0.8841 -0.6180  0.2900
 7285SOL     OW23295   3.234   1.124  10.287 -0.4578 -0.3797 -0.1204
 7285SOL    HW123296   3.301   1.058  10.274 -0.5846 -1.1321  2.4686
 7285SOL    HW223297   3.275   1.206  10.259  0.9051 -1.0737 -0.2333
 7286SOL     OW23298   6.280   3.832   3.345  0.4408 -0.2151  0.1527
 7286SOL    HW123299   6.191   3.868   3.337  0.1411 -0.9404  0.1573
 7286SOL    HW223300   6.330   3.875   3.276 -0.0182 -0.1163 -0.1213
 7287SOL     OW23301   4.289   2.635  11.486 -0.0553  0.5102 -0.8081
 7287SOL    HW123302   4.292   2.575  11.560 -0.3897  1.0502 -0.3494
 7287SOL    HW223303   4.235   2.708  11.516  0.5925  1.1902 -1.2451
 7288SOL     OW23304   0.799   4.974  10.927  0.0071 -0.4971 -0.1643
 7288SOL    HW123305   0.825   4.900  10.981 -0.5366 -0.2500  0.4481
 7288SOL    HW223306   0.881   5.013  10.898  0.2982 -1.0188 -0.0561
 7289SOL     OW23307   0.830   1.179   4.820  0.1225  0.2513  0.1196
 7289SOL    HW123308   0.838   1.154   4.912 -0.2419  0.0526  0.0981
 7289SOL    HW223309   0.910   1.229   4.802  0.3370  0.0328  0.4591
 7290SOL     OW23310   4.423   6.286   9.078 -0.7265 -0.0341  0.7254
 7290SOL    HW123311   4.504   6.337   9.070  0.8428 -2.6134 -2.4437
 7290SOL    HW223312   4.444   6.220   9.144 -0.5598 -0.1255  0.5844
 7291SOL     OW23313   3.040   7.611   4.553  0.0941 -0.1005 -0.1438
 7291SOL    HW123314   3.087   7.653   4.480  0.8759  0.6120  0.7469
 7291SOL    HW223315   3.109   7.584   4.613 -0.6083  1.0350  1.2395
 7292SOL     OW23316   3.452   4.208   9.722 -0.0532 -0.3573  0.2261
 7292SOL    HW123317   3.401   4.127   9.717 -0.3396 -0.2634  1.4824
 7292SOL    HW223318   3.511   4.195   9.796 -0.2819  0.6856  0.5984
 7293SOL     OW23319   4.127   6.700  11.916 -0.1473 -0.2807  0.2642
 7293SOL    HW123320   4.220   6.678  11.920 -0.2357 -0.7067  0.0568
 7293SOL    HW223321   4.084   6.631  11.966 -0.4705 -0.8483 -0.7742
 7294SOL     OW23322   2.567   3.590   4.774  0.9132 -0.6758  0.2067
 7294SOL    HW123323   2.614   3.594   4.857  1.7635  0.1960 -0.3000
 7294SOL    HW223324   2.626   3.631   4.711 -0.1334 -0.4237 -0.6362
 7295SOL     OW23325   7.677   7.074   7.281 -0.1060 -0.7486  0.0883
 7295SOL    HW123326   7.752   7.047   7.334  1.3156  1.3679 -0.7023
 7295SOL    HW223327   7.659   7.164   7.308  0.7900  0.5088 -2.9636
 7296SOL     OW23328   2.855   7.758  10.509 -0.2603 -0.3967 -0.0067
 7296SOL    HW123329   2.879   7.844  10.542 -2.3191 -0.1089  0.9426
 7296SOL    HW223330   2.773   7.773  10.461 -0.1396 -1.6725 -0.6644
 7297SOL     OW23331   2.934   2.694   5.256  0.3104 -0.3945 -0.2575
 7297SOL    HW123332   3.014   2.646   5.273 -0.0983 -0.9731  0.0673
 7297SOL    HW223333   2.940   2.771   5.313 -0.1549 -1.3275  1.1016
 7298SOL     OW23334   4.212   7.388   9.372  0.0617  0.4206 -0.2044
 7298SOL    HW123335   4.181   7.310   9.418  0.5246  0.6785  0.5674
 7298SOL    HW223336   4.193   7.370   9.280  1.5137 -1.2479 -0.2307
 7299SOL     OW23337   4.142   6.936   9.038  0.2726 -0.3104 -0.2304
 7299SOL    HW123338   4.138   6.871   8.968 -1.0413 -0.0081 -0.4471
 7299SOL    HW223339   4.145   7.020   8.992  0.9967 -0.1609  0.0699
 7300SOL     OW23340   5.789   6.149   7.545 -0.4098  0.0829 -0.0298
 7300SOL    HW123341   5.747   6.067   7.569 -0.4454 -0.3254 -1.4515
 7300SOL    HW223342   5.807   6.142   7.452 -1.5087  2.1632 -0.4719
 7301SOL     OW23343   7.565   5.914  10.669 -0.5964  0.2914  0.3755
 7301SOL    HW123344   7.629   5.898  10.599  0.2607  0.9759  0.9706
 7301SOL    HW223345   7.521   5.995  10.644 -0.7032  0.2217  0.3371
 7302SOL     OW23346   0.148   7.473   8.422  0.0907  0.8197  0.1972
 7302SOL    HW123347   0.102   7.416   8.360  1.2447 -0.2168  0.2337
 7302SOL    HW223348   0.098   7.554   8.423  1.0699  1.6770 -3.6122
 7303SOL     OW23349   7.002   1.367   1.803 -0.4550  0.3703  0.0623
 7303SOL    HW123350   6.920   1.402   1.839 -0.6331  1.3410 -1.2254
 7303SOL    HW223351   7.055   1.445   1.784  0.5917 -0.2296  0.4470
 7304SOL     OW23352   0.905   2.453   9.580 -0.5658 -0.0247  0.0804
 7304SOL    HW123353   0.858   2.370   9.596  0.1874 -0.3735  0.5509
 7304SOL    HW223354   0.994   2.435   9.610 -0.4950  1.0936  0.5664
 7305SOL     OW23355   2.967   7.439   5.794 -0.0292 -0.3509  0.0176
 7305SOL    HW123356   2.911   7.397   5.859 -0.7303  1.2651  0.5269
 7305SOL    HW223357   2.938   7.404   5.710 -1.4870  0.0678  0.3207
 7306SOL     OW23358   6.951   2.055  10.386  0.2310  0.7491  0.5666
 7306SOL    HW123359   6.883   2.019  10.330  1.1262  0.9252 -0.6731
 7306SOL    HW223360   6.916   2.048  10.475 -1.0069  0.0013  0.0340
 7307SOL     OW23361   4.800   2.139   2.514 -0.3990 -0.1631  0.1345
 7307SOL    HW123362   4.810   2.233   2.500  0.2680 -0.0027  1.5552
 7307SOL    HW223363   4.880   2.101   2.478 -0.0871 -0.0513  0.6957
 7308SOL     OW23364   0.772   4.865   0.424 -0.3335 -0.4131 -0.4738
 7308SOL    HW123365   0.797   4.948   0.383 -0.9702 -0.0734 -0.1985
 7308SOL    HW223366   0.837   4.852   0.493 -1.5712  1.1092  1.0845
 7309SOL     OW23367   5.638   1.463   7.068  0.1621  0.2223 -0.1095
 7309SOL    HW123368   5.627   1.369   7.075  2.2932 -0.1524 -0.9972
 7309SOL    HW223369   5.699   1.486   7.138 -0.7025  1.0477  0.4018
 7310SOL     OW23370   6.631   1.389   1.638 -0.1146  0.2062 -0.9308
 7310SOL    HW123371   6.686   1.311   1.650  0.6676  0.7658 -0.8396
 7310SOL    HW223372   6.608   1.387   1.545 -1.2551 -0.8704 -0.6685
 7311SOL     OW23373   0.526   4.225   5.675 -0.0124 -0.0780  0.1448
 7311SOL    HW123374   0.481   4.142   5.691  1.6529 -1.4085 -1.5938
 7311SOL    HW223375   0.549   4.256   5.763  0.6218 -2.2543  0.8292
 7312SOL     OW23376   0.841   5.498   4.525 -0.1666 -0.2829  0.0321
 7312SOL    HW123377   0.813   5.423   4.577 -1.4387 -0.0307 -0.2443
 7312SOL    HW223378   0.921   5.528   4.567 -0.8274 -0.4594  1.4703
 7313SOL     OW23379   1.764   1.854   2.063 -0.2501  0.1139  0.0747
 7313SOL    HW123380   1.710   1.782   2.096  0.6245 -0.7298 -0.2771
 7313SOL    HW223381   1.736   1.865   1.972  0.1749 -0.3426 -0.1162
 7314SOL     OW23382   4.300   3.497  11.581 -0.0754 -0.5314 -0.0343
 7314SOL    HW123383   4.364   3.562  11.609 -1.3358  1.3688 -1.2849
 7314SOL    HW223384   4.350   3.436  11.527  0.6286  1.5137 -1.8868
 7315SOL     OW23385   7.679   7.737   0.890 -0.2830 -0.6520  0.3548
 7315SOL    HW123386   7.668   7.759   0.797  2.6865  2.6629  0.5545
 7315SOL    HW223387   7.680   7.642   0.892 -1.0960 -0.8699 -2.8907
 7316SOL     OW23388   2.125   7.130  12.226  0.2258 -0.4440  0.5023
 7316SOL    HW123389   2.078   7.061  12.179 -1.2597  0.3964  0.6880
 7316SOL    HW223390   2.217   7.104  12.222 -0.3791 -3.0430  1.5886
 7317SOL     OW23391   6.631   6.365  11.332  0.0490 -0.8015 -0.4709
 7317SOL    HW123392   6.668   6.282  11.362  0.4801  0.3008  2.4106
 7317SOL    HW223393   6.593   6.345  11.247  1.0151 -3.6869 -0.3429
 7318SOL     OW23394   5.818   7.191  12.065 -0.6480 -0.2438  0.4488
 7318SOL    HW123395   5.809   7.233  12.151 -1.1840 -1.1256  0.8408
 7318SOL    HW223396   5.906   7.155  12.065 -0.3266  0.5151  0.2654
 7319SOL     OW23397   7.172   3.949   0.254  0.0272 -0.8322  0.1787
 7319SOL    HW123398   7.239   3.961   0.322  1.4562  0.0721 -1.2950
 7319SOL    HW223399   7.131   4.035   0.245  0.4918 -0.6927 -0.7129
 7320SOL     OW23400   0.616   1.789  10.318 -0.5088  0.0712 -0.4749
 7320SOL    HW123401   0.666   1.754  10.393 -0.9901  0.9482  0.2758
 7320SOL    HW223402   0.623   1.884  10.327  0.3296  0.2031 -2.1832
 7321SOL     OW23403   7.889   2.636   8.408 -0.1348 -0.3448  0.0234
 7321SOL    HW123404   7.871   2.542   8.406  0.4975 -0.4599 -1.2328
 7321SOL    HW223405   7.956   2.649   8.341 -1.6137  1.3035 -1.2423
 7322SOL     OW23406   1.350   6.628   6.544  0.1743  0.3236 -0.5632
 7322SOL    HW123407   1.330   6.624   6.450 -1.2650 -1.8289 -0.2334
 7322SOL    HW223408   1.265   6.619   6.587  0.6470  2.4759  1.0025
 7323SOL     OW23409   5.327   3.514   2.767  0.3823  0.2508 -0.4284
 7323SOL    HW123410   5.248   3.553   2.805 -0.3348 -0.3944 -1.2257
 7323SOL    HW223411   5.327   3.544   2.676  2.5367  2.5024  0.1956
 7324SOL     OW23412   1.349   1.993   8.621  0.1488  0.4329  0.2720
 7324SOL    HW123413   1.386   1.966   8.705 -0.4514 -0.3065  0.3067
 7324SOL    HW223414   1.297   1.918   8.593  0.1521  0.7702 -0.6478
 7325SOL     OW23415   0.831   6.790  10.933  0.0225 -0.5522 -0.0392
 7325SOL    HW123416   0.883   6.751  10.862 -0.2540  0.2497 -0.6878
 7325SOL    HW223417   0.749   6.741  10.933 -0.3108 -0.0058 -0.8320
 7326SOL     OW23418   7.106   1.943  11.334  0.0357 -0.6499  0.4096
 7326SOL    HW123419   7.067   2.022  11.371  0.6050 -1.3088  2.5466
 7326SOL    HW223420   7.152   1.974  11.255  0.4542  1.1977  1.3227
 7327SOL     OW23421   0.043   1.792  11.891  0.0477 -0.2882 -0.4997
 7327SOL    HW123422  -0.039   1.828  11.925 -0.7291 -1.3773 -1.1535
 7327SOL    HW223423   0.070   1.853  11.823 -0.3786 -0.0749 -0.4775
 7328SOL     OW23424   2.240   4.367   2.464 -0.0297 -0.2139 -0.2242
 7328SOL    HW123425   2.191   4.424   2.524  1.5903 -0.1264  1.0832
 7328SOL    HW223426   2.292   4.428   2.412  1.8980 -0.4121  1.3476
 7329SOL     OW23427   3.876   5.084   9.786  0.5205 -1.3900  0.7860
 7329SOL    HW123428   3.814   5.093   9.859  0.3782 -1.1268  0.6327
 7329SOL    HW223429   3.822   5.054   9.713 -0.1922  2.1672 -0.3807
 7330SOL     OW23430   3.088   5.581  11.500 -0.2233 -0.1521  0.1606
 7330SOL    HW123431   3.162   5.530  11.532 -0.3371 -0.2068  0.3360
 7330SOL    HW223432   3.073   5.647  11.568 -0.8811 -0.6757  0.5389
 7331SOL     OW23433   5.277   4.813   8.528  0.4168 -0.2925 -0.0814
 7331SOL    HW123434   5.322   4.804   8.443 -1.5862 -1.7527 -1.0668
 7331SOL    HW223435   5.278   4.907   8.545  1.1394  0.0133 -1.5908
 7332SOL     OW23436   0.814   7.746   5.841  0.1891 -0.6810 -0.3560
 7332SOL    HW123437   0.752   7.702   5.782 -0.7231  0.0399  0.0530
 7332SOL    HW223438   0.845   7.821   5.791 -0.5384 -0.1036  0.0421
 7333SOL     OW23439   3.730   6.677  11.665 -0.0325  0.3317 -0.0406
 7333SOL    HW123440   3.821   6.651  11.675  0.3729  1.1506 -1.3153
 7333SOL    HW223441   3.690   6.658  11.750  1.6364  1.2029  0.9966
 7334SOL     OW23442   7.481   1.262   5.113 -0.3996 -0.2006 -0.1012
 7334SOL    HW123443   7.484   1.228   5.024  0.1337 -0.1997 -0.0885
 7334SOL    HW223444   7.459   1.355   5.102 -0.9080 -0.3302 -0.1929
 7335SOL     OW23445   0.111   4.323   9.696  0.3777  0.2766  0.0702
 7335SOL    HW123446   0.035   4.306   9.641  1.0582  0.8940 -1.0989
 7335SOL    HW223447   0.174   4.364   9.638  1.7796 -0.6054  0.9002
 7336SOL     OW23448   5.131   7.762   3.219  0.2908 -0.1565  0.4370
 7336SOL    HW123449   5.129   7.683   3.272 -0.1077  0.5498  1.5043
 7336SOL    HW223450   5.076   7.824   3.267 -0.8460  0.2190 -1.2581
 7337SOL     OW23451   2.709   5.958   7.305 -0.0779 -0.0382 -0.2815
 7337SOL    HW123452   2.764   5.914   7.240  1.0303  2.0946 -0.8825
 7337SOL    HW223453   2.629   5.906   7.307 -0.0054 -0.4504 -3.0908
 7338SOL     OW23454   1.315   5.540  11.074  0.0378  0.4206 -0.6327
 7338SOL    HW123455   1.342   5.450  11.058  0.3370  0.4485 -0.3096
 7338SOL    HW223456   1.343   5.557  11.165 -1.4738  0.3012 -0.1221
 7339SOL     OW23457   3.134   6.408   3.272  0.6046  0.4696 -0.1175
 7339SOL    HW123458   3.118   6.329   3.324 -0.1921  0.4350 -0.3896
 7339SOL    HW223459   3.219   6.394   3.231 -0.4691 -1.2971 -1.9642
 7340SOL     OW23460   2.176   3.247   8.996 -0.3165 -0.1421 -0.3698
 7340SOL    HW123461   2.200   3.164   8.955  0.2051  0.3007 -1.0024
 7340SOL    HW223462   2.243   3.261   9.063  1.0970  0.9251 -1.9037
 7341SOL     OW23463   4.288   7.840   0.072  0.3414  0.4805  0.3860
 7341SOL    HW123464   4.206   7.888   0.075  0.2592  0.5819 -1.7979
 7341SOL    HW223465   4.352   7.905   0.040  1.0424  0.1059  0.9899
 7342SOL     OW23466   3.870   5.818   6.695 -0.6594  0.2406 -0.1630
 7342SOL    HW123467   3.957   5.788   6.720  0.4457  0.9173 -2.8724
 7342SOL    HW223468   3.812   5.745   6.715  0.9061 -1.1386 -0.4797
 7343SOL     OW23469   6.152   6.459   3.129  0.6514  0.2593  0.0830
 7343SOL    HW123470   6.145   6.507   3.046 -0.2011  0.2188  0.1152
 7343SOL    HW223471   6.227   6.401   3.117  0.8153  0.5795 -0.4935
 7344SOL     OW23472   4.698   1.183   6.171  0.1515  0.2878  0.1400
 7344SOL    HW123473   4.734   1.267   6.201  1.7430 -0.6338  0.9436
 7344SOL    HW223474   4.749   1.117   6.219 -0.7084 -1.1485 -0.8636
 7345SOL     OW23475   5.144   1.039   2.984  0.1054  0.8304 -0.2553
 7345SOL    HW123476   5.111   0.950   2.987  0.1114  0.8061 -0.8180
 7345SOL    HW223477   5.186   1.052   3.069  1.2902 -0.1537 -0.6610
 7346SOL     OW23478   1.368   1.191  11.091 -0.2949  0.7539  0.0405
 7346SOL    HW123479   1.318   1.160  11.015 -1.1200  1.3727  0.3191
 7346SOL    HW223480   1.302   1.228  11.149  0.2321 -0.3578  1.4071
 7347SOL     OW23481   6.212   2.620   5.738 -0.4682 -0.2801  0.3478
 7347SOL    HW123482   6.173   2.678   5.804  0.5306  1.4491 -0.4985
 7347SOL    HW223483   6.141   2.601   5.678 -0.8356 -0.0084  0.6915
 7348SOL     OW23484   2.573   7.067   8.331  0.3469  0.4664  0.1603
 7348SOL    HW123485   2.600   7.154   8.301 -1.4946  0.9611 -0.2080
 7348SOL    HW223486   2.497   7.084   8.388 -0.0986 -0.8947  0.0048
 7349SOL     OW23487   0.423   5.057   6.938 -0.0797  0.6221 -0.8626
 7349SOL    HW123488   0.467   5.020   6.862  1.0256  0.2572 -0.0787
 7349SOL    HW223489   0.424   4.986   7.003 -1.1898  0.8537 -0.5788
 7350SOL     OW23490   2.653   4.993  11.447 -0.1157 -0.2109  0.0795
 7350SOL    HW123491   2.746   5.009  11.465  0.2282 -1.5705 -0.4480
 7350SOL    HW223492   2.619   5.080  11.426  1.4542  0.0564 -1.6096
 7351SOL     OW23493   7.796   1.027  10.199 -0.0544  0.2334 -0.1854
 7351SOL    HW123494   7.758   0.972  10.268  1.3406  0.5618  0.8837
 7351SOL    HW223495   7.879   0.986  10.177  0.3716  1.1468 -0.3456
 7352SOL     OW23496   7.134   6.123   0.735  0.1592 -0.2566  0.1376
 7352SOL    HW123497   7.106   6.153   0.822  0.3083 -0.0364  0.1117
 7352SOL    HW223498   7.227   6.145   0.730  0.0219  0.2742 -0.2972
 7353SOL     OW23499   7.720   6.153   2.813 -0.2495 -0.7544 -0.0765
 7353SOL    HW123500   7.634   6.113   2.801 -0.4717  0.0311 -1.2060
 7353SOL    HW223501   7.709   6.243   2.784  0.6699 -0.3078  0.8728
 7354SOL     OW23502   7.099   0.314   6.689 -0.3853  0.1369 -0.2808
 7354SOL    HW123503   7.078   0.223   6.708 -1.3256  0.1160 -1.2939
 7354SOL    HW223504   7.049   0.365   6.753  2.1508 -0.0633  2.0237
 7355SOL     OW23505   2.397   2.339   0.421 -0.5122 -0.9013  0.4964
 7355SOL    HW123506   2.417   2.407   0.486  1.8111 -0.5625 -0.4694
 7355SOL    HW223507   2.483   2.303   0.398 -1.5842 -3.5043  0.2313
 7356SOL     OW23508   1.701   5.740  11.652  0.8280 -0.1848 -0.0963
 7356SOL    HW123509   1.710   5.814  11.712  1.1168 -1.4876  1.5339
 7356SOL    HW223510   1.620   5.758  11.604 -0.1870  0.2476  1.6932
 7357SOL     OW23511   6.150   5.971  10.679  0.6906  0.8988 -0.1680
 7357SOL    HW123512   6.243   5.948  10.679  0.7720  1.0495 -2.0065
 7357SOL    HW223513   6.106   5.892  10.647  0.3265  1.2724 -0.6052
 7358SOL     OW23514   0.521   5.063  11.598  0.0400  0.2570  0.0657
 7358SOL    HW123515   0.483   5.023  11.520 -0.7053  0.1702  0.4716
 7358SOL    HW223516   0.451   5.063  11.663  0.8141 -0.2186  0.9447
 7359SOL     OW23517   5.427   0.747   2.446 -0.5054 -0.0381  0.3787
 7359SOL    HW123518   5.455   0.672   2.499 -1.4794 -1.6572 -1.2948
 7359SOL    HW223519   5.344   0.774   2.485 -1.1155 -1.0939 -0.1482
 7360SOL     OW23520   4.361   5.270   6.512  0.5588  0.0322 -0.1059
 7360SOL    HW123521   4.337   5.207   6.444 -0.1375 -0.3358  0.4625
 7360SOL    HW223522   4.372   5.217   6.591 -1.2222  0.7141  0.6679
 7361SOL     OW23523   6.174   1.952   2.108  0.1003 -0.0984 -0.1879
 7361SOL    HW123524   6.248   1.894   2.090 -0.3365 -0.6208 -0.3178
 7361SOL    HW223525   6.157   1.942   2.202  0.1042 -0.0800 -0.1851
 7362SOL     OW23526   2.709   6.935   6.267 -0.0205  0.0418 -0.3834
 7362SOL    HW123527   2.642   6.883   6.310  1.6742 -1.1434  0.9749
 7362SOL    HW223528   2.786   6.926   6.323  1.5237  0.6647 -2.2903
 7363SOL     OW23529   3.287   0.541   9.496 -0.3191 -0.0781 -0.1239
 7363SOL    HW123530   3.246   0.473   9.443 -1.5737 -0.0496  0.7772
 7363SOL    HW223531   3.216   0.603   9.516 -0.3836 -0.9821  3.0340
 7364SOL     OW23532   2.599   2.736   1.013  0.3070 -0.2535  0.1199
 7364SOL    HW123533   2.664   2.799   1.043  2.2998 -1.9715 -0.3404
 7364SOL    HW223534   2.648   2.654   1.003 -1.4251 -1.0905 -2.4909
 7365SOL     OW23535   1.352   3.913   0.306 -0.3794  0.3997  0.0876
 7365SOL    HW123536   1.267   3.871   0.323 -0.3591  0.4695  0.3619
 7365SOL    HW223537   1.417   3.849   0.335 -0.3096 -0.0941 -1.0972
 7366SOL     OW23538   2.346   2.492   3.593 -0.1262 -0.6304 -0.2821
 7366SOL    HW123539   2.258   2.515   3.621 -0.0600  0.2727 -0.7649
 7366SOL    HW223540   2.401   2.513   3.669 -0.1044  0.6097 -0.6151
 7367SOL     OW23541   0.044   6.786   9.669 -0.5372 -0.1455  0.0220
 7367SOL    HW123542  -0.049   6.787   9.644  0.1920 -0.6362 -3.1372
 7367SOL    HW223543   0.082   6.716   9.616  1.4304 -0.9699  2.3514
 7368SOL     OW23544   6.024   3.670   4.062 -0.0988 -0.1186  0.3730
 7368SOL    HW123545   5.970   3.595   4.090 -0.6634  0.4779  0.9209
 7368SOL    HW223546   6.111   3.652   4.099 -0.6456  0.2912  1.9442
 7369SOL     OW23547   4.115   3.682   9.925 -0.5410 -0.5274 -0.6839
 7369SOL    HW123548   4.120   3.722  10.012  1.8306 -1.8382 -0.1293
 7369SOL    HW223549   4.102   3.756   9.865 -1.0208  0.5330  0.6868
 7370SOL     OW23550   4.529   7.800   4.799 -0.0278 -0.5435 -0.3591
 7370SOL    HW123551   4.496   7.751   4.725  0.4602  0.2834 -1.1499
 7370SOL    HW223552   4.509   7.892   4.778  0.4225 -0.2692  0.3610
 7371SOL     OW23553   2.578   6.874  11.037 -0.0379  0.1487 -0.4148
 7371SOL    HW123554   2.536   6.790  11.019  0.7677 -0.0340 -1.5561
 7371SOL    HW223555   2.535   6.936  10.978 -0.1304  0.3920 -0.0937
 7372SOL     OW23556   0.640   5.369   5.766  0.1962  0.0074  0.1145
 7372SOL    HW123557   0.627   5.408   5.852 -0.2133 -0.2706  0.1852
 7372SOL    HW223558   0.576   5.414   5.710 -0.0162 -0.2872  0.1137
 7373SOL     OW23559   1.927   2.635   9.498 -0.2372 -0.0444  0.0566
 7373SOL    HW123560   1.899   2.582   9.573  0.5740 -1.1083 -0.3552
 7373SOL    HW223561   2.023   2.635   9.504 -0.2029  0.6714 -0.4402
 7374SOL     OW23562   3.868   2.603   1.361 -0.2184 -0.3289 -0.0371
 7374SOL    HW123563   3.868   2.530   1.423 -3.6147 -1.7464 -1.4993
 7374SOL    HW223564   3.925   2.574   1.290  3.7239  1.3174  2.1107
 7375SOL     OW23565   4.492   5.641   8.325 -0.1161  0.3018  0.0731
 7375SOL    HW123566   4.441   5.560   8.330 -0.7494  0.6894 -0.1187
 7375SOL    HW223567   4.460   5.685   8.246  1.7403 -0.2752 -1.0845
 7376SOL     OW23568   5.660   7.071   1.026  0.5249 -0.2801  0.1849
 7376SOL    HW123569   5.629   7.161   1.019  2.1062  0.3026  0.4371
 7376SOL    HW223570   5.632   7.043   1.114 -1.0690 -0.5053 -0.3531
 7377SOL     OW23571   7.170   1.007   6.741 -0.1011 -0.1302 -0.0176
 7377SOL    HW123572   7.261   1.035   6.741 -0.3610  0.7790  0.8522
 7377SOL    HW223573   7.121   1.084   6.770 -1.5515  0.5103 -3.6529
 7378SOL     OW23574   2.521   6.322  11.183  0.3179 -0.6221 -0.5000
 7378SOL    HW123575   2.610   6.330  11.149  0.5377 -1.0424 -0.0260
 7378SOL    HW223576   2.501   6.409  11.217  0.5498 -0.5288 -0.5983
 7379SOL     OW23577   1.145   0.817   8.160 -0.2729  0.0199  0.4837
 7379SOL    HW123578   1.208   0.780   8.098  0.8821  0.0477  1.6013
 7379SOL    HW223579   1.119   0.900   8.122 -0.8080 -0.6699 -0.7203
 7380SOL     OW23580   5.198   6.609   7.611  0.3134 -0.0644 -0.1227
 7380SOL    HW123581   5.233   6.698   7.624 -1.2467  0.6498 -0.5896
 7380SOL    HW223582   5.176   6.606   7.518 -2.3290  0.1223  0.4189
 7381SOL     OW23583   4.500   6.085   4.895 -0.6275  0.4817  0.6190
 7381SOL    HW123584   4.442   6.144   4.846  0.5788  1.7916  0.7007
 7381SOL    HW223585   4.441   6.037   4.953 -1.6817  1.5422  0.4839
 7382SOL     OW23586   3.920   4.967  11.762  0.4454  0.1106  0.3415
 7382SOL    HW123587   3.939   4.896  11.824  0.4577 -0.4199 -0.2570
 7382SOL    HW223588   3.945   4.932  11.677 -1.4969  0.0503 -0.2556
 7383SOL     OW23589   3.418   4.368   0.840 -0.4001 -0.0089  0.6865
 7383SOL    HW123590   3.426   4.452   0.885 -0.1734  0.1953  0.2674
 7383SOL    HW223591   3.359   4.318   0.896 -1.4255  0.8196  0.3775
 7384SOL     OW23592   4.342   7.383   7.993  0.4595 -0.2045 -0.2813
 7384SOL    HW123593   4.352   7.321   8.065 -0.0824 -0.6552 -0.5824
 7384SOL    HW223594   4.249   7.381   7.973  0.6395 -0.2913 -1.1635
 7385SOL     OW23595   5.619   7.413   5.487  0.0144 -0.2930  0.1891
 7385SOL    HW123596   5.552   7.359   5.528 -1.0207 -0.4789 -1.6246
 7385SOL    HW223597   5.678   7.350   5.445 -0.8906 -0.0892 -1.4716
 7386SOL     OW23598   1.586   7.177  10.187  0.0740 -0.0163  0.2282
 7386SOL    HW123599   1.557   7.100  10.236 -0.0272  0.3681  0.7867
 7386SOL    HW223600   1.679   7.161  10.169 -0.0582 -0.4726 -0.0642
 7387SOL     OW23601   0.797   5.929   7.933 -0.5561 -0.5937  0.1070
 7387SOL    HW123602   0.718   5.916   7.882 -0.7886 -0.6363  0.4707
 7387SOL    HW223603   0.773   5.903   8.022 -0.4511  0.4043  0.4447
 7388SOL     OW23604   5.515   2.871   2.991  0.1907 -0.0586  0.6913
 7388SOL    HW123605   5.438   2.879   2.935 -0.7542 -1.6378  1.6903
 7388SOL    HW223606   5.579   2.824   2.937 -0.0370  0.0498  0.3223
 7389SOL     OW23607   1.957   6.699  10.849 -0.2775 -0.2339 -0.5321
 7389SOL    HW123608   1.892   6.700  10.778  0.9938  2.5667 -1.8335
 7389SOL    HW223609   2.034   6.657  10.810  0.5951  1.7588 -1.0963
 7390SOL     OW23610   6.554   3.662  12.374  0.3557 -0.1355  0.0227
 7390SOL    HW123611   6.499   3.605  12.321  0.1879  0.2847 -0.2634
 7390SOL    HW223612   6.535   3.637  12.465 -0.6412  0.2886 -0.0530
 7391SOL     OW23613   6.456   1.590   3.532  0.3486  0.0918 -0.0081
 7391SOL    HW123614   6.536   1.632   3.563 -0.0852 -0.5934  2.2389
 7391SOL    HW223615   6.386   1.650   3.558  0.0991  1.3244 -3.0803
 7392SOL     OW23616   3.293   4.504  11.042 -0.1543  0.0153 -0.3181
 7392SOL    HW123617   3.322   4.501  11.134  2.3009  0.2411 -1.0073
 7392SOL    HW223618   3.319   4.420  11.006 -3.3725 -1.1304 -0.3145
 7393SOL     OW23619   3.426   0.816  10.751  0.2810 -0.0310 -0.0211
 7393SOL    HW123620   3.341   0.777  10.772 -0.5623  1.8589  0.2129
 7393SOL    HW223621   3.463   0.758  10.685 -1.7087 -0.2694 -0.9911
 7394SOL     OW23622   2.725   0.584   3.593 -0.1598  0.1234  0.2167
 7394SOL    HW123623   2.755   0.494   3.607 -0.4943  0.0217  0.2786
 7394SOL    HW223624   2.630   0.580   3.606 -0.2479  0.3718 -0.3465
 7395SOL     OW23625   5.386   7.883   4.082  0.4193  0.1367  0.1509
 7395SOL    HW123626   5.370   7.816   4.016  0.6819 -1.9251  2.0369
 7395SOL    HW223627   5.304   7.931   4.089  0.1092 -0.2091 -1.0186
 7396SOL     OW23628   5.252   0.136   6.388 -0.1282  0.4464  0.1425
 7396SOL    HW123629   5.302   0.210   6.354 -0.2692  0.7474  0.5810
 7396SOL    HW223630   5.182   0.123   6.324 -0.7828  1.4333  0.6408
 7397SOL     OW23631   0.408   5.916  10.132 -0.5666 -0.1416  0.0041
 7397SOL    HW123632   0.432   5.871  10.050  0.1870  1.2194 -0.5463
 7397SOL    HW223633   0.444   5.861  10.201  1.1083  0.0484 -0.6862
 7398SOL     OW23634   5.459   5.115  10.681 -0.1547 -0.1813  0.0027
 7398SOL    HW123635   5.417   5.088  10.763 -0.9833  0.1712 -0.2877
 7398SOL    HW223636   5.551   5.126  10.703 -0.5067  0.7540  1.1142
 7399SOL     OW23637   2.240   7.748  10.273  0.6423  0.0601 -0.4998
 7399SOL    HW123638   2.305   7.686  10.308 -1.0490 -0.8456  1.2782
 7399SOL    HW223639   2.258   7.752  10.180  3.8649  0.6498  0.0348
 7400SOL     OW23640   7.772   3.042   2.527 -0.7738 -0.3999 -0.1330
 7400SOL    HW123641   7.771   2.948   2.513 -1.0343 -0.3614 -0.4048
 7400SOL    HW223642   7.839   3.057   2.594 -0.7797 -0.7820 -0.0418
 7401SOL     OW23643   3.503   2.896   8.609 -0.3777  0.9716  0.3059
 7401SOL    HW123644   3.433   2.924   8.668  0.3577  0.7468  1.3165
 7401SOL    HW223645   3.573   2.866   8.667 -0.3606 -1.0970 -0.6727
 7402SOL     OW23646   2.500   7.607   7.908  0.1507 -0.5852  0.0207
 7402SOL    HW123647   2.475   7.699   7.923  0.1162 -0.1689 -2.2207
 7402SOL    HW223648   2.496   7.597   7.812 -0.1846 -3.0267  0.2412
 7403SOL     OW23649   0.608   7.049   8.715  0.1513 -0.2545 -0.1799
 7403SOL    HW123650   0.690   7.031   8.669  0.1594  1.7813 -1.0673
 7403SOL    HW223651   0.634   7.059   8.807  0.9472  0.6083 -0.4874
 7404SOL     OW23652   5.633   0.443  12.085  0.7290 -0.1346  0.1593
 7404SOL    HW123653   5.617   0.390  12.163 -1.5726 -0.0057 -0.1530
 7404SOL    HW223654   5.612   0.385  12.011 -0.9542  0.8583 -0.2079
 7405SOL     OW23655   2.158   7.836   8.708 -0.0937 -0.2279  0.4363
 7405SOL    HW123656   2.114   7.802   8.631  0.0695 -2.3456  1.2196
 7405SOL    HW223657   2.117   7.921   8.724  0.6659  0.8096 -2.5972
 7406SOL     OW23658   6.543   1.056  10.760  0.2047 -0.0761 -0.6013
 7406SOL    HW123659   6.495   1.105  10.693  1.6808  1.3532 -0.6749
 7406SOL    HW223660   6.530   1.107  10.840  0.8722 -0.1566 -0.4377
 7407SOL     OW23661   4.327   1.299  12.261 -0.0452 -0.0541 -0.0280
 7407SOL    HW123662   4.413   1.338  12.247 -0.7731  1.1054 -1.6627
 7407SOL    HW223663   4.293   1.285  12.172 -1.0385 -1.6416  0.5752
 7408SOL     OW23664   3.817   1.715  12.301  0.2875 -0.5694 -0.1840
 7408SOL    HW123665   3.816   1.732  12.207  1.3352  0.9740  0.0371
 7408SOL    HW223666   3.881   1.644  12.311  0.9366 -0.0546 -0.5634
 7409SOL     OW23667   2.054   6.106   5.692 -0.2051 -0.0828 -0.0318
 7409SOL    HW123668   2.125   6.107   5.628  0.8281  0.5868  1.0688
 7409SOL    HW223669   2.079   6.038   5.755 -1.1861 -0.7148 -0.3045
 7410SOL     OW23670   6.367   3.330   1.591  0.4312 -0.1313 -0.4292
 7410SOL    HW123671   6.317   3.410   1.602 -2.0000 -1.6339  0.1948
 7410SOL    HW223672   6.458   3.359   1.582 -0.2541  2.5965  0.6458
 7411SOL     OW23673   7.363   3.914   4.696  0.1842  0.2135  0.0810
 7411SOL    HW123674   7.451   3.878   4.696  0.0920 -0.0227 -0.4797
 7411SOL    HW223675   7.370   3.995   4.747  0.7470  0.2575 -0.0631
 7412SOL     OW23676   3.260   2.604  10.995  0.1316  0.3620  0.0873
 7412SOL    HW123677   3.206   2.683  10.990 -1.2526 -0.5727 -0.4400
 7412SOL    HW223678   3.309   2.603  10.912 -0.8910 -0.0257 -0.5316
 7413SOL     OW23679   1.425   4.127   7.292 -0.0285  0.0767 -0.0815
 7413SOL    HW123680   1.468   4.212   7.285  2.6931 -1.2773 -1.1200
 7413SOL    HW223681   1.406   4.102   7.201  1.9154 -1.6426 -0.0903
 7414SOL     OW23682   2.315   0.176   0.903  0.3315  0.2433  0.3096
 7414SOL    HW123683   2.233   0.220   0.883 -0.5397 -0.1649  2.6059
 7414SOL    HW223684   2.338   0.130   0.823 -1.6797  0.3902 -0.4139
 7415SOL     OW23685   3.660   0.662   9.946  0.2591 -0.2825 -0.4144
 7415SOL    HW123686   3.576   0.677   9.988  1.8135 -1.2742  3.5245
 7415SOL    HW223687   3.666   0.567   9.937  1.3284 -0.3117  0.3752
 7416SOL     OW23688   5.910   5.616   6.377 -0.6489  0.2074  0.5323
 7416SOL    HW123689   5.918   5.535   6.428 -0.4315 -1.0245 -1.3408
 7416SOL    HW223690   6.000   5.639   6.353 -0.5684  1.8403  2.1948
 7417SOL     OW23691   6.558   7.168   4.825 -0.0798 -0.1551 -0.7390
 7417SOL    HW123692   6.545   7.205   4.738 -3.1051  1.3270  0.2123
 7417SOL    HW223693   6.649   7.190   4.847  0.0049  1.5748 -2.5750
 7418SOL     OW23694   5.186   0.439   8.002 -0.1177  0.9548  0.3328
 7418SOL    HW123695   5.267   0.436   7.951 -1.5946 -0.5041 -2.1323
 7418SOL    HW223696   5.192   0.520   8.052  2.3980  1.3893 -0.5269
 7419SOL     OW23697   3.430   0.277   6.609 -0.2049  0.1825 -0.3835
 7419SOL    HW123698   3.438   0.347   6.544  4.3570 -0.0855 -0.3854
 7419SOL    HW223699   3.423   0.197   6.557 -1.7663  0.3127 -0.4120
 7420SOL     OW23700   5.893   6.207  10.073 -0.1133  0.1945 -0.1029
 7420SOL    HW123701   5.876   6.233   9.983 -0.6560 -2.3629 -0.8072
 7420SOL    HW223702   5.989   6.210  10.082 -0.0424  0.1543 -0.8553
 7421SOL     OW23703   4.086   2.810  12.107  0.3100  0.1864 -0.4837
 7421SOL    HW123704   4.143   2.884  12.087  0.1175  0.9010  1.4588
 7421SOL    HW223705   4.131   2.762  12.176 -0.0173 -1.0097 -1.0560
 7422SOL     OW23706   1.660   1.832   2.380 -0.1250 -0.1168 -0.0645
 7422SOL    HW123707   1.616   1.780   2.313  1.1431 -0.8902 -0.3282
 7422SOL    HW223708   1.753   1.830   2.356  0.1400  1.0159  0.7702
 7423SOL     OW23709   4.735   7.164   7.736  0.3391 -0.3963 -0.5244
 7423SOL    HW123710   4.765   7.216   7.661 -1.3093  1.4671  0.0281
 7423SOL    HW223711   4.651   7.202   7.760  1.6095  0.4013  3.5015
 7424SOL     OW23712   2.876   3.589   5.539 -1.0361 -0.2870 -0.1097
 7424SOL    HW123713   2.793   3.584   5.586 -0.9049 -2.3426  0.0061
 7424SOL    HW223714   2.943   3.589   5.607 -0.8625  2.8104 -0.1289
 7425SOL     OW23715   4.074   2.072   9.828 -1.0514  0.0400  0.6952
 7425SOL    HW123716   4.027   2.112   9.754  1.7540  0.6015 -0.9240
 7425SOL    HW223717   4.051   1.979   9.823 -0.2232 -0.1048 -1.5417
 7426SOL     OW23718   3.090   2.361   8.762 -0.0875  0.3446 -0.0184
 7426SOL    HW123719   3.160   2.427   8.753  0.7796 -0.7062 -1.3253
 7426SOL    HW223720   3.136   2.281   8.789 -0.9169 -0.1377 -0.0189
 7427SOL     OW23721   1.052   0.486  12.157  0.1095  0.4827  0.2022
 7427SOL    HW123722   1.061   0.537  12.077  0.6382  2.1876  1.3006
 7427SOL    HW223723   1.058   0.550  12.228  1.9043 -1.1971  1.7035
 7428SOL     OW23724   3.141   0.913  12.221 -0.0453  0.6264  0.1249
 7428SOL    HW123725   3.137   0.974  12.147  1.1485 -0.2067 -0.6760
 7428SOL    HW223726   3.220   0.861  12.204 -1.2966 -1.5021  0.4739
 7429SOL     OW23727   6.707   2.471   8.979 -0.2227 -0.7323  0.1207
 7429SOL    HW123728   6.719   2.389   9.027  0.7578  0.3033  1.7428
 7429SOL    HW223729   6.761   2.460   8.900 -0.5526 -1.8534  0.0367
 7430SOL     OW23730   7.877   0.794  10.028  0.5209 -0.8253 -0.0880
 7430SOL    HW123731   7.950   0.855  10.014  1.2221 -1.9376 -1.4897
 7430SOL    HW223732   7.906   0.741  10.103  0.5658 -0.4353  0.1793
 7431SOL     OW23733   7.889   2.826   1.880 -0.2693  0.4046 -0.5375
 7431SOL    HW123734   7.916   2.736   1.900 -0.3052  0.5288  0.0953
 7431SOL    HW223735   7.820   2.816   1.815 -1.4914 -0.1270  0.7763
 7432SOL     OW23736   3.606   7.162   4.263 -0.1742  0.2419 -0.4125
 7432SOL    HW123737   3.603   7.122   4.176 -0.0858 -1.0931  0.1662
 7432SOL    HW223738   3.692   7.139   4.298 -0.2889  0.5703  0.1057
 7433SOL     OW23739   7.719   0.134  12.321  0.3458 -0.2553 -0.1005
 7433SOL    HW123740   7.710   0.224  12.291 -0.7249 -0.4188 -0.2980
 7433SOL    HW223741   7.715   0.140  12.417  0.6218 -0.0626 -0.0996
 7434SOL     OW23742   3.108   4.813   2.950 -0.4479  0.0995 -0.4041
 7434SOL    HW123743   3.078   4.902   2.930 -0.2864 -0.0345 -1.2897
 7434SOL    HW223744   3.078   4.760   2.876  2.2499  0.0253 -1.5643
 7435SOL     OW23745   3.612   7.449   8.767  0.3916 -0.0105  0.8792
 7435SOL    HW123746   3.705   7.460   8.745  0.3992 -0.1528  0.8370
 7435SOL    HW223747   3.606   7.359   8.799 -0.0861 -0.6475 -0.9149
 7436SOL     OW23748   6.752   1.827   7.849 -0.2722  0.0763  0.2701
 7436SOL    HW123749   6.659   1.809   7.840  0.1285 -2.0963  0.0829
 7436SOL    HW223750   6.780   1.775   7.925  1.1229 -0.7763 -0.7725
 7437SOL     OW23751   3.275   3.223   0.674 -0.2504  0.4849 -0.0941
 7437SOL    HW123752   3.342   3.207   0.606  0.3976  0.0089  0.6392
 7437SOL    HW223753   3.325   3.235   0.754 -1.0744 -1.3863  0.7650
 7438SOL     OW23754   3.524   2.298   9.596 -0.1049 -0.2904 -0.0364
 7438SOL    HW123755   3.473   2.373   9.628  1.9140  0.4871  1.6385
 7438SOL    HW223756   3.559   2.328   9.512  0.1507  0.4170  0.3094
 7439SOL     OW23757   6.917   5.485   8.010 -0.5078 -0.3889 -0.6484
 7439SOL    HW123758   6.855   5.558   8.009 -0.4981 -0.3684 -2.1884
 7439SOL    HW223759   6.922   5.456   7.919  0.0504 -1.8471 -0.1853
 7440SOL     OW23760   3.653   1.416   4.801 -0.0471  0.3034 -0.4816
 7440SOL    HW123761   3.630   1.499   4.842 -0.0193  0.7834 -1.4195
 7440SOL    HW223762   3.685   1.362   4.873 -0.1205  1.0825  0.1465
 7441SOL     OW23763   4.726   2.859   5.889 -0.4816  0.2809 -0.2027
 7441SOL    HW123764   4.800   2.798   5.896 -2.9093 -2.8310  0.4854
 7441SOL    HW223765   4.763   2.944   5.912  2.8866 -1.0789  0.0022
 7442SOL     OW23766   2.777   6.243  11.133  0.1398 -0.0970 -0.1719
 7442SOL    HW123767   2.802   6.152  11.151  1.2936  0.0279 -1.0138
 7442SOL    HW223768   2.762   6.245  11.038 -0.9820  0.3494 -0.0012
 7443SOL     OW23769   1.226   1.794   5.511  0.5030  0.2646 -0.4002
 7443SOL    HW123770   1.293   1.752   5.566  0.5579  0.1964 -0.5184
 7443SOL    HW223771   1.146   1.743   5.528  0.2099  1.0402  0.5932
 7444SOL     OW23772   4.259   5.782   5.975 -0.7158  0.5892  0.4729
 7444SOL    HW123773   4.171   5.811   5.998  0.1685  2.7850  1.2802
 7444SOL    HW223774   4.286   5.727   6.048 -1.2558  0.1868  0.3820
 7445SOL     OW23775   0.946   2.971   9.570  0.1946 -0.3883 -0.8031
 7445SOL    HW123776   0.870   2.978   9.511 -0.9110 -0.0569  0.6006
 7445SOL    HW223777   0.934   2.887   9.615  0.2180  0.0426  0.0178
 7446SOL     OW23778   0.001   5.759  12.225 -0.5654  0.3892  0.0938
 7446SOL    HW123779   0.024   5.667  12.223 -2.2691 -0.0818  0.5254
 7446SOL    HW223780   0.082   5.805  12.200  0.6131 -1.1298  0.9618
 7447SOL     OW23781   2.186   6.903   6.881 -0.5070 -0.6959  0.1686
 7447SOL    HW123782   2.138   6.857   6.950  0.2853  1.4462  2.3383
 7447SOL    HW223783   2.122   6.960   6.840 -0.4158  0.4141  1.4553
 7448SOL     OW23784   6.089   2.507  12.011  0.2489 -0.0039 -0.5511
 7448SOL    HW123785   6.165   2.564  11.997  1.3780 -0.5444  2.5464
 7448SOL    HW223786   6.122   2.437  12.068 -1.9462 -1.8003 -1.3467
 7449SOL     OW23787   2.480   7.006   5.726  0.7206 -0.0402 -0.0012
 7449SOL    HW123788   2.484   6.984   5.819 -1.6992  1.2195  0.4761
 7449SOL    HW223789   2.452   6.924   5.684 -0.8287  0.0376  0.7837
 7450SOL     OW23790   0.152   3.719   3.153  0.7687 -0.1789  0.4369
 7450SOL    HW123791   0.201   3.769   3.088 -0.1457  0.3307  0.1204
 7450SOL    HW223792   0.163   3.770   3.234  0.8321 -0.1154  0.3895
 7451SOL     OW23793   2.601   2.019   5.606 -0.2484  0.2966 -0.0486
 7451SOL    HW123794   2.683   2.039   5.651  0.0640  0.9069 -0.8680
 7451SOL    HW223795   2.553   1.965   5.668  0.6534  0.1623  0.5594
 7452SOL     OW23796   2.965   0.066   4.138  0.3742 -0.2186  0.1266
 7452SOL    HW123797   2.960   0.108   4.052  1.2581 -0.9711 -0.3052
 7452SOL    HW223798   2.883   0.091   4.182  0.8681  1.9739 -0.0862
 7453SOL     OW23799   1.424   7.134  11.123  0.0353  0.3428  0.1529
 7453SOL    HW123800   1.503   7.169  11.081  0.9987 -2.3863 -0.4876
 7453SOL    HW223801   1.431   7.160  11.215  1.6643  0.1771  0.0939
 7454SOL     OW23802   6.040   2.346   1.212 -0.1470  0.6072  0.6792
 7454SOL    HW123803   6.106   2.412   1.193 -0.0372  0.3859  0.2622
 7454SOL    HW223804   6.060   2.274   1.151 -2.5680  1.7132 -1.6661
 7455SOL     OW23805   5.868   0.477  11.386 -0.0723  0.0534 -0.3823
 7455SOL    HW123806   5.871   0.395  11.436 -1.1682  1.8028  2.8414
 7455SOL    HW223807   5.957   0.510  11.388 -0.1367  0.2233  0.7995
 7456SOL     OW23808   2.351   7.971   0.711 -0.0182  0.0081 -0.1599
 7456SOL    HW123809   2.281   8.002   0.653  0.4709  0.6248 -0.4254
 7456SOL    HW223810   2.306   7.914   0.774 -0.7667  0.4119 -0.3146
 7457SOL     OW23811   0.383   1.980  10.335 -0.6629 -0.2986  0.1529
 7457SOL    HW123812   0.415   2.050  10.393 -2.8792  1.5240 -0.6549
 7457SOL    HW223813   0.433   1.992  10.254 -1.8274  1.2593 -0.4117
 7458SOL     OW23814   2.181   3.702  10.416 -0.2317 -0.9071  0.1161
 7458SOL    HW123815   2.181   3.681  10.323 -1.3972 -1.3682  0.2039
 7458SOL    HW223816   2.273   3.697  10.442  0.4921  1.6481 -1.5151
 7459SOL     OW23817   4.185   0.183   6.712 -0.3153  0.3716  0.7123
 7459SOL    HW123818   4.243   0.108   6.721 -1.6489 -0.8479 -0.3416
 7459SOL    HW223819   4.204   0.218   6.625 -0.7383  0.3236  0.5979
 7460SOL     OW23820   6.692   1.971   6.662  0.1996 -0.3468 -0.5486
 7460SOL    HW123821   6.749   1.898   6.690 -1.8165 -1.9299 -0.3597
 7460SOL    HW223822   6.705   2.038   6.730  0.4201 -1.4304  0.5209
 7461SOL     OW23823   1.762   4.068   6.587  0.4124  0.0710 -0.1958
 7461SOL    HW123824   1.779   3.974   6.590  1.2231  0.2438  1.7512
 7461SOL    HW223825   1.674   4.075   6.551 -0.0351 -1.4872  0.5260
 7462SOL     OW23826   5.223   6.087   7.911  0.9096 -0.3445 -0.4952
 7462SOL    HW123827   5.216   6.033   7.989  0.7430  1.9417  1.1804
 7462SOL    HW223828   5.193   6.031   7.839 -0.5312 -2.0096  1.3181
 7463SOL     OW23829   3.859   7.864   6.990  0.3810  0.5781  0.1389
 7463SOL    HW123830   3.874   7.931   7.057  2.2417  0.5278 -0.1961
 7463SOL    HW223831   3.773   7.828   7.012 -0.4342  2.6937  0.6426
 7464SOL     OW23832   4.930   4.260  10.362 -0.0532  0.1004 -0.3961
 7464SOL    HW123833   4.863   4.328  10.372 -0.3003  0.2511 -2.6393
 7464SOL    HW223834   4.880   4.180  10.344  0.3143 -0.2150 -0.0226
 7465SOL     OW23835   0.530   0.924   6.757 -0.4226 -0.0015  0.0376
 7465SOL    HW123836   0.479   0.924   6.838  0.0752 -0.5444  0.3578
 7465SOL    HW223837   0.469   0.895   6.690 -0.5357 -0.6560  0.4210
 7466SOL     OW23838   1.380   2.670   9.927 -0.4929  0.2776  0.1756
 7466SOL    HW123839   1.379   2.581   9.962 -0.3028  0.5038  0.7794
 7466SOL    HW223840   1.303   2.675   9.871 -1.3217  0.1676  1.2733
 7467SOL     OW23841   1.192   4.312   5.520 -0.4470  0.3312 -0.0651
 7467SOL    HW123842   1.126   4.334   5.586 -0.8815  0.1834 -0.4438
 7467SOL    HW223843   1.268   4.285   5.570 -1.2673 -1.2408  0.3774
 7468SOL     OW23844   1.673   7.443   8.160 -0.4552  0.2959  0.3579
 7468SOL    HW123845   1.604   7.441   8.226 -0.7847  2.3675  0.1101
 7468SOL    HW223846   1.754   7.452   8.211 -0.5389  0.0202  0.5442
 7469SOL     OW23847   1.460   5.825   8.614 -0.4576  0.0934  0.2030
 7469SOL    HW123848   1.405   5.773   8.672  0.0183 -1.2812 -0.5264
 7469SOL    HW223849   1.423   5.810   8.527 -0.2101  0.8625 -0.0437
 7470SOL     OW23850   0.957   4.676   7.355 -0.2082 -0.5264  0.4229
 7470SOL    HW123851   0.882   4.622   7.382 -0.5975 -0.3298 -0.2521
 7470SOL    HW223852   0.948   4.683   7.260  0.0337  0.4376  0.4640
 7471SOL     OW23853   7.288   5.310   3.178  0.0018  0.4373 -0.0612
 7471SOL    HW123854   7.279   5.400   3.210 -1.0446 -0.0523  1.1181
 7471SOL    HW223855   7.365   5.276   3.223 -1.3033 -0.1597  1.8539
 7472SOL     OW23856   3.780   2.573   3.782 -0.1187 -0.1842  0.3377
 7472SOL    HW123857   3.867   2.590   3.818  0.5417 -1.8394 -0.3757
 7472SOL    HW223858   3.720   2.594   3.854  0.9464 -0.2649  1.2843
 7473SOL     OW23859   1.474   0.323   9.334 -0.4950  0.0416 -0.0676
 7473SOL    HW123860   1.514   0.404   9.302  0.2158 -0.9860 -1.9646
 7473SOL    HW223861   1.464   0.269   9.256 -1.1588 -1.6262  1.1078
 7474SOL     OW23862   3.355   5.584   3.620  0.1184  0.0491 -0.3467
 7474SOL    HW123863   3.329   5.533   3.543 -0.4467  0.3581 -0.3668
 7474SOL    HW223864   3.276   5.585   3.675  0.0658  1.0501 -0.4262
 7475SOL     OW23865   2.387   2.600   7.312 -0.1228 -0.5224  0.0024
 7475SOL    HW123866   2.466   2.636   7.272 -0.5271 -0.3957 -0.6905
 7475SOL    HW223867   2.420   2.537   7.376  0.5830  0.7705  0.9494
 7476SOL     OW23868   0.657   0.933   9.660 -0.7820  0.3977 -0.2140
 7476SOL    HW123869   0.623   0.975   9.581  0.8131  2.2664  0.0109
 7476SOL    HW223870   0.640   0.996   9.730  0.6795  0.1862  0.3602
 7477SOL     OW23871   1.538   4.608   9.892  0.2400 -0.7517 -0.2901
 7477SOL    HW123872   1.558   4.696   9.924  1.2705 -1.3086  0.6705
 7477SOL    HW223873   1.506   4.562   9.970 -3.3597 -0.3926 -1.3986
 7478SOL     OW23874   2.792   1.887   7.687  0.2045  0.2044  0.5911
 7478SOL    HW123875   2.869   1.893   7.630 -0.4556 -2.2522 -0.6801
 7478SOL    HW223876   2.748   1.971   7.676  0.1243 -0.1064 -2.6155
 7479SOL     OW23877   3.149   7.349   0.335 -0.4902  0.1063 -0.1082
 7479SOL    HW123878   3.126   7.285   0.403 -0.3188 -0.7070 -0.8007
 7479SOL    HW223879   3.213   7.303   0.281 -0.9209  0.6109 -1.0526
 7480SOL     OW23880   0.323   2.299   0.255 -0.3709  0.2720 -0.1325
 7480SOL    HW123881   0.403   2.351   0.242 -0.3126 -0.1627 -1.5831
 7480SOL    HW223882   0.311   2.252   0.173 -0.9797 -1.2667  0.8028
 7481SOL     OW23883   7.382   5.261   1.121 -0.4329  0.4438  0.1135
 7481SOL    HW123884   7.289   5.258   1.142 -0.4715 -0.3537 -0.1243
 7481SOL    HW223885   7.425   5.213   1.192 -0.2191  0.6449  0.1239
 7482SOL     OW23886   7.967   7.130   2.900  0.7093  0.1928  0.1964
 7482SOL    HW123887   8.049   7.079   2.899  0.2944 -0.4992 -0.9821
 7482SOL    HW223888   7.993   7.217   2.870  0.8880 -0.2877 -1.1266
 7483SOL     OW23889   7.453   4.353   2.079 -0.3088 -0.5136 -0.3168
 7483SOL    HW123890   7.365   4.354   2.118 -0.1486 -0.8805  0.0707
 7483SOL    HW223891   7.466   4.442   2.047 -0.5640 -0.2728  0.2215
 7484SOL     OW23892   6.621   0.243   8.460 -0.1506  0.0546 -0.2636
 7484SOL    HW123893   6.680   0.306   8.502 -1.3061 -0.2172  1.9419
 7484SOL    HW223894   6.541   0.293   8.445 -0.2153 -0.2354 -0.8681
 7485SOL     OW23895   4.132   7.079   8.201 -0.6748 -0.4305 -0.3682
 7485SOL    HW123896   4.213   7.126   8.185  0.1415 -1.6716 -0.0724
 7485SOL    HW223897   4.064   7.146   8.200  0.5235  0.8623  0.8736
 7486SOL     OW23898   4.320   2.525   0.939  0.0988 -1.0793  0.0042
 7486SOL    HW123899   4.272   2.519   0.856  0.4658 -0.8590 -0.2246
 7486SOL    HW223900   4.407   2.554   0.914  0.2099 -1.0102  0.4705
 7487SOL     OW23901   1.220   1.394   5.571  0.2369  0.0966 -0.0664
 7487SOL    HW123902   1.176   1.479   5.565  0.7563  0.2790 -1.5034
 7487SOL    HW223903   1.277   1.402   5.647 -0.5819  0.6109  0.5177
 7488SOL     OW23904   5.473   7.461   7.808 -0.4078  0.1769 -0.1613
 7488SOL    HW123905   5.561   7.498   7.817 -0.1200 -0.3384 -0.8172
 7488SOL    HW223906   5.482   7.371   7.839 -0.6377  0.0358 -0.5002
 7489SOL     OW23907   1.664   5.100   0.865 -0.4927 -0.7287 -0.2848
 7489SOL    HW123908   1.688   5.156   0.791 -0.9271 -2.4092 -1.7470
 7489SOL    HW223909   1.646   5.015   0.827  0.5685 -2.0420  1.9391
 7490SOL     OW23910   4.384   4.576   8.774 -0.1689  0.1083  0.1296
 7490SOL    HW123911   4.414   4.543   8.689 -0.4220  0.9975 -0.3183
 7490SOL    HW223912   4.390   4.671   8.766 -1.8100  0.2662  0.5068
 7491SOL     OW23913   4.870   5.467   5.008 -0.2582 -0.2808  0.9304
 7491SOL    HW123914   4.813   5.540   5.033 -0.3514  0.5320 -1.3824
 7491SOL    HW223915   4.813   5.390   5.008 -1.2521  0.4062 -0.6654
 7492SOL     OW23916   7.599   2.309   6.975  0.1458 -1.0201  0.5758
 7492SOL    HW123917   7.667   2.372   6.953  0.9356 -1.1775  2.4109
 7492SOL    HW223918   7.561   2.341   7.056 -0.6713 -1.9472  0.5817
 7493SOL     OW23919   5.493   2.601   3.864 -0.0502  0.3854  0.1335
 7493SOL    HW123920   5.535   2.659   3.928  0.4117  1.4823 -1.1201
 7493SOL    HW223921   5.451   2.660   3.801 -1.3597 -0.6780 -0.0299
 7494SOL     OW23922   7.951   0.329   2.705  0.5498 -0.5597  0.4152
 7494SOL    HW123923   8.043   0.344   2.686  1.1500 -1.6731  2.2256
 7494SOL    HW223924   7.947   0.316   2.800 -1.7589  1.2694  0.6439
 7495SOL     OW23925   0.272   3.843   1.599  0.0078  0.0986 -1.0022
 7495SOL    HW123926   0.258   3.853   1.505 -2.3080 -1.0042 -0.8469
 7495SOL    HW223927   0.185   3.847   1.637  0.7696 -0.7237  0.9797
 7496SOL     OW23928   0.546   0.534   6.914  0.2431  0.4182  0.2960
 7496SOL    HW123929   0.478   0.599   6.932 -0.4500 -0.4759  1.0432
 7496SOL    HW223930   0.538   0.515   6.821  0.3445  1.2697  0.1071
 7497SOL     OW23931   7.165   3.265   3.394 -0.3456 -0.0591  0.3714
 7497SOL    HW123932   7.176   3.245   3.301 -1.1381  0.4261  0.1601
 7497SOL    HW223933   7.183   3.182   3.439  0.9334 -0.0852 -0.1355
 7498SOL     OW23934   4.641   5.936   8.687 -0.0915 -0.2464  0.0435
 7498SOL    HW123935   4.611   5.853   8.650 -2.2696  0.2255  0.6266
 7498SOL    HW223936   4.723   5.954   8.641 -0.0348 -2.2621 -0.7349
 7499SOL     OW23937   0.710   2.969   1.604  0.6167  0.6093 -0.4098
 7499SOL    HW123938   0.664   2.888   1.584 -1.5379  1.9592 -1.2068
 7499SOL    HW223939   0.790   2.965   1.550  3.0015 -2.9021  2.8400
 7500SOL     OW23940   2.967   7.780   4.081  0.4173  0.4634  0.0461
 7500SOL    HW123941   2.892   7.725   4.106 -0.8422  0.5664 -3.0683
 7500SOL    HW223942   2.944   7.867   4.112  0.0073  0.1948  0.5193
 7501SOL     OW23943   4.697   0.390   7.085  0.0470 -0.4954 -0.2933
 7501SOL    HW123944   4.666   0.458   7.146 -0.4944 -1.5112  0.5926
 7501SOL    HW223945   4.630   0.384   7.018 -1.0719 -1.7423  0.8852
 7502SOL     OW23946   3.675   3.073  11.000 -0.3512  0.2963  0.4958
 7502SOL    HW123947   3.686   3.158  10.956  1.0420  0.6171  1.4072
 7502SOL    HW223948   3.736   3.075  11.073 -1.6860 -0.7474  1.7146
 7503SOL     OW23949   7.551   6.754  11.273  0.5693 -0.4350  0.3736
 7503SOL    HW123950   7.566   6.699  11.349 -0.6045 -2.0505 -0.5029
 7503SOL    HW223951   7.472   6.718  11.232  2.2053 -0.8632 -2.6637
 7504SOL     OW23952   6.605   0.356   7.171  0.6246 -0.5173 -0.1699
 7504SOL    HW123953   6.635   0.290   7.109  0.6159  0.4600 -1.2458
 7504SOL    HW223954   6.566   0.306   7.243  1.4212 -1.6920 -0.5337
 7505SOL     OW23955   2.822   2.087  10.703  0.2195 -0.1549 -0.3182
 7505SOL    HW123956   2.771   2.149  10.754  0.1970 -1.1115  0.8789
 7505SOL    HW223957   2.769   2.007  10.703  0.3329 -0.2591 -1.6543
 7506SOL     OW23958   2.608   4.501  10.761  0.4983  0.4586 -0.0798
 7506SOL    HW123959   2.519   4.532  10.746 -0.3176 -0.2657  2.6874
 7506SOL    HW223960   2.655   4.579  10.792  0.8843  0.8458 -1.5604
 7507SOL     OW23961   4.520   2.955   1.575 -0.5989  0.1003 -0.7207
 7507SOL    HW123962   4.550   3.045   1.563 -0.9705  0.2428 -0.6062
 7507SOL    HW223963   4.434   2.964   1.616  0.4776 -0.3345  1.8504
 7508SOL     OW23964   4.114   6.981   4.393  0.0752 -0.1755  0.2881
 7508SOL    HW123965   4.196   6.940   4.368 -0.2566  0.1665 -1.4722
 7508SOL    HW223966   4.049   6.944   4.333 -1.1389 -0.6002  1.7633
 7509SOL     OW23967   6.039   6.891   2.708  0.3077  0.0800 -0.7244
 7509SOL    HW123968   6.031   6.935   2.624 -0.3213 -0.0320 -0.7301
 7509SOL    HW223969   5.966   6.829   2.710  0.0405  0.3999  0.0880
 7510SOL     OW23970   3.183   1.571   9.303 -0.2771  0.3358 -0.3098
 7510SOL    HW123971   3.132   1.493   9.282  1.9587 -1.0049 -1.2130
 7510SOL    HW223972   3.223   1.551   9.388  2.3897 -0.8184 -1.6819
 7511SOL     OW23973   4.326   6.880   9.227  0.3781 -0.4044  0.4288
 7511SOL    HW123974   4.351   6.790   9.208  1.9261  0.2194 -0.6619
 7511SOL    HW223975   4.255   6.899   9.165  0.9933 -0.4580 -0.3110
 7512SOL     OW23976   7.764   0.358  11.143 -0.0892 -0.0925 -0.3134
 7512SOL    HW123977   7.797   0.394  11.060 -0.1654 -1.0884 -0.7872
 7512SOL    HW223978   7.744   0.436  11.196  1.4276  0.5540 -0.6317
 7513SOL     OW23979   6.664   1.393  12.027 -0.2735  0.1039 -0.3287
 7513SOL    HW123980   6.649   1.363  11.938 -1.4719  0.4949 -0.2664
 7513SOL    HW223981   6.760   1.395  12.035 -0.1488 -0.0615 -1.5521
 7514SOL     OW23982   1.177   0.290   5.625 -0.5345 -0.0086  0.1551
 7514SOL    HW123983   1.240   0.257   5.689 -0.5147 -1.0409 -0.3729
 7514SOL    HW223984   1.168   0.383   5.645  0.9229  0.0932  0.4310
 7515SOL     OW23985   0.198   7.266  11.976  0.1649  0.1223  0.3079
 7515SOL    HW123986   0.164   7.331  11.915 -1.3166 -1.1835 -0.3468
 7515SOL    HW223987   0.121   7.215  12.002  1.0691 -0.5634  1.7885
 7516SOL     OW23988   4.101   6.782   8.800 -0.2656  0.3832 -0.4180
 7516SOL    HW123989   4.148   6.699   8.803 -1.3226 -0.2048  0.4969
 7516SOL    HW223990   4.118   6.815   8.711  1.7338  0.1523 -0.1688
 7517SOL     OW23991   1.006   3.996   9.421  0.0653 -0.6708 -0.1378
 7517SOL    HW123992   0.930   3.939   9.414 -1.2461  1.0717 -0.8375
 7517SOL    HW223993   0.981   4.063   9.484  1.7809 -1.1150  1.1011
 7518SOL     OW23994   6.847   0.468   8.227 -1.0124 -0.1078  0.5252
 7518SOL    HW123995   6.820   0.380   8.202 -1.7637  0.3869 -0.4601
 7518SOL    HW223996   6.937   0.458   8.258 -0.4638 -0.9518 -1.2352
 7519SOL     OW23997   2.232   4.071   2.675  0.1945  0.3111  0.4193
 7519SOL    HW123998   2.274   4.057   2.591  0.0336 -0.1718  0.4188
 7519SOL    HW223999   2.157   4.128   2.655 -0.3813 -0.5504  0.0862
 7520SOL     OW24000   6.068   5.167   1.540  0.3630  0.7693  0.3538
 7520SOL    HW124001   6.089   5.211   1.623  0.4776 -0.3072  0.9179
 7520SOL    HW224002   6.147   5.116   1.520  0.5706  1.4987 -0.7582
 7521SOL     OW24003   5.061   6.669  12.256 -0.5404 -0.3537  0.6039
 7521SOL    HW124004   5.047   6.708  12.170  1.0969  1.9507  1.2741
 7521SOL    HW224005   5.077   6.577  12.239 -1.5920 -0.2168 -1.4073
 7522SOL     OW24006   2.877   6.279   7.385 -0.3586 -0.0739  0.0831
 7522SOL    HW124007   2.934   6.246   7.455 -1.1974  2.6677  2.2154
 7522SOL    HW224008   2.937   6.300   7.313  0.5830 -2.5140  0.0589
 7523SOL     OW24009   5.033   3.385   1.165 -0.0966  0.0454 -0.0782
 7523SOL    HW124010   5.037   3.306   1.112 -1.4426  0.1030 -0.2835
 7523SOL    HW224011   5.029   3.457   1.101  0.5276  0.2606  0.1105
 7524SOL     OW24012   6.146   1.881   2.408 -0.5588  0.1296  0.0477
 7524SOL    HW124013   6.191   1.796   2.401  1.9585  1.3166  0.7838
 7524SOL    HW224014   6.188   1.925   2.482 -2.0208  1.9248 -0.1133
 7525SOL     OW24015   6.052   6.960   4.967 -0.0580  0.0477 -0.3152
 7525SOL    HW124016   6.002   7.040   4.948 -0.5023 -0.1120  0.1766
 7525SOL    HW224017   6.100   6.943   4.886  0.5463  1.1705 -0.2260
 7526SOL     OW24018   4.287   0.300   6.922  0.2878 -0.6522  0.1546
 7526SOL    HW124019   4.265   0.257   7.004 -2.1629  0.4017  0.1329
 7526SOL    HW224020   4.233   0.256   6.856 -0.0298  0.4764 -0.3604
 7527SOL     OW24021   1.695   7.560   7.521 -0.3768 -0.0687 -0.0536
 7527SOL    HW124022   1.747   7.499   7.573  0.8942 -0.0911 -1.2958
 7527SOL    HW224023   1.648   7.613   7.586 -0.7022 -1.6501  1.0530
 7528SOL     OW24024   4.999   6.886   0.089 -0.5652  0.6624  0.0063
 7528SOL    HW124025   5.027   6.911   0.001 -0.9803 -0.1905 -0.3850
 7528SOL    HW224026   4.939   6.812   0.075  0.6044 -0.5432  1.0740
 7529SOL     OW24027   0.551   2.448  11.540  0.0895  0.0122  0.2639
 7529SOL    HW124028   0.578   2.374  11.595 -0.2598  0.8814  1.6544
 7529SOL    HW224029   0.457   2.437  11.530  0.3059 -0.7906 -1.2035
 7530SOL     OW24030   3.067   7.622   8.941 -0.1988  0.6267 -0.1546
 7530SOL    HW124031   3.156   7.645   8.966  0.5185  0.9976 -2.7320
 7530SOL    HW224032   3.029   7.703   8.907 -1.4034  0.3744  0.5154
 7531SOL     OW24033   2.003   7.376   0.373  0.2394  0.0057  0.3020
 7531SOL    HW124034   2.020   7.282   0.366  0.6884  0.1407 -0.5510
 7531SOL    HW224035   1.907   7.383   0.375  0.1928 -0.4415 -0.1490
 7532SOL     OW24036   0.121   4.452   3.662  0.0351  0.5248  0.0527
 7532SOL    HW124037   0.137   4.529   3.715 -0.1602  0.2964  0.4447
 7532SOL    HW224038   0.082   4.485   3.581  1.9971  1.0631 -0.7334
 7533SOL     OW24039   7.039   4.451   4.097 -0.4672 -0.7329 -0.2903
 7533SOL    HW124040   7.014   4.369   4.138  1.6098 -0.9353  0.7079
 7533SOL    HW224041   7.004   4.519   4.156  0.0735 -0.9751  0.3230
 7534SOL     OW24042   7.865   0.088  12.049  0.0996  0.0564  0.0023
 7534SOL    HW124043   7.850   0.167  11.997 -0.6478 -0.1174 -0.0570
 7534SOL    HW224044   7.792   0.086  12.111  1.2409  0.5141  1.3973
 7535SOL     OW24045   6.170   4.305   1.672 -0.1678  0.2472  0.4257
 7535SOL    HW124046   6.113   4.237   1.636  0.7725 -0.5194  0.3456
 7535SOL    HW224047   6.243   4.257   1.711  0.6590  1.2291  0.1185
 7536SOL     OW24048   6.839   5.428   0.008  0.2613 -0.2336 -0.5680
 7536SOL    HW124049   6.831   5.404  -0.084 -1.7563 -1.9726 -0.0303
 7536SOL    HW224050   6.853   5.344   0.053 -0.2198  0.4020  0.8143
 7537SOL     OW24051   6.775   6.530   5.890 -0.3395  0.2935  0.4555
 7537SOL    HW124052   6.762   6.530   5.795  0.9868  0.9019  0.2442
 7537SOL    HW224053   6.773   6.623   5.914 -1.4302  0.1087  1.1565
 7538SOL     OW24054   1.377   0.882   0.210 -0.0606  0.5697 -0.4783
 7538SOL    HW124055   1.422   0.964   0.234 -0.3843  1.0023 -1.3210
 7538SOL    HW224056   1.393   0.824   0.284  1.3500  0.9302 -0.4742
 7539SOL     OW24057   2.791   3.852   7.046  0.5338 -0.1533  0.0090
 7539SOL    HW124058   2.718   3.810   7.001  0.6065 -0.3738  0.0922
 7539SOL    HW224059   2.856   3.782   7.057  0.6017 -0.0519  0.2675
 7540SOL     OW24060   5.971   4.221   5.318  0.2364  0.5034 -0.4192
 7540SOL    HW124061   6.040   4.288   5.314 -0.5715  1.4866  0.9663
 7540SOL    HW224062   5.926   4.228   5.234  0.3265  1.5487 -0.3991
 7541SOL     OW24063   0.892   0.735   0.461  0.2091  0.6019 -0.0409
 7541SOL    HW124064   0.823   0.783   0.507  0.0071 -0.9256  1.3604
 7541SOL    HW224065   0.872   0.643   0.478  0.9195  0.0022 -2.1045
 7542SOL     OW24066   6.565   2.848  10.057 -0.1980  0.4697  0.3688
 7542SOL    HW124067   6.552   2.816   9.967  1.7270 -0.1864  0.2730
 7542SOL    HW224068   6.532   2.937  10.056 -1.0900  0.1451 -0.7386
 7543SOL     OW24069   7.722   1.238  12.351  0.1200  0.0193 -0.0048
 7543SOL    HW124070   7.766   1.208  12.271  1.9303 -0.9724  1.3037
 7543SOL    HW224071   7.663   1.308  12.321  1.3239  0.2205 -2.0859
 7544SOL     OW24072   1.413   3.737   0.030  0.1537 -0.1668 -0.2430
 7544SOL    HW124073   1.387   3.818   0.074  0.6413 -1.8441  3.5163
 7544SOL    HW224074   1.331   3.690   0.016 -0.0326  0.4971 -1.5070
 7545SOL     OW24075   6.415   7.886  10.694 -0.2230  0.4246  0.2211
 7545SOL    HW124076   6.331   7.894  10.650 -0.2814  2.7064  0.6478
 7545SOL    HW224077   6.481   7.906  10.627 -0.0629 -0.1410  0.1976
 7546SOL     OW24078   4.022   3.477   7.206 -0.5539 -0.3240  0.0414
 7546SOL    HW124079   4.020   3.393   7.162 -0.2098 -0.1791 -0.2559
 7546SOL    HW224080   4.055   3.458   7.294 -1.4287 -0.6406  0.3070
 7547SOL     OW24081   5.460   4.916   4.515 -0.1020 -0.1420 -0.4398
 7547SOL    HW124082   5.471   4.822   4.532  1.1862  0.3039  1.3925
 7547SOL    HW224083   5.538   4.957   4.552 -0.8105  1.7122 -0.8895
 7548SOL     OW24084   1.490   2.791   1.529 -0.4339  0.4848  0.2754
 7548SOL    HW124085   1.557   2.846   1.488 -0.4509  1.7147  1.7843
 7548SOL    HW224086   1.538   2.742   1.596 -0.5807 -0.7384 -0.4837
 7549SOL     OW24087   4.175   3.704   0.980  0.2480  0.5509  0.0015
 7549SOL    HW124088   4.171   3.660   0.895 -1.8204 -1.7224  1.1611
 7549SOL    HW224089   4.268   3.702   1.003  0.4433 -2.1349 -0.6253
 7550SOL     OW24090   7.796   1.037   5.933  1.0702 -0.1380 -0.6181
 7550SOL    HW124091   7.796   1.115   5.878  2.0222  0.9276  0.8211
 7550SOL    HW224092   7.780   0.965   5.873  1.6686  1.0118 -2.2156
 7551SOL     OW24093   6.911   1.420  11.698  0.2876 -0.2382 -0.1393
 7551SOL    HW124094   6.922   1.495  11.756 -0.9289 -0.4046  0.3309
 7551SOL    HW224095   6.996   1.377  11.698  0.1145 -0.6992  2.1714
 7552SOL     OW24096   6.515   5.299  11.396  0.3489 -0.2805  0.0404
 7552SOL    HW124097   6.451   5.288  11.327 -0.4573  0.6086  0.6098
 7552SOL    HW224098   6.535   5.393  11.396  3.1384 -0.7621 -1.3859
 7553SOL     OW24099   5.775   1.176   0.364 -0.6243 -0.1908 -0.4630
 7553SOL    HW124100   5.855   1.229   0.361  1.0900 -2.6158 -0.2208
 7553SOL    HW224101   5.806   1.086   0.373 -3.3462 -1.4387 -2.3397
 7554SOL     OW24102   7.623   2.047   6.846  0.1080  0.5197  0.0144
 7554SOL    HW124103   7.694   2.066   6.786 -0.4234  1.9200 -0.2127
 7554SOL    HW224104   7.619   2.124   6.903 -0.7928  0.1716  0.4387
 7555SOL     OW24105   7.852   5.835   9.825 -0.2819 -0.4732  0.0232
 7555SOL    HW124106   7.834   5.785   9.904 -4.9950 -1.1085 -1.1373
 7555SOL    HW224107   7.909   5.907   9.854 -0.1102 -1.8117  3.4806
 7556SOL     OW24108   1.340   3.746   9.937 -0.2473  0.0334 -0.4502
 7556SOL    HW124109   1.275   3.745  10.007  0.4333 -0.4482  0.1960
 7556SOL    HW224110   1.299   3.697   9.866 -0.3833 -0.7738  0.1637
 7557SOL     OW24111   7.076   1.562   0.315  0.2421 -0.0788 -0.1501
 7557SOL    HW124112   7.010   1.604   0.259 -0.7192 -0.4227  0.7011
 7557SOL    HW224113   7.026   1.522   0.386  1.3119 -0.9540  0.1428
 7558SOL     OW24114   1.923   0.022   1.081  0.3788 -0.4812 -0.1325
 7558SOL    HW124115   1.992   0.030   1.147  1.0029 -0.4731 -0.7732
 7558SOL    HW224116   1.880   0.107   1.080 -0.6997 -0.9574  1.3917
 7559SOL     OW24117   6.972   4.681   8.803 -0.1574  0.0404 -0.0479
 7559SOL    HW124118   7.023   4.762   8.809 -0.4361  0.3163 -1.1407
 7559SOL    HW224119   7.036   4.613   8.787  0.1198 -0.0385  1.2511
 7560SOL     OW24120   7.357   5.050   0.480  0.6795 -0.2381  0.1760
 7560SOL    HW124121   7.391   5.115   0.541 -0.2925 -0.0833  0.5656
 7560SOL    HW224122   7.263   5.051   0.493  0.4584 -0.2866 -1.2590
 7561SOL     OW24123   7.132   5.048  10.525 -0.2327 -0.0233  0.5651
 7561SOL    HW124124   7.090   5.132  10.502 -0.0386  0.1009  0.6631
 7561SOL    HW224125   7.224   5.071  10.541  0.0187 -0.4120 -0.3122
 7562SOL     OW24126   7.296   3.862   6.369  0.7749 -0.3736  0.0488
 7562SOL    HW124127   7.209   3.825   6.386  0.7875  0.2272  1.4794
 7562SOL    HW224128   7.279   3.941   6.319  0.5326 -0.4589 -0.0066
 7563SOL     OW24129   5.970   6.785   5.334  0.1108  0.0065 -0.0388
 7563SOL    HW124130   6.012   6.850   5.391  0.5117 -0.7330  0.5235
 7563SOL    HW224131   5.953   6.711   5.391  1.2684 -1.0888 -1.0628
 7564SOL     OW24132   5.653   0.834   3.592  0.0108  0.5572 -0.4128
 7564SOL    HW124133   5.597   0.909   3.573  1.2902  1.8657  0.7245
 7564SOL    HW224134   5.673   0.842   3.686  1.6247 -0.1623 -0.6537
 7565SOL     OW24135   7.215   7.845  12.029  0.5906  0.2327  0.1407
 7565SOL    HW124136   7.157   7.920  12.028  1.0063  0.5958  1.3882
 7565SOL    HW224137   7.176   7.783  11.967 -0.4223  0.9773  0.0165
 7566SOL     OW24138   4.681   4.408   8.773 -0.1040 -0.3965  0.3237
 7566SOL    HW124139   4.730   4.447   8.700 -0.9334 -0.5400 -0.3279
 7566SOL    HW224140   4.660   4.481   8.830  1.5616 -0.4433  1.0416
 7567SOL     OW24141   7.513   3.080  12.467  0.3109  0.2460 -0.1087
 7567SOL    HW124142   7.554   3.037  12.392 -1.2007  0.2837 -1.0051
 7567SOL    HW224143   7.422   3.051  12.465 -0.2226  1.7177  0.5908
 7568SOL     OW24144   7.582   5.485   6.243  0.2726 -0.0923 -0.5028
 7568SOL    HW124145   7.585   5.581   6.240 -0.8632 -0.0238 -0.0588
 7568SOL    HW224146   7.517   5.462   6.177 -0.4515 -0.4705  0.3246
 7569SOL     OW24147   3.865   3.573   5.179 -0.4130 -0.0001  0.5416
 7569SOL    HW124148   3.866   3.575   5.083 -0.0402 -3.4043  0.3508
 7569SOL    HW224149   3.781   3.534   5.201  0.1369 -0.7052  1.4856
 7570SOL     OW24150   0.540   4.815   8.387 -0.2778 -0.0874 -0.6455
 7570SOL    HW124151   0.554   4.721   8.372 -1.1422 -0.3822  0.2055
 7570SOL    HW224152   0.559   4.827   8.480  0.6675  0.7655 -0.9348
 7571SOL     OW24153   7.531   1.089   6.194 -0.2923 -0.1540  0.3987
 7571SOL    HW124154   7.511   1.157   6.130 -0.9935 -0.0453  0.7286
 7571SOL    HW224155   7.552   1.012   6.142 -0.2826  0.0974  0.0320
 7572SOL     OW24156   6.757   6.733   8.077  0.6421 -0.3315 -0.3998
 7572SOL    HW124157   6.804   6.780   8.008  0.6304  2.0651  1.1046
 7572SOL    HW224158   6.671   6.715   8.039  1.2079 -0.5945 -1.5871
 7573SOL     OW24159   1.876   0.804   0.680 -0.4111  1.1768  0.0759
 7573SOL    HW124160   1.939   0.862   0.638 -0.2044  0.8812 -0.0305
 7573SOL    HW224161   1.893   0.814   0.774  2.5218 -1.7555  0.0644
 7574SOL     OW24162   4.870   5.946   9.779 -0.0253 -0.1686  0.3561
 7574SOL    HW124163   4.836   6.011   9.841  0.5146  1.3508 -0.8786
 7574SOL    HW224164   4.875   5.865   9.830 -1.6298  0.5134  1.6816
 7575SOL     OW24165   7.975   1.231   4.910  0.3481  0.1939 -0.5370
 7575SOL    HW124166   8.048   1.256   4.853  1.5316 -0.7271  0.4990
 7575SOL    HW224167   7.912   1.188   4.852  1.5262 -0.7397 -1.1794
 7576SOL     OW24168   0.411   4.853   9.590  0.5181 -0.4044 -0.2326
 7576SOL    HW124169   0.478   4.787   9.606  0.2933 -0.3036  1.3411
 7576SOL    HW224170   0.340   4.830   9.649  1.2386  2.3226  1.9636
 7577SOL     OW24171   2.037   0.445   2.553 -0.0472  0.6242 -0.0698
 7577SOL    HW124172   2.018   0.374   2.613 -0.4758 -1.9578 -3.0261
 7577SOL    HW224173   1.977   0.515   2.579 -1.6381 -1.1154  1.2398
 7578SOL     OW24174   1.757   2.447   5.947  0.1232  0.2981 -0.3677
 7578SOL    HW124175   1.824   2.429   6.013  0.2238  0.8125 -0.3238
 7578SOL    HW224176   1.730   2.361   5.916  0.7727  0.0840 -0.3536
 7579SOL     OW24177   7.564   7.415  11.469  0.1922 -0.6322  0.4416
 7579SOL    HW124178   7.623   7.422  11.394 -0.2960 -2.2907 -0.1298
 7579SOL    HW224179   7.620   7.437  11.544  1.0862 -0.4748 -0.2396
 7580SOL     OW24180   5.196   0.510  10.414  0.4523  0.1859 -0.2656
 7580SOL    HW124181   5.180   0.458  10.336  1.8734 -1.1134  0.2460
 7580SOL    HW224182   5.232   0.593  10.381 -0.7926  0.4346 -1.0424
 7581SOL     OW24183   7.400   3.733   1.353  0.3398 -0.4620 -0.3721
 7581SOL    HW124184   7.408   3.826   1.332 -1.3887  0.0006  0.7307
 7581SOL    HW224185   7.339   3.699   1.288 -0.8414 -0.2458  0.5716
 7582SOL     OW24186   4.998   3.361  10.576  0.5790 -0.2832  0.1554
 7582SOL    HW124187   4.966   3.438  10.623 -1.1524 -1.3772  0.9005
 7582SOL    HW224188   4.924   3.335  10.521 -0.0638 -3.0717  2.1206
 7583SOL     OW24189   5.529   4.422   4.426  0.3559  0.1158 -0.1553
 7583SOL    HW124190   5.512   4.333   4.456 -0.2417  1.3128  3.4354
 7583SOL    HW224191   5.489   4.425   4.339 -0.2717 -2.8753 -0.0844
 7584SOL     OW24192   7.645   2.870  10.760  0.2567  0.3331  0.5347
 7584SOL    HW124193   7.737   2.861  10.785  0.3552 -0.4757 -0.0600
 7584SOL    HW224194   7.644   2.946  10.702  0.6338  0.0899  0.1988
 7585SOL     OW24195   2.721   0.644  12.003 -0.2917  0.2572  0.1092
 7585SOL    HW124196   2.792   0.708  12.011 -0.0997 -0.0821  1.2479
 7585SOL    HW224197   2.746   0.592  11.926 -0.1420  1.1546 -0.4661
 7586SOL     OW24198   4.840   4.520   5.472 -0.4283  0.2930  0.1207
 7586SOL    HW124199   4.805   4.485   5.390  0.0879 -0.6487  0.2934
 7586SOL    HW224200   4.763   4.541   5.524 -0.7690  1.0800 -0.6652
 7587SOL     OW24201   6.667   4.964   0.384 -0.6379  0.6883  0.1360
 7587SOL    HW124202   6.694   4.949   0.293  1.8840  0.9564  0.7662
 7587SOL    HW224203   6.646   5.058   0.387 -0.2623  0.7845 -0.0850
 7588SOL     OW24204   0.174   7.856   3.004 -0.1659 -0.2656  0.4760
 7588SOL    HW124205   0.170   7.805   3.085 -0.1809 -1.3343 -0.1859
 7588SOL    HW224206   0.084   7.859   2.972 -0.0728 -0.3485  0.1989
 7589SOL     OW24207   6.036   3.095  11.587  0.0632  0.2551 -0.0056
 7589SOL    HW124208   6.036   3.187  11.614 -1.6263 -0.0695  1.2116
 7589SOL    HW224209   6.128   3.069  11.591  0.3651  1.4283  1.2840
 7590SOL     OW24210   2.946   3.301   8.564 -0.2631 -0.9764 -0.6035
 7590SOL    HW124211   3.002   3.229   8.533  1.9834  0.0953  0.6951
 7590SOL    HW224212   2.993   3.380   8.540 -0.2456 -0.0540  2.1115
 7591SOL     OW24213   7.139   2.624  10.250  0.2471 -0.5868 -0.1021
 7591SOL    HW124214   7.224   2.665  10.265 -0.6820  0.7921  1.8914
 7591SOL    HW224215   7.077   2.697  10.251 -1.2834 -1.8273  1.8118
 7592SOL     OW24216   0.463   1.510  12.195 -0.4835 -0.1835 -0.1938
 7592SOL    HW124217   0.367   1.503  12.189 -0.3840 -0.5692 -1.8246
 7592SOL    HW224218   0.495   1.424  12.171  0.2875  0.0404  0.0067
 7593SOL     OW24219   7.745   5.278   1.075 -0.0303  0.6772 -0.2170
 7593SOL    HW124220   7.839   5.289   1.062  0.2450 -0.3148  0.7957
 7593SOL    HW224221   7.734   5.273   1.170 -0.9623 -0.3539 -0.3517
 7594SOL     OW24222   0.565   7.109   0.387  0.2818  0.3258 -0.4034
 7594SOL    HW124223   0.538   7.017   0.389  0.1378  0.3872  0.9184
 7594SOL    HW224224   0.634   7.113   0.321  0.6203 -0.8203 -0.1261
 7595SOL     OW24225   5.596   1.161   4.712  0.6980 -0.1638  0.2025
 7595SOL    HW124226   5.522   1.127   4.762  1.7708 -1.3234  1.0616
 7595SOL    HW224227   5.639   1.083   4.676  2.7701  0.2731  1.5724
 7596SOL     OW24228   4.029   3.383   4.731  0.1191  0.1250 -0.2793
 7596SOL    HW124229   4.068   3.363   4.817 -1.8252  1.6108  1.0421
 7596SOL    HW224230   4.096   3.434   4.686  0.1271  1.8768  1.5848
 7597SOL     OW24231   5.970   1.018   6.090  0.1386  0.0235 -0.1091
 7597SOL    HW124232   6.009   0.993   6.174  1.0810 -1.5054 -0.9537
 7597SOL    HW224233   6.038   1.069   6.046 -0.4746  1.1065  0.1716
 7598SOL     OW24234   1.860   3.461  11.512  0.5157 -0.2950 -0.2900
 7598SOL    HW124235   1.785   3.446  11.569  0.6667  0.6890  0.1967
 7598SOL    HW224236   1.920   3.514  11.565  1.4308 -0.8250 -0.7715
 7599SOL     OW24237   5.746   6.730  11.928 -0.0410 -0.1308 -0.1441
 7599SOL    HW124238   5.659   6.693  11.933  0.0849 -0.3016  0.8268
 7599SOL    HW224239   5.784   6.717  12.015  0.3427  1.4394 -0.0333
 7600SOL     OW24240   1.820   4.952  11.015  0.5497 -0.4815 -0.0109
 7600SOL    HW124241   1.841   4.912  10.931 -0.0262  0.0184 -0.4023
 7600SOL    HW224242   1.855   4.891  11.080 -0.7043 -1.8734 -0.5766
 7601SOL     OW24243   6.533   3.711  10.411 -0.5817 -0.1475 -0.0992
 7601SOL    HW124244   6.552   3.674  10.497 -0.3486  0.0247 -0.0751
 7601SOL    HW224245   6.617   3.746  10.381 -0.3656 -1.3148 -0.9332
 7602SOL     OW24246   5.000   1.482   6.547 -0.6366 -0.0556  0.3346
 7602SOL    HW124247   5.090   1.479   6.516 -1.0802 -0.5905 -1.0219
 7602SOL    HW224248   5.005   1.521   6.634  0.9264 -0.3861  0.4217
 7603SOL     OW24249   0.865   2.426   1.543 -0.0097 -0.1700 -0.0589
 7603SOL    HW124250   0.875   2.440   1.637  1.1184 -1.8120  0.1066
 7603SOL    HW224251   0.952   2.444   1.506 -0.3626  0.1579 -0.7600
 7604SOL     OW24252   0.007   0.192   6.466  0.4857 -0.6476  0.1214
 7604SOL    HW124253  -0.038   0.230   6.542 -0.3158 -1.2462 -0.0441
 7604SOL    HW224254   0.100   0.206   6.485  0.2370  1.5398 -0.0178
 7605SOL     OW24255   4.019   2.813   5.507 -0.6834 -0.1498 -0.0612
 7605SOL    HW124256   4.033   2.790   5.416  1.9512  0.2471  0.1633
 7605SOL    HW224257   3.984   2.903   5.504  1.0682  0.5468 -0.6900
 7606SOL     OW24258   1.197   6.475   5.105  0.3436  0.1119 -0.0146
 7606SOL    HW124259   1.219   6.476   5.012 -0.2607  0.1695 -0.1600
 7606SOL    HW224260   1.104   6.498   5.108  0.4290  0.3831  0.6231
 7607SOL     OW24261   3.106   4.413  10.166  0.1299 -0.2098 -0.0479
 7607SOL    HW124262   3.200   4.404  10.181  0.4976 -1.4213 -2.5241
 7607SOL    HW224263   3.080   4.329  10.127 -2.0351  0.0416  0.7300
 7608SOL     OW24264   2.217   2.257   9.645 -0.7454 -0.1830 -0.2374
 7608SOL    HW124265   2.210   2.163   9.660 -0.3390  0.0686  1.7561
 7608SOL    HW224266   2.311   2.273   9.633 -0.7553  0.0247 -0.0559
 7609SOL     OW24267   7.800   1.966   1.904 -0.4663  0.2478  0.0071
 7609SOL    HW124268   7.719   1.997   1.945  0.6443  1.3765  1.4424
 7609SOL    HW224269   7.850   1.929   1.976  1.0114  1.1064 -0.5429
 7610SOL     OW24270   6.283   7.700   9.766  0.6928 -0.0745  0.0105
 7610SOL    HW124271   6.267   7.795   9.760 -0.8775 -0.3834 -1.9470
 7610SOL    HW224272   6.357   7.685   9.708  0.1958 -0.1746 -0.6074
 7611SOL     OW24273   0.309   1.777  10.975 -0.0574 -0.2964 -0.1512
 7611SOL    HW124274   0.295   1.717  10.901 -1.1941  0.6860 -0.7622
 7611SOL    HW224275   0.345   1.856  10.936 -2.4429  0.9592  0.0111
 7612SOL     OW24276   5.478   1.419  10.789 -0.4095 -0.6020  0.0564
 7612SOL    HW124277   5.453   1.346  10.846 -2.2152 -0.0361  0.0433
 7612SOL    HW224278   5.482   1.381  10.701  0.0719 -0.9809  0.2393
 7613SOL     OW24279   4.460   7.073   9.027  0.1405  0.3491 -0.3849
 7613SOL    HW124280   4.396   7.017   9.072  0.3134  0.5192  0.0832
 7613SOL    HW224281   4.407   7.129   8.970 -0.0331 -0.2890 -0.8533
 7614SOL     OW24282   7.002   0.146  10.581  0.0032  0.6604 -0.4217
 7614SOL    HW124283   6.981   0.193  10.501 -2.9204  1.5950  0.7789
 7614SOL    HW224284   7.083   0.188  10.613 -0.7603  2.7234 -1.0469
 7615SOL     OW24285   0.777   2.419   4.708 -0.4908 -0.8316 -0.0883
 7615SOL    HW124286   0.820   2.336   4.688 -0.2562 -0.7886  0.2281
 7615SOL    HW224287   0.838   2.486   4.675 -0.2017 -0.7654  0.5553
 7616SOL     OW24288   4.849   7.397  11.979  0.2082  0.9832 -0.0994
 7616SOL    HW124289   4.928   7.362  12.021  0.2859 -0.0426 -1.0454
 7616SOL    HW224290   4.787   7.324  11.981 -0.2287  1.3336 -0.6016
 7617SOL     OW24291   6.766   2.406   3.541 -0.1807  0.3477  0.3426
 7617SOL    HW124292   6.827   2.387   3.470  0.6281  1.0577  0.8330
 7617SOL    HW224293   6.682   2.371   3.511  0.9903 -3.2641  0.7941
 7618SOL     OW24294   6.276   4.425   5.962  0.0352 -0.3065  0.7206
 7618SOL    HW124295   6.289   4.501   6.019 -0.1037 -0.8183  1.4439
 7618SOL    HW224296   6.312   4.351   6.011 -0.8679 -0.8954  0.5129
 7619SOL     OW24297   6.010   7.603   2.809 -0.1085  0.3705 -0.1954
 7619SOL    HW124298   6.026   7.550   2.886  2.0307  1.3810  0.1408
 7619SOL    HW224299   6.063   7.682   2.822 -0.1291  0.8415 -2.4099
 7620SOL     OW24300   2.281   5.695   7.871 -0.3284  0.5590  0.0952
 7620SOL    HW124301   2.260   5.769   7.814 -0.5748 -0.0771 -0.6581
 7620SOL    HW224302   2.377   5.692   7.871 -0.3263  0.1992 -0.7918
 7621SOL     OW24303   0.534   4.161  10.987 -0.3655  0.0352 -0.7374
 7621SOL    HW124304   0.560   4.192  11.074 -3.7503  0.1495  0.3857
 7621SOL    HW224305   0.527   4.241  10.935  1.6172 -0.0275 -1.1762
 7622SOL     OW24306   2.422   4.659   1.931 -0.0374 -0.2194  0.1063
 7622SOL    HW124307   2.328   4.641   1.936  0.1507 -0.9902  1.2726
 7622SOL    HW224308   2.463   4.587   1.980  0.9154  2.0479  2.8661
 7623SOL     OW24309   5.265   6.866   4.698 -0.2983 -0.5651  0.6344
 7623SOL    HW124310   5.173   6.839   4.705 -0.9541 -0.5865 -4.1955
 7623SOL    HW224311   5.264   6.938   4.635  2.9726  0.0044  1.0342
 7624SOL     OW24312   7.631   7.218   5.935 -0.5096 -0.0536  0.0447
 7624SOL    HW124313   7.661   7.307   5.916  2.1803 -0.1574  3.0180
 7624SOL    HW224314   7.680   7.162   5.875 -1.5154  0.3378 -1.1886
 7625SOL     OW24315   5.372   5.366   1.251  0.3722 -0.5588 -0.5267
 7625SOL    HW124316   5.356   5.292   1.309  0.0903 -0.3444 -0.3249
 7625SOL    HW224317   5.464   5.389   1.265  0.4591 -0.8690 -0.5895
 7626SOL     OW24318   6.808   5.037   1.118  0.3965 -0.3491 -0.3304
 7626SOL    HW124319   6.863   5.113   1.097 -0.8942  0.3872 -1.1982
 7626SOL    HW224320   6.814   4.981   1.041  1.5029 -1.2519  0.3881
 7627SOL     OW24321   7.435   3.823   0.025 -0.0350  0.1334  0.4213
 7627SOL    HW124322   7.364   3.761   0.039 -0.0419 -0.7456 -2.7508
 7627SOL    HW224323   7.502   3.797   0.088 -1.4453 -0.7422  1.6290
 7628SOL     OW24324   2.503   3.191   3.734 -0.0790  0.3106  0.1032
 7628SOL    HW124325   2.584   3.233   3.763  0.5679  0.3977 -1.6778
 7628SOL    HW224326   2.434   3.249   3.765  0.5813  0.7233  0.8617
 7629SOL     OW24327   6.683   5.446   5.192 -0.4455 -0.2000 -0.2256
 7629SOL    HW124328   6.635   5.365   5.176  0.3247 -0.5160 -0.9773
 7629SOL    HW224329   6.716   5.472   5.106  0.2133  0.3432  0.1825
 7630SOL     OW24330   5.599   7.169   7.397 -0.1847  0.2565  0.2884
 7630SOL    HW124331   5.646   7.148   7.478  1.1018 -1.0831 -0.7547
 7630SOL    HW224332   5.668   7.175   7.330 -1.0580  2.7377 -0.5038
 7631SOL     OW24333   7.885   1.292   2.468 -0.4105  0.0956 -0.4480
 7631SOL    HW124334   7.844   1.331   2.391  2.2200 -0.3990 -2.2164
 7631SOL    HW224335   7.898   1.201   2.445  0.3001 -0.0948  0.6523
 7632SOL     OW24336   6.305   0.314   5.034  0.5274  0.1023 -0.3546
 7632SOL    HW124337   6.376   0.262   5.073 -1.4411 -1.3483  1.4982
 7632SOL    HW224338   6.242   0.249   5.003  0.7133  1.3183 -3.5891
 7633SOL     OW24339   2.037   1.676   3.510 -0.0341  0.3556 -0.1591
 7633SOL    HW124340   1.962   1.702   3.564 -0.1476  0.3621 -0.3179
 7633SOL    HW224341   2.113   1.693   3.565 -0.2007 -0.6931  0.4337
 7634SOL     OW24342   0.392   4.311   1.464  0.1855 -0.6543 -0.2395
 7634SOL    HW124343   0.383   4.369   1.388  1.6062 -1.1989 -0.8717
 7634SOL    HW224344   0.336   4.237   1.444 -1.0965  0.1575  0.2475
 7635SOL     OW24345   5.022   2.870   1.602 -0.4568 -0.0485 -0.1739
 7635SOL    HW124346   4.987   2.894   1.688  2.3606  1.2890  0.7197
 7635SOL    HW224347   4.993   2.941   1.544 -0.5227  0.2195  0.1838
 7636SOL     OW24348   5.175   4.377   4.951 -0.2989  0.4078  0.0216
 7636SOL    HW124349   5.171   4.291   4.993  0.7492 -0.4134 -1.4688
 7636SOL    HW224350   5.102   4.425   4.988  0.4296 -0.3117  2.6394
 7637SOL     OW24351   2.071   4.790   8.028 -0.2968 -0.5370 -0.0244
 7637SOL    HW124352   2.031   4.875   8.008 -0.1679 -0.7848 -1.4777
 7637SOL    HW224353   2.133   4.808   8.098 -0.4116  0.5358 -0.1787
 7638SOL     OW24354   3.237   4.169   8.362 -0.3872 -0.5979  0.8640
 7638SOL    HW124355   3.152   4.134   8.336 -1.0417 -1.8091  4.1185
 7638SOL    HW224356   3.298   4.096   8.352  0.4170  0.3048 -1.5935
 7639SOL     OW24357   5.254   4.657  11.469  0.1730  0.3483 -0.0801
 7639SOL    HW124358   5.286   4.618  11.550 -0.5148 -0.1011 -0.0167
 7639SOL    HW224359   5.175   4.704  11.495 -0.2292 -0.0653 -0.5433
 7640SOL     OW24360   3.248   6.045   7.351  0.1254  0.2949  0.2832
 7640SOL    HW124361   3.305   5.976   7.316  0.1737 -0.3425  1.5412
 7640SOL    HW224362   3.305   6.122   7.359  0.3232  0.2007 -0.2171
 7641SOL     OW24363   1.094   5.442  11.265 -0.1147 -0.1469  0.5197
 7641SOL    HW124364   1.066   5.361  11.222  0.4890  0.3759 -0.9124
 7641SOL    HW224365   1.185   5.427  11.287  0.5634  0.7581 -1.4268
 7642SOL     OW24366   7.183   2.283   3.675 -0.0900  0.8347  0.5881
 7642SOL    HW124367   7.098   2.279   3.719 -0.7486  1.6756 -0.5528
 7642SOL    HW224368   7.187   2.371   3.638  0.8645  0.4912 -0.1644
 7643SOL     OW24369   1.090   6.613   8.362  1.2653 -1.0323 -0.2802
 7643SOL    HW124370   1.014   6.649   8.315 -0.7058 -1.7366  2.1354
 7643SOL    HW224371   1.113   6.681   8.425  0.3486 -2.1707  1.3374
 7644SOL     OW24372   6.294   6.285   0.147  0.3614  0.0485  0.3293
 7644SOL    HW124373   6.348   6.283   0.068  0.8498 -1.3060  0.6690
 7644SOL    HW224374   6.314   6.369   0.188 -0.0252  0.8404 -1.0579
 7645SOL     OW24375   7.100   2.712   7.654 -0.6724 -0.2432  0.3470
 7645SOL    HW124376   7.162   2.746   7.590 -0.6802 -0.0635  0.4339
 7645SOL    HW224377   7.053   2.642   7.608 -0.2354 -0.5498  0.3599
 7646SOL     OW24378   7.536   4.052   8.690  0.1662 -0.1584 -0.5299
 7646SOL    HW124379   7.492   4.026   8.772  0.2318 -0.1101 -0.4795
 7646SOL    HW224380   7.534   4.148   8.691 -2.2481 -0.1214 -1.8717
 7647SOL     OW24381   0.335   3.889   8.140  0.3507  0.2052 -0.1683
 7647SOL    HW124382   0.253   3.937   8.131  0.1047  0.3342  2.1778
 7647SOL    HW224383   0.396   3.953   8.177  0.7956 -0.5693  0.4541
 7648SOL     OW24384   1.000   0.778   9.584 -0.4222  0.3929 -0.8312
 7648SOL    HW124385   1.049   0.855   9.554  0.7844 -0.1454 -0.3127
 7648SOL    HW224386   0.962   0.805   9.668  0.2389  0.3360 -0.5105
 7649SOL     OW24387   0.043   3.489   2.083  0.1376  0.7914  0.0782
 7649SOL    HW124388   0.066   3.420   2.022 -1.2832  0.5941 -0.2660
 7649SOL    HW224389   0.116   3.551   2.078  0.7599  0.0203 -0.6455
 7650SOL     OW24390   3.261   2.018  10.021  0.0820 -0.2392  0.6819
 7650SOL    HW124391   3.304   1.966  10.089 -0.0859 -0.9331  0.2736
 7650SOL    HW224392   3.292   1.980   9.939 -2.0354 -1.4287  0.3568
 7651SOL     OW24393   0.141   3.050   5.851 -0.3794 -0.1348 -0.2977
 7651SOL    HW124394   0.132   2.960   5.883 -1.2047 -0.0817 -0.3445
 7651SOL    HW224395   0.051   3.080   5.839 -0.2186  1.3848  1.6558
 7652SOL     OW24396   5.736   0.218   9.816 -0.6053 -0.0152  0.0698
 7652SOL    HW124397   5.748   0.254   9.904  1.2862 -1.3480  0.4243
 7652SOL    HW224398   5.683   0.139   9.829  0.5629 -0.8047  0.2071
 7653SOL     OW24399   5.791   2.384   2.447  0.0028  0.0343 -0.3200
 7653SOL    HW124400   5.824   2.295   2.459  0.2441  0.3124  1.1778
 7653SOL    HW224401   5.765   2.387   2.354  1.5907 -1.0507 -0.8480
 7654SOL     OW24402   1.291   4.806   5.941 -0.2800  0.2766  0.3438
 7654SOL    HW124403   1.243   4.724   5.933  0.0802 -0.0797  1.5683
 7654SOL    HW224404   1.354   4.790   6.011 -0.1593  1.5727  0.5585
 7655SOL     OW24405   2.431   0.791   2.805  0.0448  0.0420  0.0302
 7655SOL    HW124406   2.389   0.743   2.734 -2.2824  1.7905  0.0938
 7655SOL    HW224407   2.448   0.724   2.872 -0.2444 -1.1745 -1.0636
 7656SOL     OW24408   4.667   0.489   7.773 -0.7813 -0.4655  0.1968
 7656SOL    HW124409   4.655   0.405   7.728 -2.0078 -1.1684  1.7318
 7656SOL    HW224410   4.658   0.555   7.705  0.7653 -1.5777 -1.1501
 7657SOL     OW24411   3.036   3.704   5.899 -0.4255  0.3094 -0.0442
 7657SOL    HW124412   3.103   3.642   5.927 -0.9581 -1.4048 -2.2209
 7657SOL    HW224413   2.953   3.663   5.926 -0.8257 -0.3743 -2.1650
 7658SOL     OW24414   6.480   3.259   8.371 -0.3043  0.4415  0.0547
 7658SOL    HW124415   6.471   3.250   8.465 -1.4087  0.1863 -0.0633
 7658SOL    HW224416   6.402   3.308   8.343 -0.0437  0.4339 -0.7316
 7659SOL     OW24417   5.851   1.064   8.947  0.4128 -0.2944 -0.1355
 7659SOL    HW124418   5.860   1.157   8.926  0.0834 -0.4217 -0.8807
 7659SOL    HW224419   5.887   1.056   9.035  0.1962  0.5874  0.0488
 7660SOL     OW24420   6.441   0.219   5.284  0.3741  0.0389 -0.4131
 7660SOL    HW124421   6.451   0.127   5.308  1.3783 -0.2055 -1.6491
 7660SOL    HW224422   6.505   0.265   5.337  2.0966 -0.4103 -1.9911
 7661SOL     OW24423   1.011   2.468   6.297 -0.2828  0.7946 -0.4188
 7661SOL    HW124424   0.945   2.425   6.242 -1.7064  1.2091  0.9066
 7661SOL    HW224425   1.021   2.411   6.373  0.6923  0.8833 -0.4642
 7662SOL     OW24426   3.712   6.890  10.205  0.4100  0.0415 -0.5951
 7662SOL    HW124427   3.747   6.897  10.294 -0.5100  0.7825 -0.2735
 7662SOL    HW224428   3.642   6.826  10.212  1.1863 -0.8996 -1.0886
 7663SOL     OW24429   3.025   3.097   2.761 -0.3587  0.4514  0.3109
 7663SOL    HW124430   2.982   3.109   2.676 -1.5623 -0.8821  0.6906
 7663SOL    HW224431   3.022   3.183   2.802 -0.0970  1.0288 -0.8437
 7664SOL     OW24432   3.078   5.512  10.393  0.3702  0.7100 -0.5563
 7664SOL    HW124433   3.017   5.560  10.336 -0.9363  1.6472  1.5132
 7664SOL    HW224434   3.052   5.420  10.384 -3.4150  1.2484  2.3043
 7665SOL     OW24435   0.769   7.791   6.620 -0.3190 -0.1884 -0.7473
 7665SOL    HW124436   0.700   7.815   6.682 -0.0932 -1.4407  0.0314
 7665SOL    HW224437   0.738   7.824   6.536 -0.3602  2.0977  0.0937
 7666SOL     OW24438   1.216   0.779  10.877 -0.5183  0.2924 -0.5852
 7666SOL    HW124439   1.273   0.761  10.952 -1.9556 -0.2019  0.4183
 7666SOL    HW224440   1.218   0.875  10.868  0.0192  0.3215 -0.2062
 7667SOL     OW24441   2.648   6.374   8.543  0.3543  0.2705  0.4100
 7667SOL    HW124442   2.649   6.393   8.450  0.2508  3.3114  0.9110
 7667SOL    HW224443   2.568   6.416   8.575 -0.4627 -2.0652  1.6753
 7668SOL     OW24444   0.003   2.240  11.875 -0.2839  0.4940 -0.6355
 7668SOL    HW124445  -0.057   2.311  11.897  0.9917  1.9838 -1.7599
 7668SOL    HW224446   0.053   2.225  11.956 -1.0625  0.3330 -0.1749
 7669SOL     OW24447   0.707   0.864   6.043  0.7072 -0.6090 -0.2475
 7669SOL    HW124448   0.793   0.850   6.004  0.9204 -1.2929  0.4424
 7669SOL    HW224449   0.726   0.903   6.129  0.3569 -1.1576  0.0858
 7670SOL     OW24450   3.493   5.433   0.355 -0.0467 -0.1657  1.2968
 7670SOL    HW124451   3.508   5.479   0.273 -0.9071 -1.4985  0.3591
 7670SOL    HW224452   3.555   5.472   0.416  0.4689  0.9881  0.0790
 7671SOL     OW24453   3.569   5.843   2.426  0.1632  0.1803 -0.1951
 7671SOL    HW124454   3.581   5.750   2.447  0.0495  0.2537  0.2191
 7671SOL    HW224455   3.633   5.888   2.482 -1.4471  0.5222  1.4827
 7672SOL     OW24456   0.741   2.399   2.085  0.0876 -0.1427 -0.2607
 7672SOL    HW124457   0.729   2.481   2.133  1.1155  0.3652 -0.8422
 7672SOL    HW224458   0.762   2.426   1.996  0.4949 -1.0361 -0.4442
 7673SOL     OW24459   1.553   5.983  10.545  0.3764  0.5385 -0.2532
 7673SOL    HW124460   1.528   5.993  10.453 -1.5408 -2.9429 -0.2913
 7673SOL    HW224461   1.639   6.025  10.551  0.6753  0.7420 -3.6754
 7674SOL     OW24462   6.732   7.332   0.509 -0.7440 -0.4956 -0.4808
 7674SOL    HW124463   6.803   7.394   0.525 -0.0835 -0.5360 -2.8596
 7674SOL    HW224464   6.776   7.255   0.473 -1.7034 -1.7930  0.9844
 7675SOL     OW24465   6.960   1.644   5.720 -0.0069  0.1384 -0.5497
 7675SOL    HW124466   6.908   1.632   5.641 -1.4105 -1.1793  0.5136
 7675SOL    HW224467   6.914   1.712   5.768  0.3166  0.2868 -0.4525
 7676SOL     OW24468   5.322   4.068   2.691  0.1574 -0.0187 -0.2736
 7676SOL    HW124469   5.264   4.100   2.761 -2.0364 -0.4720 -1.7708
 7676SOL    HW224470   5.357   3.985   2.725 -1.2203 -0.4554  0.1468
 7677SOL     OW24471   4.067   0.985   5.143  0.3017  0.7389 -0.5694
 7677SOL    HW124472   3.971   0.990   5.141  0.2727  0.7431  0.4395
 7677SOL    HW224473   4.087   0.898   5.109 -0.0624  0.7000 -0.6918
 7678SOL     OW24474   0.524   3.369   3.826  0.0575 -1.1534  0.8865
 7678SOL    HW124475   0.543   3.285   3.783 -0.7310 -0.3328 -1.1590
 7678SOL    HW224476   0.432   3.362   3.851 -0.3674 -0.4748 -0.4015
 7679SOL     OW24477   4.833   5.822   2.333 -0.1943  0.1498 -0.1827
 7679SOL    HW124478   4.810   5.914   2.346  0.2192  0.1867  0.3334
 7679SOL    HW224479   4.906   5.824   2.271 -2.1252 -0.0225 -2.6569
 7680SOL     OW24480   2.796   1.891   9.164 -0.3647 -0.1074  0.2021
 7680SOL    HW124481   2.757   1.890   9.076 -0.7834  0.2889  0.3755
 7680SOL    HW224482   2.877   1.842   9.155 -0.8870 -0.9379 -0.1884
 7681SOL     OW24483   5.438   1.306   8.092  0.1046 -0.2088  0.5568
 7681SOL    HW124484   5.519   1.265   8.061 -0.8436 -0.3831 -1.9587
 7681SOL    HW224485   5.397   1.238   8.146  0.3578 -1.1783 -0.4189
 7682SOL     OW24486   5.926   7.839   9.477 -0.1899  0.8423 -0.2540
 7682SOL    HW124487   5.992   7.774   9.501  0.5510  1.5709 -0.2707
 7682SOL    HW224488   5.948   7.916   9.530  0.3727  1.8677 -1.8925
 7683SOL     OW24489   1.084   7.585   5.648 -0.3937 -0.2848  0.4504
 7683SOL    HW124490   1.020   7.562   5.580  0.1967 -1.9688  0.3979
 7683SOL    HW224491   1.042   7.559   5.730 -0.7370  0.9008  0.6712
 7684SOL     OW24492   0.674   4.203   8.669  0.2752 -0.0994  0.0515
 7684SOL    HW124493   0.667   4.113   8.702 -1.2291  0.4799  1.4905
 7684SOL    HW224494   0.766   4.212   8.644  1.1207 -1.2143  2.4178
 7685SOL     OW24495   5.368   5.398   0.658  0.1556 -0.3600 -0.4007
 7685SOL    HW124496   5.315   5.325   0.626  1.9883 -1.7146 -0.4824
 7685SOL    HW224497   5.387   5.376   0.749  0.0165  0.4470 -0.1688
 7686SOL     OW24498   7.255   4.981   9.739 -0.1416  0.2683  0.3409
 7686SOL    HW124499   7.296   4.904   9.777 -1.2471 -0.2988  0.4186
 7686SOL    HW224500   7.308   5.000   9.661  0.2965 -0.4072  0.4644
 7687SOL     OW24501   3.808   6.918  10.456 -0.2183 -0.3028 -0.5803
 7687SOL    HW124502   3.851   7.002  10.472  0.1256 -0.8332  1.5910
 7687SOL    HW224503   3.733   6.917  10.516  0.4934 -2.0055  0.3628
 7688SOL     OW24504   1.240   3.241   1.838 -0.7725  0.1773  0.2748
 7688SOL    HW124505   1.335   3.254   1.844 -0.6077 -0.6863 -0.2781
 7688SOL    HW224506   1.226   3.153   1.873 -1.4740  0.5747  1.0513
 7689SOL     OW24507   5.043   4.590   2.988  0.0372  0.6254  0.3238
 7689SOL    HW124508   5.013   4.499   2.990 -0.5890  0.7492 -1.8606
 7689SOL    HW224509   4.967   4.641   3.016  0.1084  0.5570  0.6530
 7690SOL     OW24510   2.930   6.083   4.889  0.1572 -0.1446  0.0137
 7690SOL    HW124511   2.898   6.088   4.979  1.8495  0.0884  0.6291
 7690SOL    HW224512   2.885   6.006   4.853  0.0065 -0.6828  1.2824
 7691SOL     OW24513   4.946   6.635   8.736  0.4269 -1.0774  0.3331
 7691SOL    HW124514   4.932   6.655   8.643 -1.1470 -1.6433  0.4194
 7691SOL    HW224515   5.004   6.559   8.735  2.3159  0.2885 -0.0998
 7692SOL     OW24516   1.820   1.010   0.123  0.3117 -0.6771  0.4912
 7692SOL    HW124517   1.759   0.963   0.066  1.9208 -0.0485 -1.8851
 7692SOL    HW224518   1.789   0.991   0.212 -1.0811 -3.4406 -0.4709
 7693SOL     OW24519   7.329   7.331  10.629 -0.0844  0.1841 -0.3423
 7693SOL    HW124520   7.316   7.255  10.686 -0.3347  0.7148  0.3241
 7693SOL    HW224521   7.243   7.347  10.591 -0.3467  0.9172  0.5293
 7694SOL     OW24522   7.963   2.620   4.172  0.2292 -0.0850  0.1159
 7694SOL    HW124523   8.011   2.700   4.194  1.8822 -0.1768 -2.6368
 7694SOL    HW224524   8.014   2.550   4.212 -1.1952  0.1193  2.4908
 7695SOL     OW24525   1.303   4.330  10.831  0.0707 -0.0123 -0.3979
 7695SOL    HW124526   1.351   4.399  10.875 -0.4818  1.4687 -2.0206
 7695SOL    HW224527   1.367   4.260  10.817  0.6042  0.1013  1.3583
 7696SOL     OW24528   6.128   2.061   4.866 -0.0861  0.1805  0.1975
 7696SOL    HW124529   6.131   1.993   4.934 -0.6549 -0.9308 -0.8542
 7696SOL    HW224530   6.201   2.040   4.808 -0.6494  0.0911 -0.4835
 7697SOL     OW24531   3.648   6.463   8.243  0.6029 -0.1246  0.3554
 7697SOL    HW124532   3.685   6.473   8.156 -0.9811 -1.6457 -0.5558
 7697SOL    HW224533   3.708   6.405   8.289  1.0865  0.1256  0.0422
 7698SOL     OW24534   0.015   3.183   3.624  0.0912 -0.2175  0.3074
 7698SOL    HW124535  -0.000   3.133   3.544  2.5460 -0.9591  0.2133
 7698SOL    HW224536   0.110   3.197   3.626  0.0916 -0.0308  2.9838
 7699SOL     OW24537   1.882   2.021   5.736  0.0683 -0.2905  0.2137
 7699SOL    HW124538   1.851   1.932   5.752 -0.4933 -0.0141  0.6874
 7699SOL    HW224539   1.976   2.011   5.722 -0.3861 -1.3297 -2.7177
 7700SOL     OW24540   0.936   5.316   9.034 -0.0235 -0.3562 -0.2966
 7700SOL    HW124541   0.853   5.277   9.006  0.2976 -0.9987 -0.3563
 7700SOL    HW224542   0.984   5.330   8.953  0.9446 -2.2990 -0.1112
 7701SOL     OW24543   2.837   4.867   4.084  0.0420  0.2378 -0.3728
 7701SOL    HW124544   2.789   4.865   4.167  0.9977  3.3874  0.3990
 7701SOL    HW224545   2.914   4.812   4.099 -0.5436 -0.4216  0.2992
 7702SOL     OW24546   0.298   2.678  12.276  0.1415 -0.2494 -0.1417
 7702SOL    HW124547   0.378   2.729  12.271  0.4374 -0.4910  1.5320
 7702SOL    HW224548   0.228   2.741  12.256  0.7560 -0.2672 -2.6479
 7703SOL     OW24549   0.570   6.814   7.169  0.5409  0.2696  0.2592
 7703SOL    HW124550   0.591   6.731   7.212  0.7435 -0.2547 -0.8227
 7703SOL    HW224551   0.650   6.839   7.125  1.3572  2.4623  2.7247
 7704SOL     OW24552   7.889   1.953  10.620  0.0427 -0.1710 -0.2069
 7704SOL    HW124553   7.952   1.893  10.579 -0.2978 -0.8777  0.2730
 7704SOL    HW224554   7.933   1.981  10.701  0.0038 -0.1506 -0.1932
 7705SOL     OW24555   3.101   0.821   8.304  0.1399  0.5206  0.2952
 7705SOL    HW124556   3.091   0.764   8.227  1.2218  0.1529  0.4139
 7705SOL    HW224557   3.121   0.762   8.376 -1.5609  0.7906  1.0475
 7706SOL     OW24558   5.084   0.194   4.298 -0.3689  0.1713 -0.0982
 7706SOL    HW124559   5.138   0.181   4.220 -3.8481 -1.6142 -2.4767
 7706SOL    HW224560   5.067   0.288   4.300  1.9488  0.6342  0.1843
 7707SOL     OW24561   3.178   2.263   9.986 -0.0363 -0.4517 -0.6096
 7707SOL    HW124562   3.163   2.296  10.075 -0.7390 -1.2819 -0.4085
 7707SOL    HW224563   3.171   2.168   9.994 -1.8669 -0.4713 -1.8694
 7708SOL     OW24564   2.776   7.160   1.383 -0.4746  0.1014  0.3929
 7708SOL    HW124565   2.723   7.227   1.426  0.6612  1.4696 -0.2333
 7708SOL    HW224566   2.739   7.153   1.295 -0.3732  0.1502  0.3469
 7709SOL     OW24567   2.491   2.431   2.791  0.2545  0.2835  0.2843
 7709SOL    HW124568   2.547   2.503   2.820 -0.4742  1.0223 -0.1251
 7709SOL    HW224569   2.415   2.473   2.750 -0.9149 -0.6705  1.3642
 7710SOL     OW24570   3.430   6.410   0.052 -0.0521 -0.5738 -0.4672
 7710SOL    HW124571   3.407   6.390   0.143 -1.5705  0.9554 -0.4737
 7710SOL    HW224572   3.384   6.343   0.001  0.1589 -0.9551 -0.1632
 7711SOL     OW24573   7.357   2.405  10.232 -0.0489 -0.2875  0.1590
 7711SOL    HW124574   7.349   2.500  10.241 -0.9379 -0.3323 -0.0802
 7711SOL    HW224575   7.325   2.370  10.315  1.8500 -0.3442  0.9213
 7712SOL     OW24576   7.519   7.328  11.075  0.3094  0.0700  0.0116
 7712SOL    HW124577   7.552   7.392  11.012  2.6202 -0.0650  0.9654
 7712SOL    HW224578   7.589   7.263  11.082 -1.3482 -1.7912  0.1832
 7713SOL     OW24579   2.393   1.322  12.113  0.7080  0.0619  0.1904
 7713SOL    HW124580   2.431   1.237  12.135 -0.7439 -0.2402  1.6897
 7713SOL    HW224581   2.393   1.371  12.195  2.0610  1.7950 -0.7573
 7714SOL     OW24582   6.341   2.463   6.048 -0.1228 -0.1526  0.0787
 7714SOL    HW124583   6.418   2.407   6.056 -0.5609 -0.9265 -0.8968
 7714SOL    HW224584   6.376   2.552   6.051  1.0295 -0.4745 -1.8826
 7715SOL     OW24585   4.584   5.182   4.487 -0.0464 -0.1976  0.2691
 7715SOL    HW124586   4.546   5.131   4.558  0.3728 -0.1882  0.5049
 7715SOL    HW224587   4.526   5.167   4.413 -0.8673  0.3307  0.7902
 7716SOL     OW24588   5.387   2.941   1.810 -0.1354  0.0726  0.0415
 7716SOL    HW124589   5.479   2.946   1.837 -0.2999  0.5014  0.5594
 7716SOL    HW224590   5.390   2.911   1.719  0.6691  2.6003 -0.8627
 7717SOL     OW24591   0.278   3.121  12.249 -0.0422 -0.2315 -0.3625
 7717SOL    HW124592   0.302   3.169  12.328 -0.5547 -0.9175  0.2134
 7717SOL    HW224593   0.195   3.161  12.221 -0.0930 -0.2985 -0.3044
 7718SOL     OW24594   2.386   3.843   8.650 -0.2604 -1.0463  0.1863
 7718SOL    HW124595   2.294   3.866   8.645 -0.2425 -1.2572 -1.6859
 7718SOL    HW224596   2.429   3.924   8.679 -0.6991  0.0459 -2.0218
 7719SOL     OW24597   5.379   5.916  12.415 -0.0452  0.7160  0.4007
 7719SOL    HW124598   5.473   5.906  12.429 -0.0871 -0.1162  0.0969
 7719SOL    HW224599   5.372   5.984  12.348  0.3713  0.2310 -0.1444
 7720SOL     OW24600   7.508   1.137   8.465 -0.3454  0.4114  0.3396
 7720SOL    HW124601   7.453   1.079   8.412 -0.4451 -0.2277  1.1070
 7720SOL    HW224602   7.524   1.213   8.410 -1.0596  0.0984 -0.3183
 7721SOL     OW24603   4.474   6.388  10.924  0.5589 -0.5047  0.6667
 7721SOL    HW124604   4.491   6.350  11.010 -0.3127  1.2542  1.6643
 7721SOL    HW224605   4.387   6.426  10.931  0.5315 -0.1946 -0.9588
 7722SOL     OW24606   1.174   0.585   6.909  0.4547 -0.2364 -0.1127
 7722SOL    HW124607   1.261   0.609   6.878 -0.0205  1.5317 -0.2102
 7722SOL    HW224608   1.174   0.490   6.911  2.5744 -0.2757  0.4125
 7723SOL     OW24609   2.991   0.663   7.068 -0.0858 -0.3282  0.5899
 7723SOL    HW124610   3.079   0.637   7.042  0.0959  1.5931 -0.9823
 7723SOL    HW224611   2.984   0.639   7.160  2.5016  0.5129  1.0791
 7724SOL     OW24612   6.163   1.028   9.189 -0.1357 -0.8308  0.6117
 7724SOL    HW124613   6.223   1.034   9.263  0.0774  0.4499  0.3442
 7724SOL    HW224614   6.182   0.942   9.150  2.1547 -0.1197  0.0092
 7725SOL     OW24615   4.281   3.843  10.691  0.5426  0.3399  0.1106
 7725SOL    HW124616   4.278   3.939  10.693 -3.2695  0.3820 -0.8219
 7725SOL    HW224617   4.271   3.817  10.783 -1.8503  0.9453  0.0786
 7726SOL     OW24618   7.763   5.490   1.558 -0.0651  0.1367 -0.1707
 7726SOL    HW124619   7.828   5.492   1.488 -0.2732 -2.0287 -0.5033
 7726SOL    HW224620   7.810   5.520   1.636  0.8490  0.2379 -0.7503
 7727SOL     OW24621   1.817   5.405  12.348  0.2410  0.1300  0.1422
 7727SOL    HW124622   1.785   5.490  12.378  0.6419  0.4950 -0.4359
 7727SOL    HW224623   1.796   5.345  12.419 -0.9103  0.5219  0.1651
 7728SOL     OW24624   0.142   3.852  10.973 -0.6148 -0.2972  0.2880
 7728SOL    HW124625   0.211   3.913  10.949 -1.5805  0.7209  0.0276
 7728SOL    HW224626   0.120   3.808  10.891  0.8228 -1.8350  0.6672
 7729SOL     OW24627   2.019   2.557   2.898 -0.2988  0.1430 -0.0754
 7729SOL    HW124628   1.959   2.632   2.889  1.0360  1.1624 -0.7489
 7729SOL    HW224629   1.988   2.512   2.977 -1.4531  1.1069  0.0624
 7730SOL     OW24630   0.943   6.421   2.738  0.5208 -0.6864 -0.6174
 7730SOL    HW124631   0.993   6.347   2.704 -0.3712 -2.7204  2.0717
 7730SOL    HW224632   0.859   6.417   2.691  1.2758  0.0893 -2.0908
 7731SOL     OW24633   0.794   1.565  10.877 -0.1575  0.4315  0.0138
 7731SOL    HW124634   0.717   1.580  10.823  0.5464 -0.2164 -1.2113
 7731SOL    HW224635   0.817   1.651  10.910  0.6139  1.2371 -2.4273
 7732SOL     OW24636   6.488   6.781   0.212 -0.2041  0.0712 -0.0621
 7732SOL    HW124637   6.512   6.810   0.300 -0.7915 -0.0330  0.1338
 7732SOL    HW224638   6.446   6.857   0.173  0.1154  0.1385 -0.2816
 7733SOL     OW24639   2.859   4.005   0.930  0.2601  0.3430  0.1717
 7733SOL    HW124640   2.925   4.022   0.863  0.3821  0.6240  0.3571
 7733SOL    HW224641   2.819   3.922   0.905  0.0003  0.6649 -0.4850
 7734SOL     OW24642   7.780   0.536   7.443  0.1178  0.0863  0.0606
 7734SOL    HW124643   7.697   0.582   7.437 -0.1890 -0.3333  0.9318
 7734SOL    HW224644   7.788   0.512   7.535  0.7959 -0.6284 -0.1674
 7735SOL     OW24645   7.416   6.381   3.712  0.0421 -0.7016  0.1693
 7735SOL    HW124646   7.430   6.473   3.687 -2.7147  0.2670  1.7067
 7735SOL    HW224647   7.367   6.344   3.639 -0.2134 -0.4860  0.2291
 7736SOL     OW24648   2.395   0.523   3.264 -0.3951  0.3932  0.4021
 7736SOL    HW124649   2.479   0.481   3.246 -0.3467  0.4737  0.4375
 7736SOL    HW224650   2.331   0.452   3.264 -0.8037  0.6511 -2.4438
 7737SOL     OW24651   1.417   4.086   3.095  0.2615  0.2355 -0.6512
 7737SOL    HW124652   1.357   4.078   3.020 -1.5305 -1.6333  0.8757
 7737SOL    HW224653   1.504   4.068   3.058 -0.6614 -1.4137 -2.1998
 7738SOL     OW24654   7.258   3.188  11.101  0.3643  0.4165  0.1957
 7738SOL    HW124655   7.354   3.192  11.103  0.4820 -0.8128 -1.2987
 7738SOL    HW224656   7.232   3.269  11.056  0.7636  0.2837 -0.2829
 7739SOL     OW24657   2.772   1.795   0.795  0.3691  0.2055  0.1316
 7739SOL    HW124658   2.700   1.740   0.763  1.9664 -2.1558  0.3072
 7739SOL    HW224659   2.765   1.790   0.890  1.3886 -1.0124  0.1701
 7740SOL     OW24660   0.789   5.525  11.338 -0.0929 -0.3132  0.2469
 7740SOL    HW124661   0.769   5.436  11.308 -0.8313  0.0942 -0.4953
 7740SOL    HW224662   0.780   5.521  11.433 -0.4382 -0.9548  0.1887
 7741SOL     OW24663   4.674   0.594  10.784 -0.0475 -0.7388 -0.1821
 7741SOL    HW124664   4.730   0.638  10.848 -1.1468 -2.2694  1.9421
 7741SOL    HW224665   4.693   0.501  10.795 -2.1793 -1.2314 -0.1768
 7742SOL     OW24666   5.305   5.272   9.047  0.2915  0.4301  0.3318
 7742SOL    HW124667   5.216   5.252   9.076  0.1291 -0.3694 -0.6798
 7742SOL    HW224668   5.361   5.213   9.098  0.0625 -0.5180 -0.5025
 7743SOL     OW24669   1.703   3.624   9.981  0.1596  0.0713 -0.3523
 7743SOL    HW124670   1.686   3.648   9.890 -0.0609 -0.5849 -0.4949
 7743SOL    HW224671   1.791   3.586   9.980 -0.8442 -2.4968 -0.8485
 7744SOL     OW24672   1.279   6.801   5.204 -0.4140  0.5956  0.5434
 7744SOL    HW124673   1.269   6.743   5.280  1.9003  0.6907  0.9678
 7744SOL    HW224674   1.292   6.888   5.242  2.3591  0.4122  0.1694
 7745SOL     OW24675   1.449   4.797   1.996 -0.1171 -0.9893 -0.1441
 7745SOL    HW124676   1.427   4.801   1.903 -0.1245  0.0983 -0.1066
 7745SOL    HW224677   1.407   4.874   2.035 -0.7205 -1.8194  0.8992
 7746SOL     OW24678   1.430   5.953   7.757  0.1046  0.0440 -0.5639
 7746SOL    HW124679   1.439   6.005   7.678 -1.4756  0.0039 -0.8015
 7746SOL    HW224680   1.493   5.991   7.819  0.5756  0.7647 -1.4698
 7747SOL     OW24681   5.223   6.804   9.089 -0.0472 -0.4883 -0.5417
 7747SOL    HW124682   5.130   6.825   9.102  0.6836  2.1565  1.3513
 7747SOL    HW224683   5.246   6.848   9.007  0.0302  1.0211  0.2442
 7748SOL     OW24684   4.363   4.791   1.265  0.3051  0.0811 -0.0337
 7748SOL    HW124685   4.344   4.830   1.350  0.4842 -0.2679  0.1717
 7748SOL    HW224686   4.347   4.697   1.278  1.5047 -0.1423 -0.0285
 7749SOL     OW24687   6.883   3.921   0.569  0.0279 -0.4058  0.1567
 7749SOL    HW124688   6.820   3.865   0.615 -0.4769 -0.2182 -0.2894
 7749SOL    HW224689   6.894   3.996   0.628 -0.8243 -0.0372 -0.1365
 7750SOL     OW24690   2.124   5.140   8.967  0.3904 -0.2880 -0.5758
 7750SOL    HW124691   2.200   5.179   9.009 -0.4350  2.3812 -1.3957
 7750SOL    HW224692   2.084   5.085   9.034  0.7623  1.5146  1.1879
 7751SOL     OW24693   5.836   3.214   1.376  0.0139  0.2983  0.4760
 7751SOL    HW124694   5.849   3.290   1.433 -2.2073  2.2111 -1.3471
 7751SOL    HW224695   5.743   3.195   1.383  0.0572 -0.6380 -1.0136
 7752SOL     OW24696   4.238   5.461   5.258 -0.4862 -0.4306  0.0074
 7752SOL    HW124697   4.310   5.415   5.300  1.2588  1.0817 -1.1702
 7752SOL    HW224698   4.231   5.419   5.172 -0.4614 -0.0476 -0.1827
 7753SOL     OW24699   3.053   3.654   0.060  0.2218 -0.2936 -0.1942
 7753SOL    HW124700   3.018   3.566   0.045  0.0932  0.0595 -2.3616
 7753SOL    HW224701   2.977   3.707   0.085  0.3708 -0.8412  1.5503
 7754SOL     OW24702   7.884   2.021   1.669 -0.4968 -0.0410 -0.4932
 7754SOL    HW124703   7.845   1.999   1.753  0.4522 -1.3171 -0.3445
 7754SOL    HW224704   7.821   2.078   1.627 -1.5463 -0.3711  0.5849
 7755SOL     OW24705   7.482   0.520   5.210 -0.2736 -0.4602  0.0857
 7755SOL    HW124706   7.437   0.538   5.127 -0.2447 -0.9654 -0.0425
 7755SOL    HW224707   7.414   0.527   5.277 -0.6594 -1.7011 -0.1547
 7756SOL     OW24708   7.535   3.038   3.695  0.5277 -0.7241  0.4464
 7756SOL    HW124709   7.530   3.089   3.615  1.6058  1.0406  1.4443
 7756SOL    HW224710   7.449   2.997   3.703 -0.0893  0.2565 -0.8323
 7757SOL     OW24711   2.705   6.828  10.429 -0.2144 -0.1677 -0.1105
 7757SOL    HW124712   2.659   6.751  10.462  0.3404 -0.4649 -0.0215
 7757SOL    HW224713   2.776   6.792  10.376 -0.6624  0.3019 -1.0330
 7758SOL     OW24714   4.469   1.260   2.046 -0.6506  0.0655  0.2902
 7758SOL    HW124715   4.514   1.185   2.087 -1.3854 -1.2627 -1.2180
 7758SOL    HW224716   4.510   1.268   1.960 -1.4170  0.6297 -0.0318
 7759SOL     OW24717   4.381   0.172  11.942 -0.3942 -0.7625 -0.1183
 7759SOL    HW124718   4.327   0.102  11.906 -0.4347 -0.7956  0.0048
 7759SOL    HW224719   4.458   0.175  11.887  0.5488 -2.2220  1.0426
 7760SOL     OW24720   3.678   7.018   8.500  0.0592  0.0291  1.3349
 7760SOL    HW124721   3.583   7.021   8.506  0.0541  0.8643  0.9055
 7760SOL    HW224722   3.701   6.929   8.529 -1.0290 -1.1316 -1.0950
 7761SOL     OW24723   7.096   7.176   5.006  0.1550 -0.3907 -0.3447
 7761SOL    HW124724   7.190   7.181   5.025  0.0361  2.2646 -0.1327
 7761SOL    HW224725   7.071   7.086   5.031  2.4071 -0.8190  0.5809
 7762SOL     OW24726   2.252   0.442   9.275  0.7720 -0.2774 -0.4024
 7762SOL    HW124727   2.191   0.503   9.233 -0.4412 -0.7560  0.5699
 7762SOL    HW224728   2.229   0.448   9.368  1.0978 -1.6957 -0.2231
 7763SOL     OW24729   0.781   7.039   9.936  0.5465 -0.6609 -0.0879
 7763SOL    HW124730   0.766   6.954   9.894 -0.8599 -0.0003 -1.0231
 7763SOL    HW224731   0.715   7.096   9.897  0.2872  0.4237  1.8262
 7764SOL     OW24732   2.458   5.474   4.270 -0.3109  0.1182 -0.0396
 7764SOL    HW124733   2.398   5.412   4.229 -1.9349  0.1935  2.0057
 7764SOL    HW224734   2.537   5.422   4.290 -0.4395 -0.4860 -1.0495
 7765SOL     OW24735   3.022   2.205  11.000 -0.3836 -0.1944 -0.0930
 7765SOL    HW124736   3.008   2.290  10.960 -0.9384 -0.3917 -0.3152
 7765SOL    HW224737   3.104   2.215  11.050  1.1502 -0.3629 -2.4374
 7766SOL     OW24738   3.059   0.699   3.011 -0.0215 -0.4555 -0.2177
 7766SOL    HW124739   3.057   0.622   2.954  0.3416 -0.4965 -0.1810
 7766SOL    HW224740   2.982   0.691   3.066 -0.4446 -0.3534 -0.7892
 7767SOL     OW24741   7.456   5.235  10.342  0.5349  0.2853 -0.2661
 7767SOL    HW124742   7.528   5.200  10.289  1.4279 -0.4588  1.3632
 7767SOL    HW224743   7.414   5.300  10.285  2.0076  0.1865 -1.5364
 7768SOL     OW24744   1.404   2.779   3.321  0.0585 -0.3970  0.4315
 7768SOL    HW124745   1.488   2.796   3.365  1.1769 -0.4147 -1.5692
 7768SOL    HW224746   1.356   2.862   3.329  1.2619  0.4211 -0.4417
 7769SOL     OW24747   4.768   4.280   4.157 -0.7817  0.1222  0.0130
 7769SOL    HW124748   4.732   4.265   4.244 -1.5271  0.0848 -0.2942
 7769SOL    HW224749   4.693   4.269   4.098 -0.0714 -0.9872 -0.7304
 7770SOL     OW24750   1.579   2.603   1.334  0.6435  0.5579  0.3433
 7770SOL    HW124751   1.539   2.644   1.258 -0.2933 -0.0085  0.5245
 7770SOL    HW224752   1.549   2.513   1.332  2.1838  0.0187  0.2965
 7771SOL     OW24753   0.266   3.001   3.432  0.7402  0.6409  0.3429
 7771SOL    HW124754   0.301   3.045   3.509 -0.6460  0.3006  1.1984
 7771SOL    HW224755   0.176   3.032   3.425  0.9119  0.9062 -1.3511
 7772SOL     OW24756   3.075   1.539   6.655 -0.3256  0.5942 -0.0596
 7772SOL    HW124757   3.116   1.533   6.742  0.7908  1.4051 -0.5062
 7772SOL    HW224758   2.985   1.568   6.673 -0.4385 -0.2680  0.8800
 7773SOL     OW24759   4.106   1.658   3.313  0.2432  0.4207  0.1540
 7773SOL    HW124760   4.105   1.719   3.239  0.2228 -0.2335 -0.3845
 7773SOL    HW224761   4.033   1.687   3.368 -0.1483  0.4999 -0.4063
 7774SOL     OW24762   1.325   6.678   2.342 -0.0306 -0.4730 -0.0227
 7774SOL    HW124763   1.345   6.680   2.249 -0.1843  1.9266 -0.0799
 7774SOL    HW224764   1.245   6.626   2.350  0.0149 -0.7322 -1.2160
 7775SOL     OW24765   6.594   0.906   7.298 -0.1928 -0.3959  0.0369
 7775SOL    HW124766   6.671   0.861   7.331  0.7317  0.8846 -0.2917
 7775SOL    HW224767   6.564   0.960   7.371  0.5860  0.8053 -0.4902
 7776SOL     OW24768   6.810   6.371   9.148  0.1555  0.4526  0.4474
 7776SOL    HW124769   6.895   6.352   9.189 -0.8915 -0.5985  2.2155
 7776SOL    HW224770   6.763   6.424   9.212 -1.0034 -0.0500  0.0416
 7777SOL     OW24771   1.769   4.535   8.933  0.3830 -0.0629  0.4305
 7777SOL    HW124772   1.832   4.491   8.877  0.2105 -2.8066  2.1500
 7777SOL    HW224773   1.687   4.534   8.883  0.7485 -0.3285 -0.1681
 7778SOL     OW24774   1.665   0.720  10.405  0.8934 -0.1746 -0.1067
 7778SOL    HW124775   1.651   0.652  10.471  1.5536 -1.0599 -0.8538
 7778SOL    HW224776   1.588   0.713  10.348 -0.6279  1.8159  1.5307
 7779SOL     OW24777   1.643   3.543   5.492 -0.0605 -0.2704 -0.2042
 7779SOL    HW124778   1.730   3.580   5.508  1.3716 -2.8649 -1.3492
 7779SOL    HW224779   1.637   3.537   5.397  0.0159 -3.2710 -0.1039
 7780SOL     OW24780   1.268   4.730   7.792  0.4694  0.3517 -0.0692
 7780SOL    HW124781   1.244   4.817   7.762  0.9318  1.0393  1.5124
 7780SOL    HW224782   1.188   4.678   7.783 -0.2897  1.3807  0.6077
 7781SOL     OW24783   5.917   3.621   9.244 -0.2728 -0.0752  0.2016
 7781SOL    HW124784   5.873   3.540   9.271  1.5333 -1.0019  0.5357
 7781SOL    HW224785   5.969   3.596   9.168  2.0878  0.1318  1.6361
 7782SOL     OW24786   3.844   7.008  11.999  0.6274  0.0229  0.2015
 7782SOL    HW124787   3.891   6.971  11.924 -0.5325 -0.4145 -0.3355
 7782SOL    HW224788   3.820   6.932  12.052 -0.7226  0.0882 -0.2836
 7783SOL     OW24789   2.766   0.869   3.830  0.2854 -0.3084  0.2217
 7783SOL    HW124790   2.738   0.951   3.870 -0.6606 -0.6029  0.2050
 7783SOL    HW224791   2.838   0.893   3.772  0.6973  0.3453  0.9864
 7784SOL     OW24792   3.118   3.403   3.107  0.4417 -0.1909 -0.0291
 7784SOL    HW124793   3.062   3.478   3.125  0.5512  0.0552 -0.7107
 7784SOL    HW224794   3.123   3.398   3.012  1.5781 -0.2115  0.0168
 7785SOL     OW24795   7.796   4.895  11.577 -0.6037 -0.2879  0.5349
 7785SOL    HW124796   7.759   4.983  11.569 -2.0150 -0.9127 -0.3431
 7785SOL    HW224797   7.800   4.879  11.671 -0.7365  0.5479  0.6940
 7786SOL     OW24798   3.471   1.619   2.048 -0.5060  0.2029  0.0688
 7786SOL    HW124799   3.518   1.570   1.979 -0.2432  1.6133 -0.7933
 7786SOL    HW224800   3.500   1.578   2.130 -0.3837 -1.1487 -0.6099
 7787SOL     OW24801   4.971   2.171  11.343 -0.4484 -0.3156 -0.6850
 7787SOL    HW124802   4.878   2.195  11.348 -0.1699  1.0952 -1.5841
 7787SOL    HW224803   4.995   2.187  11.252  0.5299 -1.3308 -0.6333
 7788SOL     OW24804   6.677   7.692   2.216  0.7317 -0.4943 -0.0482
 7788SOL    HW124805   6.720   7.607   2.229  1.1261 -0.4191 -0.8178
 7788SOL    HW224806   6.655   7.721   2.305 -0.8608 -2.1323  0.1606
 7789SOL     OW24807   2.188   5.333   1.876  0.2808  0.2688 -0.0602
 7789SOL    HW124808   2.116   5.350   1.814  0.5785 -0.6436 -0.6800
 7789SOL    HW224809   2.183   5.238   1.892  0.9622  0.3031  0.3769
 7790SOL     OW24810   3.238   1.491   1.801  0.1441 -0.1315 -0.3641
 7790SOL    HW124811   3.269   1.412   1.845  0.2624 -1.0560 -2.0276
 7790SOL    HW224812   3.305   1.511   1.737 -0.0963  1.0831 -0.2521
 7791SOL     OW24813   1.160   7.244   9.097  0.7598  0.2008  0.0532
 7791SOL    HW124814   1.073   7.205   9.089  0.8166 -0.0123  0.4601
 7791SOL    HW224815   1.204   7.192   9.165  2.2226 -1.5682 -2.0956
 7792SOL     OW24816   7.108   3.328   8.609 -0.3479 -0.1148 -0.4990
 7792SOL    HW124817   7.039   3.392   8.626  0.2001  0.7351 -1.3431
 7792SOL    HW224818   7.189   3.378   8.616  0.1140 -0.8204 -0.7158
 7793SOL     OW24819   2.083   5.965   9.686 -0.0877  0.1204  0.5801
 7793SOL    HW124820   2.112   5.883   9.725 -0.0933  0.0127  0.3627
 7793SOL    HW224821   2.147   6.030   9.714  0.2106 -0.0607  0.3281
 7794SOL     OW24822   0.684   6.515   1.868 -0.6669 -0.0736 -0.2252
 7794SOL    HW124823   0.731   6.441   1.906  0.4538 -1.0659 -3.2502
 7794SOL    HW224824   0.651   6.563   1.944 -0.3762 -2.9331  1.9006
 7795SOL     OW24825   1.393   3.469  10.543  0.4430 -0.5676 -0.1744
 7795SOL    HW124826   1.406   3.544  10.484  2.6834 -0.8675 -0.1423
 7795SOL    HW224827   1.339   3.503  10.614 -0.4515  0.3957 -1.2894
 7796SOL     OW24828   4.911   2.595  12.185 -0.7067  0.4343 -0.0970
 7796SOL    HW124829   4.991   2.580  12.235 -0.6948 -1.5626 -0.6367
 7796SOL    HW224830   4.840   2.572  12.244 -0.7079 -1.5108 -0.7993
 7797SOL     OW24831   2.792   2.590   7.788 -0.0913  0.6426  0.9820
 7797SOL    HW124832   2.714   2.632   7.825  0.1467  2.7498 -0.6698
 7797SOL    HW224833   2.826   2.654   7.726  2.4365 -0.6219  0.9385
 7798SOL     OW24834   1.338   6.410   1.840 -0.0752 -0.1511 -0.4524
 7798SOL    HW124835   1.384   6.452   1.768 -0.8674  0.4519 -0.6165
 7798SOL    HW224836   1.293   6.481   1.885  1.0109 -0.3790  1.1216
 7799SOL     OW24837   6.843   0.358   9.456  0.4527 -0.2122  0.4392
 7799SOL    HW124838   6.830   0.453   9.461 -0.5116 -0.3300  0.4048
 7799SOL    HW224839   6.935   0.345   9.478  0.1018  0.5541  2.6440
 7800SOL     OW24840   7.902   7.309   1.224  0.0317  0.1462 -0.4262
 7800SOL    HW124841   7.888   7.249   1.150 -1.9535 -0.1126  0.1232
 7800SOL    HW224842   7.829   7.293   1.283 -1.1191  3.6962 -0.6400
 7801SOL     OW24843   2.727   5.226   4.723  0.0548  0.4790  0.5778
 7801SOL    HW124844   2.678   5.145   4.736  0.2021 -0.1191 -1.9599
 7801SOL    HW224845   2.661   5.290   4.697  0.0962  0.8823  1.4244
 7802SOL     OW24846   0.510   5.533   2.246 -0.3549 -0.2107  0.2551
 7802SOL    HW124847   0.511   5.459   2.185 -0.6224 -0.0474  0.0510
 7802SOL    HW224848   0.460   5.502   2.321  0.2439 -0.5196  0.5284
 7803SOL     OW24849   5.280   5.084   4.682  0.3715 -0.2109  0.0795
 7803SOL    HW124850   5.327   5.065   4.602 -1.4164 -1.3907 -0.7611
 7803SOL    HW224851   5.235   5.166   4.665 -0.6749 -0.8791 -0.4824
 7804SOL     OW24852   6.183   1.594   3.583 -0.5643  0.3653  0.0633
 7804SOL    HW124853   6.192   1.520   3.643 -1.4345 -0.1119 -0.3729
 7804SOL    HW224854   6.103   1.638   3.612 -0.6443  0.4963 -0.3519
 7805SOL     OW24855   7.866   7.148   1.012 -0.5319  0.0510 -0.0461
 7805SOL    HW124856   7.789   7.138   0.955 -0.0322 -2.8840 -0.3742
 7805SOL    HW224857   7.939   7.159   0.951 -0.2895 -0.6803  0.1044
 7806SOL     OW24858   1.928   6.640  11.455  0.1335  0.2480 -0.1207
 7806SOL    HW124859   1.936   6.726  11.495  0.9947 -0.0122  0.2845
 7806SOL    HW224860   1.889   6.657  11.369 -0.7375  0.9183  0.3915
 7807SOL     OW24861   1.331   0.513   8.176 -0.1653  0.6655  0.1775
 7807SOL    HW124862   1.426   0.500   8.183 -0.4067 -1.8028 -0.2254
 7807SOL    HW224863   1.309   0.485   8.088 -1.2566  1.6134  0.1182
 7808SOL     OW24864   5.374   2.186   2.849  0.0879  0.2844  0.0626
 7808SOL    HW124865   5.362   2.183   2.944  0.1659 -2.1234  0.0634
 7808SOL    HW224866   5.286   2.196   2.814 -0.1105 -0.3205  0.3761
 7809SOL     OW24867   5.139   5.556   6.870  0.7834 -0.6046 -0.0716
 7809SOL    HW124868   5.140   5.473   6.918  0.6157 -1.7172 -1.8758
 7809SOL    HW224869   5.050   5.563   6.837  1.5864 -1.4505 -2.6782
 7810SOL     OW24870   3.005   5.928  10.454  0.0258  0.2613 -0.5014
 7810SOL    HW124871   3.074   5.949  10.390  1.1149  2.4254  1.2143
 7810SOL    HW224872   3.042   5.858  10.507  0.3347  0.4591 -0.4523
 7811SOL     OW24873   7.612   5.548   2.107 -0.2088 -0.0187 -0.1782
 7811SOL    HW124874   7.682   5.483   2.108  0.3826  0.5623 -1.4493
 7811SOL    HW224875   7.545   5.510   2.051 -0.7347 -0.3881  0.6925
 7812SOL     OW24876   7.303   6.931   7.681 -0.1549 -0.0555 -0.6467
 7812SOL    HW124877   7.208   6.944   7.678 -0.5075 -1.9057  0.5732
 7812SOL    HW224878   7.318   6.855   7.625  1.0075  1.7993 -2.9784
 7813SOL     OW24879   0.454   0.630   9.193  0.0711  0.8169 -0.3768
 7813SOL    HW124880   0.450   0.535   9.181  0.6944  0.7816 -0.3348
 7813SOL    HW224881   0.362   0.657   9.202 -0.0511 -0.2812  3.5047
 7814SOL     OW24882   6.892   2.895  11.275 -0.0187 -0.1939  0.2169
 7814SOL    HW124883   6.878   2.950  11.352  0.8429  0.1930  0.1049
 7814SOL    HW224884   6.976   2.852  11.290  1.1119  1.3379 -1.3275
 7815SOL     OW24885   7.430   6.119  10.551  0.3664  0.3142  0.5160
 7815SOL    HW124886   7.494   6.172  10.503  1.4169  0.1253  1.6555
 7815SOL    HW224887   7.347   6.166  10.542  0.9769  1.3551  0.2533
 7816SOL     OW24888   4.095   0.426   9.517 -0.0187 -0.2677 -0.0671
 7816SOL    HW124889   4.109   0.481   9.594  0.0165 -0.4215  0.0361
 7816SOL    HW224890   4.173   0.370   9.512  1.0315  1.2056 -1.4466
 7817SOL     OW24891   0.618   1.461   8.133 -0.1527 -0.5655 -0.4489
 7817SOL    HW124892   0.567   1.382   8.150 -0.3585 -0.1902  0.7481
 7817SOL    HW224893   0.576   1.501   8.056  0.4485 -2.0166 -1.5796
 7818SOL     OW24894   5.547   6.702   7.425 -0.3314 -0.5564 -0.0667
 7818SOL    HW124895   5.542   6.718   7.519  1.7695 -0.2462  0.0588
 7818SOL    HW224896   5.552   6.607   7.416  0.7255 -0.5434  0.2585
 7819SOL     OW24897   4.797   1.898   9.967 -0.0146  0.2706  0.2757
 7819SOL    HW124898   4.799   1.939   9.881  2.1286  0.9315  0.5734
 7819SOL    HW224899   4.710   1.919  10.002 -1.0872 -0.3694 -1.8400
 7820SOL     OW24900   6.642   2.639   3.611 -0.1630 -0.2483 -0.1368
 7820SOL    HW124901   6.622   2.670   3.523  1.1158 -0.8346 -0.6632
 7820SOL    HW224902   6.683   2.554   3.598  2.9529  0.9536  0.7392
 7821SOL     OW24903   1.563   7.598  10.530  0.1969 -0.3853 -0.1240
 7821SOL    HW124904   1.512   7.616  10.608  1.2734  0.2663  0.4578
 7821SOL    HW224905   1.534   7.511  10.501 -1.2573 -0.0059  0.1352
 7822SOL     OW24906   6.965   0.394  12.243  0.1570  0.1027 -0.1980
 7822SOL    HW124907   6.913   0.442  12.178  0.4665  0.3102 -0.2958
 7822SOL    HW224908   6.906   0.325  12.274 -0.0779  0.1519 -0.5205
 7823SOL     OW24909   2.068   4.372   4.062  0.4194 -0.1276  0.5303
 7823SOL    HW124910   2.131   4.333   4.002 -0.1565 -0.3799  0.0779
 7823SOL    HW224911   2.056   4.306   4.130 -0.0032 -0.4375  0.1560
 7824SOL     OW24912   6.103   6.978  10.268  0.2583 -0.4368  0.0885
 7824SOL    HW124913   6.028   6.950  10.319  0.5883  0.0277  0.8492
 7824SOL    HW224914   6.078   7.065  10.234  0.1913 -0.5767 -0.2283
 7825SOL     OW24915   6.471   0.779  10.757  0.3611  0.6657  0.3354
 7825SOL    HW124916   6.507   0.866  10.771 -0.1738  1.0192 -0.4566
 7825SOL    HW224917   6.548   0.722  10.752  0.9266  1.5154 -2.0996
 7826SOL     OW24918   7.438   2.859   0.610  0.0257  0.6665 -0.1820
 7826SOL    HW124919   7.458   2.938   0.661 -1.1012  1.5887 -1.0940
 7826SOL    HW224920   7.489   2.869   0.529  2.4545 -1.1887  1.0071
 7827SOL     OW24921   3.062   4.135  10.296  0.5261  0.3393  0.9886
 7827SOL    HW124922   2.987   4.153  10.353  2.2211  1.1992  3.0901
 7827SOL    HW224923   3.026   4.137  10.208 -1.9380  0.5941  1.9135
 7828SOL     OW24924   1.529   1.978  11.731  0.5030  0.0548 -0.0676
 7828SOL    HW124925   1.531   2.073  11.735  1.3325  0.0747 -0.8475
 7828SOL    HW224926   1.532   1.950  11.823  2.7864  0.7448  0.1198
 7829SOL     OW24927   5.495   4.706   5.131  0.0460  0.1198  0.1584
 7829SOL    HW124928   5.522   4.762   5.058  2.3787 -3.1646 -1.7941
 7829SOL    HW224929   5.526   4.753   5.209  1.7897  1.6051 -1.3203
 7830SOL     OW24930   6.755   5.889   0.467 -0.0391  0.0670 -0.1309
 7830SOL    HW124931   6.751   5.825   0.538  0.2289 -0.9206 -0.9790
 7830SOL    HW224932   6.664   5.908   0.446 -0.1997 -2.0381 -1.5946
 7831SOL     OW24933   4.941   5.230  10.442 -0.3973  0.0707 -0.0913
 7831SOL    HW124934   4.974   5.265  10.525 -0.0905 -2.5061  0.9414
 7831SOL    HW224935   4.992   5.275  10.375  1.5085  0.0177  1.2582
 7832SOL     OW24936   3.038   1.763   3.580  0.2926 -0.1817  0.3070
 7832SOL    HW124937   3.077   1.751   3.666  2.1716 -0.8055 -0.5681
 7832SOL    HW224938   3.076   1.844   3.546 -0.2109 -0.0847 -0.0444
 7833SOL     OW24939   6.450   4.203   0.399  0.5070 -0.0330  0.2470
 7833SOL    HW124940   6.433   4.179   0.308  1.9386  0.9732 -0.3195
 7833SOL    HW224941   6.365   4.234   0.431  0.2996  1.1032 -1.2459
 7834SOL     OW24942   1.610   1.308   2.157  0.2040 -0.0581  0.1589
 7834SOL    HW124943   1.706   1.306   2.151  0.3332  0.8168  1.4540
 7834SOL    HW224944   1.591   1.281   2.247 -0.9423 -2.6966 -0.7774
 7835SOL     OW24945   1.761   6.604   8.704 -0.5874 -0.5585 -0.1798
 7835SOL    HW124946   1.791   6.562   8.623 -0.4790 -0.0975 -0.3826
 7835SOL    HW224947   1.798   6.692   8.700  1.1548 -1.1514  1.3504
 7836SOL     OW24948   5.205   3.834   4.705 -0.3000  0.2607 -0.4800
 7836SOL    HW124949   5.203   3.886   4.625  0.9654  2.0311  0.5586
 7836SOL    HW224950   5.121   3.851   4.747 -1.4966 -1.6768 -1.9699
 7837SOL     OW24951   4.022   2.071   8.383 -0.3723 -0.0293 -0.4630
 7837SOL    HW124952   4.038   2.147   8.327  0.4286  1.0021  1.0815
 7837SOL    HW224953   4.059   1.997   8.335 -0.3865  0.6810 -1.6073
 7838SOL     OW24954   2.260   6.978  10.111  0.1324 -0.3120  0.0293
 7838SOL    HW124955   2.187   6.921  10.085 -0.1985 -0.3699  1.0624
 7838SOL    HW224956   2.337   6.923  10.106  0.0352 -0.4113 -0.4970
 7839SOL     OW24957   1.944   4.669   7.235  0.4059  1.1245 -0.1049
 7839SOL    HW124958   2.005   4.595   7.237 -0.5759  0.2622 -0.5546
 7839SOL    HW224959   1.886   4.654   7.309 -2.3396 -0.9012 -2.4211
 7840SOL     OW24960   6.303   5.020   5.771 -0.4749  0.4620 -0.0631
 7840SOL    HW124961   6.393   5.047   5.788 -0.8095  1.3378  0.3882
 7840SOL    HW224962   6.251   5.068   5.835 -1.4515  1.4407 -1.5151
 7841SOL     OW24963   2.695   7.294   3.402 -0.0094 -0.3969 -0.0871
 7841SOL    HW124964   2.602   7.303   3.384  0.2452 -0.4475 -1.5610
 7841SOL    HW224965   2.700   7.228   3.472 -1.1507  0.9621  1.3564
 7842SOL     OW24966   2.345   7.708   2.881 -0.5680 -0.2394  0.1370
 7842SOL    HW124967   2.433   7.692   2.845 -0.5679  0.9467 -0.4244
 7842SOL    HW224968   2.315   7.787   2.837 -2.3510 -1.1814 -0.4255
 7843SOL     OW24969   4.381   6.416   7.829  0.4125  0.0440  0.3207
 7843SOL    HW124970   4.437   6.421   7.752  0.7276  0.2438  0.5616
 7843SOL    HW224971   4.440   6.389   7.899  0.3519  0.9842  0.7337
 7844SOL     OW24972   3.266   3.638   2.087  0.3721  0.3552 -0.1426
 7844SOL    HW124973   3.293   3.654   2.178 -0.7761  0.1103  0.2473
 7844SOL    HW224974   3.287   3.546   2.071 -3.1652 -0.8634  1.2748
 7845SOL     OW24975   3.562   1.528   2.572  0.2136  0.2150  0.5653
 7845SOL    HW124976   3.579   1.501   2.662 -2.7159 -1.5429  0.7078
 7845SOL    HW224977   3.530   1.618   2.579  1.8716  0.8017  1.0153
 7846SOL     OW24978   2.381   6.246   8.874  0.2342 -0.0616  0.1305
 7846SOL    HW124979   2.288   6.226   8.888 -0.2401  1.4137 -0.6554
 7846SOL    HW224980   2.411   6.181   8.811 -0.8825  0.7759 -1.3312
 7847SOL     OW24981   4.819   4.394  12.461  0.0320 -0.0480  0.2656
 7847SOL    HW124982   4.838   4.321  12.520  1.0683  0.4522  0.5808
 7847SOL    HW224983   4.893   4.453  12.472 -0.6078  0.8778 -0.2608
 7848SOL     OW24984   7.917   4.618   4.772  0.0515  0.0741  0.3431
 7848SOL    HW124985   7.920   4.534   4.818  0.9999  0.3420  0.7929
 7848SOL    HW224986   7.907   4.683   4.841  1.5262  0.4822  0.2046
 7849SOL     OW24987   6.277   2.949   7.391 -0.0149 -0.2477  0.6172
 7849SOL    HW124988   6.324   2.874   7.426  0.4605 -1.4760 -2.3548
 7849SOL    HW224989   6.337   2.989   7.329 -0.5988  2.1173  1.4545
 7850SOL     OW24990   4.315   5.347   4.130 -0.8742  0.2798 -0.0923
 7850SOL    HW124991   4.316   5.437   4.163 -0.5917  0.6403 -1.0595
 7850SOL    HW224992   4.336   5.355   4.037  0.2622 -0.8761  0.0288
 7851SOL     OW24993   3.382   5.521   6.512 -0.6120 -0.1260  0.0199
 7851SOL    HW124994   3.391   5.616   6.505  0.1981 -0.3351 -3.4229
 7851SOL    HW224995   3.471   5.488   6.511 -0.8788 -0.9930  1.4427
 7852SOL     OW24996   7.120   2.538   1.738  0.1411  0.4605 -0.1039
 7852SOL    HW124997   7.073   2.619   1.759  0.5030  1.0559 -1.4547
 7852SOL    HW224998   7.172   2.519   1.816 -1.6501  0.2500  1.1190
 7853SOL     OW24999   4.270   0.416   4.720 -0.8408  0.6845 -0.2249
 7853SOL    HW125000   4.357   0.423   4.759 -0.9758 -0.3427  0.2815
 7853SOL    HW225001   4.268   0.330   4.679 -1.6674  0.6378 -0.1140
 7854SOL     OW25002   4.538   6.389   8.308 -0.6847 -0.5438 -0.4236
 7854SOL    HW125003   4.625   6.400   8.347 -0.7776 -2.7004  0.5508
 7854SOL    HW225004   4.491   6.469   8.330  1.1345  0.8441 -1.3048
 7855SOL     OW25005   5.979   7.174   5.977  0.3286  0.6676 -0.2928
 7855SOL    HW125006   5.992   7.188   6.070  0.5185  0.2939 -0.2622
 7855SOL    HW225007   6.062   7.198   5.936  0.6228 -0.2417 -0.2502
 7856SOL     OW25008   1.544   3.214   1.576 -0.3777 -0.0898 -0.1020
 7856SOL    HW125009   1.451   3.200   1.562 -0.1507 -1.6557 -0.1284
 7856SOL    HW225010   1.549   3.251   1.665 -1.0333  0.2553 -0.2049
 7857SOL     OW25011   6.630   3.557   5.976  0.4635  0.1590  0.0199
 7857SOL    HW125012   6.539   3.534   5.997  0.6178 -1.1616 -0.6497
 7857SOL    HW225013   6.637   3.541   5.882  1.3881  0.2343  0.0742
 7858SOL     OW25014   1.145   3.468   0.753 -0.1272  0.1229 -0.4223
 7858SOL    HW125015   1.212   3.530   0.782 -0.3658  0.8358 -1.3591
 7858SOL    HW225016   1.185   3.421   0.680 -0.6423  0.5580 -0.9926
 7859SOL     OW25017   4.460   7.892   9.517  0.1456  0.2094 -0.2711
 7859SOL    HW125018   4.542   7.937   9.498  0.3054 -0.2564 -0.7042
 7859SOL    HW225019   4.393   7.949   9.480  0.2030  0.9653  0.7390
 7860SOL     OW25020   5.699   4.860  11.591 -0.6369  0.0699 -0.7687
 7860SOL    HW125021   5.606   4.856  11.613 -0.3323 -0.6490  0.5219
 7860SOL    HW225022   5.721   4.954  11.596 -0.7063  0.0294  1.7772
 7861SOL     OW25023   5.680   3.911   2.522 -0.2949 -0.0791  0.0874
 7861SOL    HW125024   5.673   3.918   2.617  0.8225 -0.0823  0.1928
 7861SOL    HW225025   5.602   3.954   2.489  1.0711  3.3950  0.9447
 7862SOL     OW25026   2.043   6.166   7.715 -0.3265  0.6478  0.4617
 7862SOL    HW125027   1.979   6.191   7.648  1.2125  2.4229 -0.4583
 7862SOL    HW225028   2.120   6.219   7.694  1.9108 -2.2359  0.7709
 7863SOL     OW25029   7.947   6.109   4.623  0.3264 -0.3412  0.1705
 7863SOL    HW125030   7.897   6.189   4.640 -1.2562 -1.0172 -1.0516
 7863SOL    HW225031   7.912   6.046   4.686  0.0613 -0.6500 -0.2826
 7864SOL     OW25032   6.631   5.530   2.634 -0.1173 -0.3132  0.0512
 7864SOL    HW125033   6.590   5.463   2.689 -0.8538 -1.0663 -1.3611
 7864SOL    HW225034   6.713   5.490   2.605  1.4146  0.9450  2.3471
 7865SOL     OW25035   1.611   0.547   4.550 -0.2601 -0.4473 -0.1834
 7865SOL    HW125036   1.518   0.530   4.557 -0.1618 -0.4991  1.5495
 7865SOL    HW225037   1.638   0.571   4.639  1.2682  0.1184 -0.7554
 7866SOL     OW25038   3.997   2.848   1.320 -0.5257 -0.0789 -0.1145
 7866SOL    HW125039   3.943   2.771   1.339 -1.8060 -0.0926 -3.1762
 7866SOL    HW225040   4.079   2.832   1.367 -1.0960 -2.8383  0.1288
 7867SOL     OW25041   7.022   0.606   5.025 -0.4959  0.1862  0.2037
 7867SOL    HW125042   6.934   0.569   5.036 -0.9954  0.8518 -1.2751
 7867SOL    HW225043   7.011   0.699   5.044 -0.1256  0.2823 -0.0487
 7868SOL     OW25044   6.233   1.641   7.009 -0.1692  0.1506  0.2804
 7868SOL    HW125045   6.269   1.619   6.923 -1.8406  0.0210 -0.4304
 7868SOL    HW225046   6.197   1.559   7.042  0.9913  0.0677  1.3982
 7869SOL     OW25047   4.232   1.692   5.298  0.0377 -0.5265  0.1989
 7869SOL    HW125048   4.286   1.653   5.230 -0.6172  0.0068 -0.6402
 7869SOL    HW225049   4.293   1.743   5.351  0.5513 -0.9541  0.0199
 7870SOL     OW25050   2.729   0.666   2.420 -0.6340 -0.4350  0.2655
 7870SOL    HW125051   2.713   0.575   2.443  1.1190 -1.1471 -1.1196
 7870SOL    HW225052   2.649   0.712   2.448 -2.0500 -2.5478 -0.0633
 7871SOL     OW25053   0.881   1.520   7.589  0.0707 -0.0668 -0.0224
 7871SOL    HW125054   0.886   1.450   7.524 -0.6556 -1.0946  0.9760
 7871SOL    HW225055   0.877   1.474   7.673 -1.8129  1.1072  0.5956
 7872SOL     OW25056   4.733   6.203   7.257  0.3089  0.5248 -0.2909
 7872SOL    HW125057   4.688   6.135   7.206  0.4335  1.1767 -1.3063
 7872SOL    HW225058   4.676   6.280   7.250  1.5582  1.3871 -1.6614
 7873SOL     OW25059   3.994   2.436  10.210 -0.0117 -0.4361  0.4224
 7873SOL    HW125060   3.989   2.410  10.118 -0.3119  1.5345 -0.1632
 7873SOL    HW225061   4.073   2.490  10.215 -1.1422  1.3003  0.7655
 7874SOL     OW25062   7.571   1.199  11.411 -0.3894  0.1091  0.0015
 7874SOL    HW125063   7.611   1.286  11.410 -0.3176  0.0940 -1.6289
 7874SOL    HW225064   7.575   1.170  11.319  1.1706 -2.3397  0.7490
 7875SOL     OW25065   0.543   6.213   7.128 -0.5257 -0.3601  0.3053
 7875SOL    HW125066   0.595   6.157   7.186  0.6018 -1.2940 -1.5229
 7875SOL    HW225067   0.455   6.214   7.167  0.2086 -0.8729  2.0414
 7876SOL     OW25068   0.826   0.025  12.012 -0.3895  0.3010  0.1628
 7876SOL    HW125069   0.808  -0.057  12.058 -1.1181  0.5542  0.3264
 7876SOL    HW225070   0.740   0.064  11.996 -0.0457  1.0548  0.1146
 7877SOL     OW25071   6.708   5.444   8.796 -0.4273 -0.1032  0.5178
 7877SOL    HW125072   6.697   5.426   8.703 -0.9267  0.1778  0.5150
 7877SOL    HW225073   6.766   5.375   8.828  1.2764  0.8723 -0.3624
 7878SOL     OW25074   5.770   5.875   5.025  0.4268 -0.4838 -0.1496
 7878SOL    HW125075   5.733   5.896   4.939  0.1867 -0.2148  0.0205
 7878SOL    HW225076   5.863   5.897   5.016  0.3351 -0.1179 -0.2328
 7879SOL     OW25077   5.606   4.294   9.107 -0.0902 -0.0831 -0.6413
 7879SOL    HW125078   5.586   4.273   9.016  1.0747 -0.5814 -0.8020
 7879SOL    HW225079   5.597   4.389   9.112  0.1810 -0.0093 -1.3812
 7880SOL     OW25080   5.665   5.337   1.594  0.3295  0.6255 -0.1820
 7880SOL    HW125081   5.682   5.255   1.641  0.2955  1.5209  1.4827
 7880SOL    HW225082   5.597   5.315   1.531 -0.2914 -0.4471  0.8265
 7881SOL     OW25083   5.795   7.045   4.142  0.1404  0.2929  0.4799
 7881SOL    HW125084   5.839   6.992   4.075  0.4659  1.0772  0.0590
 7881SOL    HW225085   5.706   7.054   4.110  0.1380  0.1665  0.4497
 7882SOL     OW25086   0.454   0.114   2.690 -0.2178 -0.4953  0.2119
 7882SOL    HW125087   0.446   0.109   2.594  1.4555  1.5633 -0.1154
 7882SOL    HW225088   0.527   0.057   2.711 -2.0105 -2.7998  0.6392
 7883SOL     OW25089   6.049   6.245   6.418  0.0686  0.3624 -0.2535
 7883SOL    HW125090   5.988   6.313   6.447  1.0977  2.5851 -2.8507
 7883SOL    HW225091   6.136   6.284   6.430  0.8445 -1.4305  0.2487
 7884SOL     OW25092   2.209   4.157   9.709 -0.4856 -0.4860 -0.3899
 7884SOL    HW125093   2.214   4.253   9.710  0.9716 -0.5456  1.3728
 7884SOL    HW225094   2.189   4.136   9.617 -0.8492  1.4848 -0.8189
 7885SOL     OW25095   2.178   7.172   6.241  0.1737  0.4878 -0.0896
 7885SOL    HW125096   2.130   7.105   6.192  0.2915 -0.2383  0.7680
 7885SOL    HW225097   2.267   7.167   6.205  0.0392  0.5978 -0.4419
 7886SOL     OW25098   7.295   5.281   7.235 -0.0020  0.0668  0.1593
 7886SOL    HW125099   7.319   5.357   7.181 -0.3194  0.1990  0.2049
 7886SOL    HW225100   7.326   5.304   7.323  0.2493 -0.0230  0.0945
 7887SOL     OW25101   1.859   3.630   6.413  0.5743  0.0944 -0.1699
 7887SOL    HW125102   1.804   3.648   6.489 -0.2906 -2.6977  0.0071
 7887SOL    HW225103   1.925   3.569   6.446  1.0111 -0.0862 -1.3423
 7888SOL     OW25104   6.556   6.275   6.973  0.0170 -0.2513  0.0147
 7888SOL    HW125105   6.489   6.236   6.916 -1.7847 -1.9748  3.0349
 7888SOL    HW225106   6.514   6.353   7.009  1.0717  0.7329 -0.8416
 7889SOL     OW25107   4.919   4.285   9.520  0.1610  0.0433  0.4664
 7889SOL    HW125108   4.963   4.323   9.444 -1.1620  2.3608  0.7323
 7889SOL    HW225109   4.835   4.255   9.486  1.1629 -2.8552  0.2749
 7890SOL     OW25110   6.089   7.709  11.094 -0.1494  0.1160  0.1874
 7890SOL    HW125111   6.156   7.664  11.146  1.1796  1.4381 -0.3437
 7890SOL    HW225112   6.082   7.657  11.014  1.0715  0.6152 -0.2454
 7891SOL     OW25113   4.937   1.600   1.501 -0.1479 -0.0305  0.0333
 7891SOL    HW125114   4.927   1.516   1.457 -0.7802 -0.6364  1.2720
 7891SOL    HW225115   4.867   1.655   1.465  0.8031  0.2827 -1.4151
 7892SOL     OW25116   1.231   4.483   4.001 -0.6217 -0.4162 -0.1233
 7892SOL    HW125117   1.135   4.487   4.006 -0.6703  0.2603 -1.2058
 7892SOL    HW225118   1.249   4.429   3.924 -0.1023 -1.4209  0.6749
 7893SOL     OW25119   6.875   4.827   7.900 -0.3501  0.0553  0.1254
 7893SOL    HW125120   6.881   4.787   7.987  0.5220  2.6151  1.3214
 7893SOL    HW225121   6.959   4.806   7.858 -0.2318 -0.0365  0.4093
 7894SOL     OW25122   2.467   5.355   3.024  0.5736  0.0137  0.1460
 7894SOL    HW125123   2.403   5.339   3.094 -0.7026 -1.2371 -1.2394
 7894SOL    HW225124   2.535   5.408   3.066 -1.0664  0.9071  1.8282
 7895SOL     OW25125   0.214   0.865   8.676 -0.5619 -0.2163 -0.0448
 7895SOL    HW125126   0.188   0.874   8.768 -3.0812  2.0354 -0.8412
 7895SOL    HW225127   0.165   0.788   8.645 -1.4731  0.3359 -0.0099
 7896SOL     OW25128   0.262   1.542   5.998  0.0513  0.2097  0.1866
 7896SOL    HW125129   0.260   1.625   6.044 -1.6281 -0.4322  1.3897
 7896SOL    HW225130   0.212   1.482   6.054 -1.4848 -0.8028 -2.1152
 7897SOL     OW25131   0.562   3.371   7.116 -0.5166  0.1064 -0.5571
 7897SOL    HW125132   0.571   3.460   7.081 -0.2771 -0.3017 -1.5657
 7897SOL    HW225133   0.642   3.326   7.089 -0.7377 -0.4800 -0.2558
 7898SOL     OW25134   1.989   0.505  10.634  0.0496 -0.2589 -0.8958
 7898SOL    HW125135   1.905   0.479  10.595 -0.7342 -0.0738  0.5679
 7898SOL    HW225136   1.998   0.448  10.711  0.5659  0.6800 -0.2417
 7899SOL     OW25137   4.699   6.872   6.652 -0.1848  0.1880  1.1371
 7899SOL    HW125138   4.660   6.930   6.718  1.8455  1.1199  1.6105
 7899SOL    HW225139   4.757   6.814   6.702  1.0039  0.5806  0.2733
 7900SOL     OW25140   0.177   3.254   9.305  0.6972  0.0470  0.0170
 7900SOL    HW125141   0.213   3.194   9.369  1.9941 -0.5706 -1.2487
 7900SOL    HW225142   0.218   3.229   9.222 -0.5705  1.1150 -0.9834
 7901SOL     OW25143   3.022   4.868   5.723  0.3680 -0.0367  0.2347
 7901SOL    HW125144   3.068   4.912   5.652 -0.5565 -0.2515 -0.5208
 7901SOL    HW225145   2.942   4.921   5.736 -0.2129 -0.8554  0.0623
 7902SOL     OW25146   4.737   4.101   0.420 -0.3287 -0.3533 -0.3983
 7902SOL    HW125147   4.795   4.119   0.494 -1.1357 -2.1114  0.7287
 7902SOL    HW225148   4.648   4.114   0.455 -0.7138 -0.9292 -1.1256
 7903SOL     OW25149   3.520   3.727   2.016 -0.0043 -0.1748 -0.1207
 7903SOL    HW125150   3.546   3.670   2.088 -0.4129  0.6781  0.7176
 7903SOL    HW225151   3.425   3.731   2.021  0.0034  0.3948 -0.3063
 7904SOL     OW25152   4.529   4.605  11.476 -0.1602  0.1736 -0.0662
 7904SOL    HW125153   4.520   4.700  11.487  0.0906  0.3832 -1.4248
 7904SOL    HW225154   4.543   4.593  11.382  1.4120 -1.0857  0.2816
 7905SOL     OW25155   5.533   4.711  11.099  0.1564 -0.3246  0.5908
 7905SOL    HW125156   5.600   4.662  11.052  0.2873  0.3396  0.0695
 7905SOL    HW225157   5.549   4.692  11.191  0.9406 -0.3278  0.4588
 7906SOL     OW25158   2.150   4.436   0.772 -0.1987  0.0872 -0.2568
 7906SOL    HW125159   2.159   4.531   0.764 -1.5610  0.2168 -0.6197
 7906SOL    HW225160   2.056   4.422   0.784  0.2201 -1.0560  2.4681
 7907SOL     OW25161   1.255   3.622   1.262  0.0915  0.0653  0.1478
 7907SOL    HW125162   1.185   3.603   1.200 -0.7818 -2.1113  1.6537
 7907SOL    HW225163   1.335   3.604   1.214 -0.4560  0.4123 -0.9357
 7908SOL     OW25164   2.628   5.419   7.835 -0.3484 -0.5299 -0.3480
 7908SOL    HW125165   2.591   5.502   7.865  0.3291 -0.1708 -0.4943
 7908SOL    HW225166   2.558   5.355   7.850 -1.0880  0.1559 -0.7490
 7909SOL     OW25167   1.727   2.701   6.644  0.1321 -0.0466 -0.6633
 7909SOL    HW125168   1.732   2.758   6.721 -0.6964  1.3799 -1.6082
 7909SOL    HW225169   1.742   2.760   6.570 -0.5489 -1.1063 -1.6754
 7910SOL     OW25170   6.726   6.477  11.000 -0.1370 -0.2199  0.6013
 7910SOL    HW125171   6.690   6.550  10.949  1.4009  0.9596  1.1114
 7910SOL    HW225172   6.702   6.399  10.951 -2.1522  0.5697  0.2205
 7911SOL     OW25173   2.592   2.843   6.854 -0.3558  0.3484 -0.0980
 7911SOL    HW125174   2.583   2.837   6.950  1.1409  0.8212  0.1051
 7911SOL    HW225175   2.520   2.900   6.827 -0.1461  1.1428  0.9075
 7912SOL     OW25176   6.365   0.565   7.089  0.2041  0.3313  0.3886
 7912SOL    HW125177   6.391   0.502   7.156  1.5989 -0.2630 -0.6442
 7912SOL    HW225178   6.388   0.522   7.006 -2.7343  0.4463 -0.5908
 7913SOL     OW25179   6.155   4.248   8.004 -0.5268  0.1225  0.8044
 7913SOL    HW125180   6.232   4.193   8.019 -0.0451  0.6872  0.4595
 7913SOL    HW225181   6.108   4.247   8.088  0.3006  0.4479  1.2895
 7914SOL     OW25182   4.818   6.090   4.274 -0.1493 -0.5720  0.1543
 7914SOL    HW125183   4.733   6.049   4.255 -0.3465 -0.0955 -0.0131
 7914SOL    HW225184   4.835   6.068   4.366 -0.6767 -0.2909  0.3268
 7915SOL     OW25185   1.356   2.974   8.705 -0.4560 -0.1217  0.2483
 7915SOL    HW125186   1.431   3.016   8.747 -0.7230  0.8165 -0.1673
 7915SOL    HW225187   1.298   2.950   8.778  0.6781 -1.8029  0.6569
 7916SOL     OW25188   6.442   6.204   3.252  0.6009 -0.3041 -0.2928
 7916SOL    HW125189   6.366   6.185   3.308  1.0885 -0.1391  0.4496
 7916SOL    HW225190   6.405   6.222   3.166 -0.3406  1.2329  0.3878
 7917SOL     OW25191   2.693   3.658   5.740  0.3430  0.5739  0.9322
 7917SOL    HW125192   2.695   3.687   5.831  0.3502 -1.6067  1.7013
 7917SOL    HW225193   2.600   3.654   5.718  0.3538  1.4922  0.6864
 7918SOL     OW25194   6.121   3.077   8.359  0.1640 -0.1326  0.2187
 7918SOL    HW125195   6.117   3.094   8.453 -0.0820 -2.0000  0.5709
 7918SOL    HW225196   6.140   3.163   8.321 -0.9289  0.8974  1.8566
 7919SOL     OW25197   7.713   4.856   7.427  0.8948  0.6133 -0.3406
 7919SOL    HW125198   7.695   4.925   7.363  0.6163  0.1326 -0.7749
 7919SOL    HW225199   7.671   4.778   7.393  0.8259  0.3242  0.3800
 7920SOL     OW25200   1.269   7.413   8.144 -0.5338 -0.2075 -0.3121
 7920SOL    HW125201   1.274   7.400   8.239  0.5896 -0.5541 -0.3948
 7920SOL    HW225202   1.243   7.504   8.133  0.7863  0.2856  0.3620
 7921SOL     OW25203   1.647   7.008   7.832 -0.0945 -0.2259 -0.3965
 7921SOL    HW125204   1.559   7.025   7.866  0.0156  1.7712 -0.9364
 7921SOL    HW225205   1.701   7.077   7.872  0.9568 -0.6510 -1.0545
 7922SOL     OW25206   2.070   1.668   3.241 -0.5156  0.2607  0.1354
 7922SOL    HW125207   2.043   1.677   3.332  0.0922 -0.3085  0.3827
 7922SOL    HW225208   2.028   1.587   3.212 -0.8930  0.5615 -0.1610
 7923SOL     OW25209   4.565   2.042   1.139 -0.2383  0.1175  0.2143
 7923SOL    HW125210   4.608   1.957   1.153 -0.2740 -0.0649 -0.7148
 7923SOL    HW225211   4.584   2.064   1.048 -1.8249  0.1925 -0.1376
 7924SOL     OW25212   6.948   5.747   5.331 -0.3134  0.1128  1.0815
 7924SOL    HW125213   6.995   5.664   5.334  1.6216  0.5776 -4.4233
 7924SOL    HW225214   6.857   5.722   5.314  0.1606 -0.9418 -0.0691
 7925SOL     OW25215   6.914   4.370  11.015 -0.3200 -0.5114 -0.1687
 7925SOL    HW125216   6.917   4.316  11.094  0.9303  0.8016  0.7307
 7925SOL    HW225217   6.943   4.311  10.945  1.6789 -0.8616  0.8938
 7926SOL     OW25218   4.109   2.528   9.202 -0.0214  0.2635  0.0484
 7926SOL    HW125219   4.111   2.621   9.226 -0.9780  0.2393  0.2939
 7926SOL    HW225220   4.060   2.526   9.120 -1.3886 -0.1550  0.8405
 7927SOL     OW25221   1.078   6.543  10.365  0.3080 -0.4430 -0.3515
 7927SOL    HW125222   1.122   6.544  10.450 -0.1463 -1.3720 -0.0992
 7927SOL    HW225223   1.126   6.477  10.314 -0.2510 -0.8358 -0.3692
 7928SOL     OW25224   3.776   7.184   1.054  0.0414 -0.2069  0.2449
 7928SOL    HW125225   3.746   7.188   0.963  1.3306  1.3238 -0.1606
 7928SOL    HW225226   3.709   7.231   1.103  1.0864  2.1606 -0.4797
 7929SOL     OW25227   3.517   6.186   8.493  0.4453  0.1849  0.2419
 7929SOL    HW125228   3.528   6.281   8.502  0.4558  0.0585  1.9608
 7929SOL    HW225229   3.606   6.151   8.497  0.4985  0.1305 -1.1014
 7930SOL     OW25230   5.567   6.521   6.102 -0.7874 -0.3545 -0.2980
 7930SOL    HW125231   5.626   6.476   6.163 -0.1087 -0.5462 -1.0890
 7930SOL    HW225232   5.624   6.564   6.040 -1.4515  0.9943 -0.0153
 7931SOL     OW25233   1.480   1.958  11.099 -0.2412  0.0944  0.2741
 7931SOL    HW125234   1.563   2.005  11.106  0.4379 -0.7809 -1.4547
 7931SOL    HW225235   1.485   1.911  11.016 -1.9215 -1.0595  0.7642
 7932SOL     OW25236   7.588   4.143   5.455 -0.0893 -0.0761 -0.2475
 7932SOL    HW125237   7.660   4.204   5.470 -0.8186  0.6497  0.4124
 7932SOL    HW225238   7.510   4.198   5.456 -0.6709 -0.8708 -0.7976
 7933SOL     OW25239   4.287   1.855   0.778  0.2788  0.2324 -0.0012
 7933SOL    HW125240   4.337   1.797   0.835  0.0549  0.2311  0.1933
 7933SOL    HW225241   4.332   1.939   0.784 -1.3102  1.0218  2.3598
 7934SOL     OW25242   5.027   7.456  11.394 -0.2053 -0.0018 -0.1670
 7934SOL    HW125243   4.977   7.483  11.317  0.3948  0.3183 -0.4468
 7934SOL    HW225244   4.986   7.502  11.467 -0.5626 -0.0422 -0.3396
 7935SOL     OW25245   2.109   0.833   3.335  0.5016  0.6488  0.1414
 7935SOL    HW125246   2.155   0.750   3.349 -0.6569  0.1960  1.4879
 7935SOL    HW225247   2.136   0.860   3.247  0.7492 -1.2501 -0.4261
 7936SOL     OW25248   4.791   2.139  10.986  0.4145 -0.3936  0.1505
 7936SOL    HW125249   4.743   2.080  10.927  0.4765 -0.7438  0.4522
 7936SOL    HW225250   4.805   2.217  10.933  2.3722 -1.4931 -1.0715
 7937SOL     OW25251   6.708   1.689   5.563  0.1978 -0.2450 -0.0625
 7937SOL    HW125252   6.636   1.633   5.591 -0.5684  0.6073 -0.2567
 7937SOL    HW225253   6.742   1.726   5.644  1.2132 -1.5497  0.1387
 7938SOL     OW25254   4.910   2.981  10.224 -0.3094  0.1191 -0.1508
 7938SOL    HW125255   4.908   3.030  10.142 -1.2199  1.2821  0.5375
 7938SOL    HW225256   4.999   2.944  10.228  0.9347  2.8643 -0.0825
 7939SOL     OW25257   4.509   7.492   3.559  0.7232  0.5639 -0.4888
 7939SOL    HW125258   4.486   7.407   3.594  1.0900  1.1588  1.2966
 7939SOL    HW225259   4.427   7.540   3.556  0.3718 -0.0701 -2.2684
 7940SOL     OW25260   4.484   1.354   2.738  0.1432 -0.3678  0.6015
 7940SOL    HW125261   4.550   1.422   2.745 -1.3685  1.2526 -0.0744
 7940SOL    HW225262   4.506   1.291   2.807  1.6061  0.7726  1.2212
 7941SOL     OW25263   4.760   7.936  11.692 -0.1188 -0.4998  0.0930
 7941SOL    HW125264   4.852   7.965  11.697 -0.1810  0.3996 -2.6020
 7941SOL    HW225265   4.764   7.855  11.643 -0.7632 -0.6040  0.2135
 7942SOL     OW25266   6.044   3.876  11.757  0.4891  0.3463 -0.3432
 7942SOL    HW125267   6.020   3.964  11.729 -2.8153 -0.9119 -2.1092
 7942SOL    HW225268   6.092   3.840  11.682  0.7866  0.2727 -0.1175
 7943SOL     OW25269   4.384   7.240   6.756  0.4428  0.1802 -0.0320
 7943SOL    HW125270   4.293   7.267   6.767  0.5710 -0.1179  2.4208
 7943SOL    HW225271   4.378   7.151   6.720 -0.1008  1.2158 -2.6933
 7944SOL     OW25272   6.402   4.499   1.181  0.4516 -0.0210  0.5388
 7944SOL    HW125273   6.365   4.480   1.094  0.0186  0.7906  0.5386
 7944SOL    HW225274   6.354   4.440   1.240 -0.0337  0.2042  0.3764
 7945SOL     OW25275   4.057   7.413   7.103  0.4196  0.3007 -0.1339
 7945SOL    HW125276   4.021   7.480   7.045 -3.1444  0.1886  1.6986
 7945SOL    HW225277   4.099   7.463   7.174  1.5043  0.4639 -0.8626
 7946SOL     OW25278   3.305   0.677   7.638  0.1802 -0.5241  0.1370
 7946SOL    HW125279   3.286   0.645   7.727  0.1317 -3.4216 -0.8103
 7946SOL    HW225280   3.401   0.680   7.635  0.2110 -1.2223  0.0787
 7947SOL     OW25281   3.078   4.874  12.190  0.4000 -0.0133 -0.2078
 7947SOL    HW125282   3.031   4.852  12.270 -0.2248 -0.5713 -0.7088
 7947SOL    HW225283   3.092   4.789  12.147  2.1338  0.1080  0.0625
 7948SOL     OW25284   1.587   5.547  11.863  0.0721 -0.8177  0.3209
 7948SOL    HW125285   1.609   5.466  11.817  1.6567  0.5584 -1.5273
 7948SOL    HW225286   1.609   5.617  11.801 -2.6763  1.0489  1.2204
 7949SOL     OW25287   4.872   2.650   4.602 -0.4977 -0.1061 -0.1132
 7949SOL    HW125288   4.866   2.724   4.663  0.1283  1.9738 -2.4265
 7949SOL    HW225289   4.782   2.638   4.570 -0.4552  0.2329 -0.3641
 7950SOL     OW25290   6.957   5.247   1.003  0.2959 -0.2431 -0.6486
 7950SOL    HW125291   7.011   5.315   0.963 -0.0830 -0.7042 -1.9855
 7950SOL    HW225292   6.879   5.241   0.948  0.4548 -1.9648 -0.7577
 7951SOL     OW25293   7.030   2.780  12.286 -0.2934  0.1988 -0.3550
 7951SOL    HW125294   7.105   2.748  12.337  0.9683  0.9931 -1.6398
 7951SOL    HW225295   7.019   2.871  12.313 -1.7107 -0.2890  0.8263
 7952SOL     OW25296   1.332   4.547   4.246  0.2893 -0.1660 -0.3386
 7952SOL    HW125297   1.298   4.522   4.160 -1.0386 -1.4676  0.5277
 7952SOL    HW225298   1.254   4.564   4.298  1.0994  1.3175  0.4294
 7953SOL     OW25299   5.583   6.663   2.421 -0.4581  0.3134  0.4126
 7953SOL    HW125300   5.609   6.588   2.368 -1.2895  0.6459 -0.5112
 7953SOL    HW225301   5.499   6.637   2.460 -0.8526  0.8217 -0.0781
 7954SOL     OW25302   7.095   6.121   6.679 -0.1877  0.4694  0.1739
 7954SOL    HW125303   7.163   6.075   6.728  0.7001  0.7249 -0.7646
 7954SOL    HW225304   7.141   6.193   6.635 -1.1143  0.8149 -0.2709
 7955SOL     OW25305   3.827   0.513   0.958  0.0899 -0.3631 -0.7334
 7955SOL    HW125306   3.740   0.535   0.992 -0.1063  1.6838 -2.3459
 7955SOL    HW225307   3.887   0.552   1.022 -0.0411 -2.8734  1.0790
 7956SOL     OW25308   4.250   2.105   1.903 -0.1081 -0.3432  0.0316
 7956SOL    HW125309   4.205   2.033   1.948 -0.8903  0.1972  0.1258
 7956SOL    HW225310   4.195   2.123   1.827 -1.3127  1.7985  1.3135
 7957SOL     OW25311   6.575   7.957  10.463 -0.0998 -0.1891  0.3480
 7957SOL    HW125312   6.518   8.018  10.415 -0.2552 -0.9650 -0.4892
 7957SOL    HW225313   6.562   7.873  10.419  2.4292 -0.2052 -0.5098
 7958SOL     OW25314   4.969   1.145   8.195 -0.0780  0.1040  0.1859
 7958SOL    HW125315   4.907   1.192   8.252  0.5573  0.0717  0.9140
 7958SOL    HW225316   4.917   1.121   8.118 -0.7538  0.8250  0.4046
 7959SOL     OW25317   0.515   0.067   1.024  0.8034  0.2006 -0.2976
 7959SOL    HW125318   0.520   0.149   1.074 -0.4045 -1.4177  2.6813
 7959SOL    HW225319   0.607   0.045   1.006  1.3238  0.6667  1.5832
 7960SOL     OW25320   6.168   2.695   8.143 -0.4048 -0.3436  0.2748
 7960SOL    HW125321   6.221   2.740   8.209  0.2967 -3.5629  2.1280
 7960SOL    HW225322   6.081   2.688   8.184 -0.6070 -0.3320 -0.1522
 7961SOL     OW25323   3.355   2.051   9.593 -0.7166 -0.3252 -0.1255
 7961SOL    HW125324   3.394   1.968   9.564 -1.2998 -0.8218  0.5056
 7961SOL    HW225325   3.422   2.117   9.572  0.2396 -1.0954  0.4345
 7962SOL     OW25326   3.452   0.367   5.315  0.6430 -0.0741 -0.1579
 7962SOL    HW125327   3.536   0.404   5.286 -0.3442  2.7312  0.2224
 7962SOL    HW225328   3.463   0.354   5.409  0.4926  0.8766  0.0020
 7963SOL     OW25329   1.514   1.548   5.572  0.5078 -0.2939  0.1185
 7963SOL    HW125330   1.439   1.582   5.621  0.4599 -0.3807  0.1061
 7963SOL    HW225331   1.477   1.521   5.488  0.6521  0.2000 -0.1095
 7964SOL     OW25332   4.029   6.095   8.309  0.6032  0.3389 -0.5441
 7964SOL    HW125333   4.059   6.082   8.219  0.5222  1.8783 -0.8188
 7964SOL    HW225334   4.109   6.110   8.360  0.5043  2.9230 -1.0105
 7965SOL     OW25335   0.967   7.973   4.366 -0.3153 -0.6325 -0.4387
 7965SOL    HW125336   0.982   7.961   4.272 -1.4214 -0.4352 -0.6533
 7965SOL    HW225337   0.893   8.033   4.371  0.5242  0.3576  0.5817
 7966SOL     OW25338   0.025   5.612   7.814 -0.1292 -0.6213 -0.3220
 7966SOL    HW125339  -0.019   5.604   7.898  0.1189  2.9663  0.2915
 7966SOL    HW225340   0.100   5.552   7.821 -0.1447 -0.4588  1.9911
 7967SOL     OW25341   6.439   4.497   7.360  1.0930 -0.4610  0.5300
 7967SOL    HW125342   6.349   4.467   7.347  1.1601 -1.4359  2.0920
 7967SOL    HW225343   6.435   4.591   7.342  0.2190 -0.8021 -1.3812
 7968SOL     OW25344   4.523   3.792   7.795 -0.5077 -0.6028  0.0811
 7968SOL    HW125345   4.557   3.881   7.784  0.1662 -0.9672 -0.9919
 7968SOL    HW225346   4.470   3.795   7.875 -2.4113  1.3485 -1.1425
 7969SOL     OW25347   5.898   6.189   3.362 -0.0404 -0.3997  0.0167
 7969SOL    HW125348   5.858   6.121   3.307 -0.4734  1.7738 -2.6031
 7969SOL    HW225349   5.871   6.168   3.451  0.7500 -4.2029 -0.4834
 7970SOL     OW25350   6.629   6.627   0.656 -0.3312  0.0116  0.3134
 7970SOL    HW125351   6.631   6.568   0.581  0.0754 -0.1071  0.4149
 7970SOL    HW225352   6.697   6.594   0.715  0.3356  0.9578  0.0922
 7971SOL     OW25353   2.556   7.262   0.233  0.1321 -0.1159  0.0221
 7971SOL    HW125354   2.501   7.320   0.285 -0.3673 -0.1971 -0.4102
 7971SOL    HW225355   2.583   7.193   0.293 -0.5752 -0.2966  0.1337
 7972SOL     OW25356   0.548   6.453  10.985 -0.1078  0.4643 -0.1658
 7972SOL    HW125357   0.622   6.418  10.936  0.5663  1.1486  0.3395
 7972SOL    HW225358   0.560   6.548  10.981 -0.9455  0.5833 -0.0512
 7973SOL     OW25359   5.224   7.363   2.464 -0.0913  0.1599 -0.3862
 7973SOL    HW125360   5.226   7.430   2.532 -0.9738 -0.9518  0.7782
 7973SOL    HW225361   5.237   7.280   2.510 -0.4460 -0.5999 -1.5930
 7974SOL     OW25362   2.325   4.417   4.808 -0.0340  0.1627  0.4781
 7974SOL    HW125363   2.329   4.462   4.724 -0.1429 -0.8139 -0.0683
 7974SOL    HW225364   2.236   4.431   4.839 -0.0920  0.2505  0.2691
 7975SOL     OW25365   5.651   4.687  10.254 -0.2191  0.5855 -0.2638
 7975SOL    HW125366   5.613   4.661  10.170  0.8004  1.0640 -0.9039
 7975SOL    HW225367   5.576   4.712  10.308 -1.0016 -1.0873 -0.5298
 7976SOL     OW25368   1.764   4.182  11.172  0.1710 -0.3152 -0.2888
 7976SOL    HW125369   1.856   4.165  11.193  0.0451 -0.4608  0.1478
 7976SOL    HW225370   1.716   4.111  11.215 -0.1972  0.0792 -0.0453
 7977SOL     OW25371   5.183   7.613   8.763  0.3529 -0.3434  0.0838
 7977SOL    HW125372   5.148   7.684   8.816  0.0212  0.1793 -0.8211
 7977SOL    HW225373   5.278   7.617   8.778  0.4110  0.7459 -0.5148
 7978SOL     OW25374   7.140   3.489  10.702  0.4754  0.0982  0.4448
 7978SOL    HW125375   7.049   3.520  10.703 -0.3640 -2.1588  0.0632
 7978SOL    HW225376   7.180   3.535  10.628 -0.6588  0.3455 -0.0382
 7979SOL     OW25377   6.947   7.744   4.001 -0.0110  0.2352  0.0477
 7979SOL    HW125378   6.921   7.785   4.083 -0.6564 -2.1347  1.1075
 7979SOL    HW225379   6.869   7.749   3.946 -0.2722 -0.0915  0.3878
 7980SOL     OW25380   2.439   4.298   7.738  0.0848  0.3973 -0.4869
 7980SOL    HW125381   2.495   4.222   7.722 -2.6090 -1.7871 -0.3782
 7980SOL    HW225382   2.367   4.288   7.676 -0.5197  2.7436 -0.2557
 7981SOL     OW25383   0.693   2.548   3.142  0.1149  0.7431 -0.7063
 7981SOL    HW125384   0.743   2.562   3.062 -0.7479  2.8100 -0.9458
 7981SOL    HW225385   0.757   2.514   3.205  1.2554  1.0289 -1.6808
 7982SOL     OW25386   3.438   7.884   9.136  0.2093 -0.5564  0.2518
 7982SOL    HW125387   3.497   7.940   9.186 -0.3503  0.8537 -0.6034
 7982SOL    HW225388   3.375   7.853   9.201  0.5310 -0.2056  0.7472
 7983SOL     OW25389   2.533   0.312   2.881  1.2731  0.0348 -0.0399
 7983SOL    HW125390   2.619   0.273   2.896  1.3927 -0.0420 -0.8376
 7983SOL    HW225391   2.543   0.359   2.798  0.5142 -0.0793 -0.2003
 7984SOL     OW25392   1.165   2.689  10.364  0.3687 -0.3997 -0.0435
 7984SOL    HW125393   1.077   2.688  10.401 -0.0749 -0.1555 -1.0767
 7984SOL    HW225394   1.174   2.604  10.321  0.4918 -0.2685 -0.2782
 7985SOL     OW25395   1.287   1.311   1.225  0.0178 -0.0354 -0.2383
 7985SOL    HW125396   1.352   1.265   1.173 -0.3364 -1.8215  0.8038
 7985SOL    HW225397   1.204   1.268   1.204 -0.4063  0.4402  0.4156
 7986SOL     OW25398   4.459   5.629   8.894 -0.4114 -0.6379 -0.4775
 7986SOL    HW125399   4.550   5.612   8.918 -0.2839  0.3994 -0.1858
 7986SOL    HW225400   4.409   5.565   8.945 -0.0240  0.4752  1.4124
 7987SOL     OW25401   4.897   7.142   0.432  0.1202 -0.6509 -0.8107
 7987SOL    HW125402   4.831   7.099   0.485  0.7699 -0.0023  0.5872
 7987SOL    HW225403   4.948   7.071   0.394 -0.6591 -1.1300 -0.9837
 7988SOL     OW25404   3.399   3.825  11.088  0.2269  0.0689 -0.7327
 7988SOL    HW125405   3.426   3.859  11.002 -0.4806  1.0136 -0.5922
 7988SOL    HW225406   3.312   3.862  11.102  0.1725 -0.4056  0.2170
 7989SOL     OW25407   0.010   4.609  10.179  0.5105 -0.6468 -0.4154
 7989SOL    HW125408  -0.036   4.630  10.261 -1.6315  1.7771 -2.0633
 7989SOL    HW225409  -0.054   4.560  10.128  0.9090 -0.0439 -1.5340
 7990SOL     OW25410   2.635   1.305  11.764 -0.2942  0.4458 -0.3685
 7990SOL    HW125411   2.559   1.265  11.721  0.6625 -0.5006 -1.2415
 7990SOL    HW225412   2.689   1.230  11.790  0.2168  1.1005  0.4875
 7991SOL     OW25413   6.394   2.707   7.501 -0.0930  0.8246 -0.2215
 7991SOL    HW125414   6.331   2.665   7.442  0.6810  1.3698 -1.4707
 7991SOL    HW225415   6.426   2.635   7.556 -2.6990  0.7298  1.3548
 7992SOL     OW25416   7.599   1.487  10.178  0.2929  0.7837 -0.3314
 7992SOL    HW125417   7.674   1.546  10.173  1.0109 -0.0813  0.1865
 7992SOL    HW225418   7.610   1.440  10.260 -1.2664  1.2382  0.1736
 7993SOL     OW25419   6.334   3.742   0.642  0.1946  0.2040  0.1541
 7993SOL    HW125420   6.295   3.761   0.556  1.4941  0.0500 -0.4890
 7993SOL    HW225421   6.428   3.754   0.629  0.6530 -2.0380  0.9489
 7994SOL     OW25422   0.633   7.915   2.142 -0.3198  0.4406 -0.1362
 7994SOL    HW125423   0.699   7.902   2.074  1.0934 -2.6086  1.6302
 7994SOL    HW225424   0.558   7.863   2.113  0.3436 -0.9942  0.6440
 7995SOL     OW25425   7.441   5.505   5.012  0.1476  0.3046  0.0296
 7995SOL    HW125426   7.387   5.574   4.974 -1.0980 -1.0837 -0.7961
 7995SOL    HW225427   7.486   5.548   5.085 -1.2709  1.7528  0.1053
 7996SOL     OW25428   5.635   0.708   0.527 -0.0180  0.0916  0.0887
 7996SOL    HW125429   5.566   0.647   0.553 -1.0493  0.8577 -0.7569
 7996SOL    HW225430   5.650   0.762   0.605 -0.4777  0.0142  0.2342
 7997SOL     OW25431   5.032   3.063   4.240  0.6115  0.5014  0.3771
 7997SOL    HW125432   4.938   3.068   4.222  0.2741  1.3473  2.2112
 7997SOL    HW225433   5.072   3.117   4.171 -0.3720  1.2873  0.3960
 7998SOL     OW25434   5.183   2.736   7.631 -0.2669 -0.3011  0.0640
 7998SOL    HW125435   5.209   2.699   7.716 -0.0965  0.4893  0.3679
 7998SOL    HW225436   5.182   2.831   7.646  1.0158 -0.0532 -1.1544
 7999SOL     OW25437   5.907   4.202   3.452 -0.4185  0.4748  0.0900
 7999SOL    HW125438   5.877   4.186   3.362 -2.1366  0.9659  0.5301
 7999SOL    HW225439   5.929   4.115   3.485  0.8763  0.3547 -0.9925
 8000SOL     OW25440   6.522   7.058   3.947 -0.2933  0.0402 -0.1338
 8000SOL    HW125441   6.482   7.006   4.016 -0.3717 -0.1273 -0.3068
 8000SOL    HW225442   6.616   7.041   3.956 -0.2580  0.3969  0.2414
 8001SOL     OW25443   3.451   7.429   4.041  0.1256 -0.2555  0.6070
 8001SOL    HW125444   3.375   7.482   4.019  0.1122 -0.4116  0.2634
 8001SOL    HW225445   3.420   7.368   4.108  0.0841  0.0198  0.8402
 8002SOL     OW25446   0.161   2.028   2.198 -0.0776 -0.1145  0.1804
 8002SOL    HW125447   0.180   2.005   2.107  0.5521  0.0743  0.2599
 8002SOL    HW225448   0.088   2.090   2.192  0.5526  0.6081 -0.2641
 8003SOL     OW25449   5.443   6.606   3.147 -0.8932  0.5696 -0.6552
 8003SOL    HW125450   5.387   6.629   3.222 -1.1220 -1.6999 -0.0699
 8003SOL    HW225451   5.530   6.637   3.173 -0.9961 -0.0428  0.5065
 8004SOL     OW25452   1.577   7.094   5.309  0.0022  0.2229  0.1897
 8004SOL    HW125453   1.498   7.090   5.254  0.4994 -0.2209 -0.5214
 8004SOL    HW225454   1.555   7.042   5.386 -0.3838  0.0593 -0.0267
 8005SOL     OW25455   2.847   6.061  11.672 -0.3937  0.0386 -0.0981
 8005SOL    HW125456   2.885   6.104  11.596  0.3399  2.2549  1.4478
 8005SOL    HW225457   2.753   6.061  11.654 -0.2809  1.0023 -0.7916
 8006SOL     OW25458   4.899   0.080   9.021 -0.4139  0.2587  0.0145
 8006SOL    HW125459   4.847   0.157   9.044  0.3721  1.0129 -0.6641
 8006SOL    HW225460   4.967   0.114   8.962  0.7968 -0.7098  0.8114
 8007SOL     OW25461   3.058   4.470   1.027 -0.2813 -0.5232 -0.4913
 8007SOL    HW125462   3.074   4.546   0.970  1.7099 -0.9658 -0.6031
 8007SOL    HW225463   2.963   4.467   1.037 -0.4574  1.5772 -1.0344
 8008SOL     OW25464   6.425   3.506   0.108 -0.2298  0.6228 -0.1759
 8008SOL    HW125465   6.344   3.485   0.061 -0.1028  2.2943 -1.2438
 8008SOL    HW225466   6.395   3.542   0.191 -0.4943 -1.1661  0.5287
 8009SOL     OW25467   6.818   0.446   8.512  0.4600  0.4060  0.1567
 8009SOL    HW125468   6.818   0.430   8.417 -1.9607  1.1323 -0.0365
 8009SOL    HW225469   6.854   0.534   8.521 -0.3497  0.7910 -0.2257
 8010SOL     OW25470   5.721   7.012  11.735  0.1078 -0.5695 -0.5545
 8010SOL    HW125471   5.690   7.101  11.714  0.5599 -0.0808  0.7376
 8010SOL    HW225472   5.810   7.009  11.699 -0.1027 -0.7017 -1.0781
 8011SOL     OW25473   3.997   3.325   5.028 -0.8613 -0.2653 -0.0462
 8011SOL    HW125474   4.052   3.401   5.008  0.0858 -0.9397 -0.0945
 8011SOL    HW225475   3.981   3.330   5.122  2.9644 -2.3285  0.9205
 8012SOL     OW25476   6.847   1.016  10.742 -0.1818  0.1610 -0.4873
 8012SOL    HW125477   6.752   1.015  10.738 -0.4314  3.4850  1.5365
 8012SOL    HW225478   6.868   1.061  10.823  3.1704 -0.4386 -0.8489
 8013SOL     OW25479   1.318   0.655  11.120  0.5584  0.0483  0.0371
 8013SOL    HW125480   1.329   0.599  11.197  0.1915  0.0635  0.1040
 8013SOL    HW225481   1.360   0.606  11.049  1.4523  0.3195  0.3650
 8014SOL     OW25482   0.595   2.161   2.179 -0.0515 -0.2342  0.2362
 8014SOL    HW125483   0.652   2.090   2.148  1.0829 -0.0837  1.8226
 8014SOL    HW225484   0.650   2.239   2.175 -2.1709  1.3026 -4.3181
 8015SOL     OW25485   0.773   0.344   0.294  0.0554 -0.1504 -0.0116
 8015SOL    HW125486   0.789   0.263   0.245 -0.8595 -0.1268 -0.3735
 8015SOL    HW225487   0.678   0.349   0.302 -0.0061  1.4934 -1.0761
 8016SOL     OW25488   0.432   7.116  12.330 -0.0290  0.9077  0.2681
 8016SOL    HW125489   0.367   7.115  12.260  1.3120  0.4790 -1.0417
 8016SOL    HW225490   0.491   7.043  12.309  1.8083  2.2696  0.4522
 8017SOL     OW25491   6.018   4.287   9.235  0.1007  0.1858 -0.2662
 8017SOL    HW125492   6.024   4.305   9.142 -0.5657  2.5894  0.1052
 8017SOL    HW225493   6.001   4.192   9.240 -1.7591  0.3054 -2.6530
 8018SOL     OW25494   5.558   4.678  10.727 -0.0948 -0.4848  0.2438
 8018SOL    HW125495   5.481   4.640  10.768 -1.3117  1.4903 -0.1082
 8018SOL    HW225496   5.581   4.752  10.783 -2.1794  2.6935 -2.7449
 8019SOL     OW25497   4.505   4.543  10.807 -0.1744 -0.2797  0.4698
 8019SOL    HW125498   4.454   4.543  10.727  0.2762  0.7140  0.1630
 8019SOL    HW225499   4.443   4.520  10.876 -0.8684  0.1709  0.0043
 8020SOL     OW25500   6.317   0.429   3.430 -0.0934 -0.2311 -0.4112
 8020SOL    HW125501   6.349   0.437   3.520  0.7341 -1.4783 -0.5580
 8020SOL    HW225502   6.226   0.458   3.433 -0.1500 -0.5106  0.8785
 8021SOL     OW25503   2.936   3.411   0.308 -1.0556 -0.5040  0.2039
 8021SOL    HW125504   2.893   3.437   0.226  0.0506  1.8057  0.2578
 8021SOL    HW225505   2.984   3.489   0.335  1.1100 -2.1568  1.4557
 8022SOL     OW25506   3.418   6.764   9.426  0.2234  0.1760  0.2962
 8022SOL    HW125507   3.377   6.845   9.456  0.4371  0.1716  0.6028
 8022SOL    HW225508   3.397   6.700   9.494 -0.1034 -0.0752 -0.0349
 8023SOL     OW25509   7.280   6.016   9.687  0.0813  0.0155 -0.0193
 8023SOL    HW125510   7.283   5.923   9.710  0.4300 -0.1321 -0.6231
 8023SOL    HW225511   7.361   6.053   9.723  0.6032 -0.2053 -0.9319
 8024SOL     OW25512   0.644   6.920   6.225  0.3706  0.4420  0.4150
 8024SOL    HW125513   0.649   7.009   6.188  0.3182  0.3747  0.2463
 8024SOL    HW225514   0.684   6.928   6.312  0.4539  0.6101  0.3613
 8025SOL     OW25515   5.892   1.059  10.650 -0.2308 -0.4805 -0.4467
 8025SOL    HW125516   5.841   1.099  10.579  2.8240  0.0535 -2.5027
 8025SOL    HW225517   5.942   1.132  10.688 -0.7456 -1.0192  1.3730
 8026SOL     OW25518   3.985   6.673  12.427  0.1050 -0.0504 -0.3393
 8026SOL    HW125519   3.986   6.729  12.505 -0.3024 -1.7210  0.9214
 8026SOL    HW225520   4.068   6.624  12.432  0.7317  0.8114 -1.7372
 8027SOL     OW25521   4.862   2.640   9.773 -0.0885  0.6590 -0.2042
 8027SOL    HW125522   4.783   2.591   9.795 -0.4656  1.6137  0.7010
 8027SOL    HW225523   4.902   2.592   9.701 -1.6151  0.2877 -0.8318
 8028SOL     OW25524   2.377   3.259  10.313  0.1900  0.1074  0.2371
 8028SOL    HW125525   2.381   3.165  10.331  1.0877  0.4572  2.1883
 8028SOL    HW225526   2.283   3.279  10.311 -0.0393 -0.9475 -1.1351
 8029SOL     OW25527   0.824   0.596   3.891 -0.0100 -0.9231 -0.4073
 8029SOL    HW125528   0.917   0.615   3.905 -0.5273  2.8826 -1.0881
 8029SOL    HW225529   0.784   0.607   3.977 -0.1791  0.4434 -0.6368
 8030SOL     OW25530   4.858   2.972   1.937  0.1484 -0.2973 -0.0273
 8030SOL    HW125531   4.868   3.064   1.916  0.4939 -0.7734 -2.1571
 8030SOL    HW225532   4.811   2.935   1.863 -0.6251 -1.7199  1.1169
 8031SOL     OW25533   6.275   4.609   6.590 -0.1522 -0.2063  0.4295
 8031SOL    HW125534   6.216   4.544   6.552  0.4648 -0.5790  0.0828
 8031SOL    HW225535   6.247   4.617   6.681 -0.4587 -0.7022  0.3822
 8032SOL     OW25536   6.792   0.436   1.295  0.2931 -0.4655 -0.2195
 8032SOL    HW125537   6.724   0.368   1.292  1.2213 -1.3682 -2.1659
 8032SOL    HW225538   6.866   0.398   1.248  2.2111  0.4957  1.8533
 8033SOL     OW25539   4.193   6.371  11.037 -0.0764 -0.1013  0.4867
 8033SOL    HW125540   4.147   6.453  11.055 -2.9229 -1.5949  0.6165
 8033SOL    HW225541   4.216   6.337  11.123  0.6496  0.2719  0.4526
 8034SOL     OW25542   1.767   4.373   8.468 -0.4601 -0.0071  0.0623
 8034SOL    HW125543   1.790   4.442   8.406 -0.5007  0.4100  0.5063
 8034SOL    HW225544   1.682   4.341   8.437 -0.6031  0.3785  0.0582
 8035SOL     OW25545   1.734   4.413   4.106 -0.4952 -0.3193 -0.1825
 8035SOL    HW125546   1.732   4.360   4.026  0.1543 -1.8004  0.7486
 8035SOL    HW225547   1.645   4.408   4.140 -0.8166  0.4470 -0.8643
 8036SOL     OW25548   6.202   5.859   5.967 -0.0929 -0.1388  0.2918
 8036SOL    HW125549   6.203   5.771   5.928  0.1145 -0.7969  1.7301
 8036SOL    HW225550   6.259   5.852   6.043 -0.7158  1.0334  0.8878
 8037SOL     OW25551   4.089   6.854   2.889  0.0886 -0.4162  0.6352
 8037SOL    HW125552   4.025   6.793   2.925 -1.3985 -0.9964 -2.5987
 8037SOL    HW225553   4.157   6.798   2.851  0.6500  0.0803  0.8986
 8038SOL     OW25554   5.646   1.758   3.792  0.4508 -0.1666 -0.5366
 8038SOL    HW125555   5.579   1.698   3.759 -0.3363  0.8152 -0.7760
 8038SOL    HW225556   5.627   1.766   3.886  2.0720 -2.1730  0.0252
 8039SOL     OW25557   4.126   5.849   3.068 -0.2028 -0.2031  0.2018
 8039SOL    HW125558   4.086   5.792   3.002 -2.0660  0.3716  0.7649
 8039SOL    HW225559   4.185   5.906   3.019  0.4158 -1.4836 -0.5947
 8040SOL     OW25560   6.293   3.721   8.980  0.1895 -0.2833  0.2939
 8040SOL    HW125561   6.386   3.714   8.957 -0.0166  0.4576 -0.8019
 8040SOL    HW225562   6.274   3.815   8.974 -0.8460 -0.5242 -0.3551
 8041SOL     OW25563   2.720   1.512   7.293  0.5255  0.5858 -0.2158
 8041SOL    HW125564   2.762   1.437   7.251  0.2933  1.1350 -1.4703
 8041SOL    HW225565   2.792   1.566   7.324  0.7480  1.0305 -1.4701
 8042SOL     OW25566   7.396   3.295   0.374  0.0852  0.6327  0.2160
 8042SOL    HW125567   7.386   3.270   0.466  1.2439 -1.3055 -0.1171
 8042SOL    HW225568   7.307   3.296   0.339 -0.3950  1.6679  1.3917
 8043SOL     OW25569   5.854   6.744  11.171 -0.2107  0.2199 -0.0173
 8043SOL    HW125570   5.926   6.745  11.107 -1.2860 -2.1655 -1.4310
 8043SOL    HW225571   5.853   6.832  11.208  1.9472  1.0143 -1.6377
 8044SOL     OW25572   0.620   7.063   1.858 -0.2194  0.0389  0.1883
 8044SOL    HW125573   0.693   7.104   1.904  0.8478 -0.6539 -0.8129
 8044SOL    HW225574   0.605   7.118   1.781  0.3673 -0.6916 -0.4747
 8045SOL     OW25575   5.388   6.588   3.698 -0.3402 -0.3458 -1.0265
 8045SOL    HW125576   5.316   6.645   3.672  1.6054  1.4701 -2.7463
 8045SOL    HW225577   5.455   6.601   3.631  1.7044 -1.7808  0.6087
 8046SOL     OW25578   0.161   4.877   5.969 -0.5860  0.1154 -0.9065
 8046SOL    HW125579   0.092   4.941   5.951 -0.6050  1.4879  3.2036
 8046SOL    HW225580   0.120   4.813   6.027 -0.2873 -3.3890 -4.1036
 8047SOL     OW25581   5.845   2.404  12.443  0.0427  0.4132 -0.2332
 8047SOL    HW125582   5.791   2.363  12.375  1.0147 -0.0967 -0.7088
 8047SOL    HW225583   5.935   2.392  12.414  0.4058  2.5668 -0.2066
 8048SOL     OW25584   4.756   0.846  10.040  0.1445 -0.1705  0.0175
 8048SOL    HW125585   4.752   0.902  10.117  0.1561 -1.6847  1.1585
 8048SOL    HW225586   4.830   0.788  10.056 -1.4687 -2.3274  0.2093
 8049SOL     OW25587   7.364   0.618   1.837 -0.4245 -0.0824  0.2713
 8049SOL    HW125588   7.376   0.710   1.816  1.2043 -0.5374 -1.0746
 8049SOL    HW225589   7.270   0.605   1.837 -0.6584  1.0562 -2.1217
 8050SOL     OW25590   5.727   6.595  11.569  0.0290 -0.2265  0.1023
 8050SOL    HW125591   5.766   6.582  11.655 -0.2665  0.1989  0.3017
 8050SOL    HW225592   5.721   6.690  11.559  0.2146 -0.2708 -0.4576
 8051SOL     OW25593   6.880   2.374   7.747  0.0386 -0.1234  0.3708
 8051SOL    HW125594   6.922   2.428   7.814  0.9600  0.6586 -0.7826
 8051SOL    HW225595   6.938   2.298   7.737  1.1258  0.8267 -1.0332
 8052SOL     OW25596   3.393   1.703   5.390  1.1208 -0.2547  0.4092
 8052SOL    HW125597   3.488   1.696   5.401  1.0801 -0.7383  0.4701
 8052SOL    HW225598   3.375   1.797   5.396  1.5737 -0.1765  0.5805
 8053SOL     OW25599   1.261   0.771  10.300 -0.5474 -0.1795 -0.6944
 8053SOL    HW125600   1.240   0.678  10.288  0.9744 -0.4006 -2.0739
 8053SOL    HW225601   1.263   0.783  10.395 -1.2047 -1.4312 -0.4922
 8054SOL     OW25602   5.689   0.860   3.865  0.4517  0.4856  0.4016
 8054SOL    HW125603   5.641   0.886   3.944 -1.1369  0.9595 -0.6439
 8054SOL    HW225604   5.738   0.782   3.890 -0.6587  0.1477  1.6437
 8055SOL     OW25605   3.141   2.506  11.305  0.3726 -0.2357 -0.1276
 8055SOL    HW125606   3.192   2.514  11.386 -0.0840 -0.7230  0.2120
 8055SOL    HW225607   3.194   2.449  11.250  1.3674  1.2123 -0.7372
 8056SOL     OW25608   5.814   4.800   9.361  0.0604 -0.0161  0.4163
 8056SOL    HW125609   5.847   4.885   9.389 -1.1602  0.7335 -0.3392
 8056SOL    HW225610   5.849   4.789   9.273 -0.7516  0.2723  0.0467
 8057SOL     OW25611   2.002   3.513  11.285 -0.2795  0.2347  0.1337
 8057SOL    HW125612   2.083   3.511  11.336 -0.2557  1.4262  0.1758
 8057SOL    HW225613   1.935   3.486  11.347 -0.0305  0.1095  0.3538
 8058SOL     OW25614   5.207   7.001   8.855 -0.2977 -0.3924  0.0496
 8058SOL    HW125615   5.296   7.001   8.818 -0.6717  2.1879 -1.1072
 8058SOL    HW225616   5.204   7.082   8.907 -2.3833  0.3519 -1.1410
 8059SOL     OW25617   4.742   6.671  11.416 -0.2766 -0.0883  0.4806
 8059SOL    HW125618   4.680   6.703  11.351  1.7902 -1.4493 -2.4012
 8059SOL    HW225619   4.716   6.580  11.432 -0.2383 -0.0327  0.8655
 8060SOL     OW25620   4.136   2.663  11.828  0.0505 -0.1401  0.1350
 8060SOL    HW125621   4.110   2.599  11.895 -0.3484 -0.9944 -0.8095
 8060SOL    HW225622   4.211   2.709  11.867 -0.5828 -0.1525  1.4292
 8061SOL     OW25623   2.719   0.295   3.626 -0.0718 -0.3491  0.6168
 8061SOL    HW125624   2.708   0.268   3.535  0.1561  0.8366  0.2113
 8061SOL    HW225625   2.691   0.220   3.677 -1.2319 -0.6654 -0.4257
 8062SOL     OW25626   4.283   2.738  10.902 -0.4254 -0.3917  0.4086
 8062SOL    HW125627   4.216   2.803  10.922  0.2113  1.1558 -2.1135
 8062SOL    HW225628   4.235   2.661  10.871 -1.1815 -1.2596  3.4000
 8063SOL     OW25629   1.890   1.521   2.386 -0.0231 -0.3213 -0.0517
 8063SOL    HW125630   1.971   1.546   2.431 -1.4394  0.7074  2.0482
 8063SOL    HW225631   1.849   1.604   2.363 -0.0445 -0.8341 -2.0457
 8064SOL     OW25632   1.819   4.679   1.758 -0.3608 -0.2317  0.2972
 8064SOL    HW125633   1.764   4.752   1.785  0.7529  0.1359  1.7007
 8064SOL    HW225634   1.838   4.632   1.839  1.1695 -0.4990 -0.1878
 8065SOL     OW25635   3.810   5.367  11.965 -0.4243 -0.6638  0.2558
 8065SOL    HW125636   3.886   5.309  11.961 -0.8663 -1.3251  1.0032
 8065SOL    HW225637   3.784   5.366  12.057 -1.6705 -0.9234 -0.0728
 8066SOL     OW25638   7.633   3.885   3.959 -0.3021  0.0315 -0.3207
 8066SOL    HW125639   7.648   3.794   3.931  1.6907 -0.7433  2.7817
 8066SOL    HW225640   7.638   3.882   4.054 -4.2453  2.8165  0.2047
 8067SOL     OW25641   4.885   3.487   4.047  0.2433 -0.3431  0.1088
 8067SOL    HW125642   4.894   3.421   4.116 -2.2605 -0.3899  0.4669
 8067SOL    HW225643   4.896   3.571   4.092 -2.5223 -0.3159  0.8997
 8068SOL     OW25644   4.253   2.308   8.839  0.5349  0.3409  0.0049
 8068SOL    HW125645   4.236   2.400   8.821  0.0984  0.3099  0.2346
 8068SOL    HW225646   4.237   2.264   8.755  0.2880  0.4195  0.0092
 8069SOL     OW25647   1.395   0.305   6.466 -0.2229  0.6396  0.0588
 8069SOL    HW125648   1.490   0.312   6.460  0.1708 -2.9716 -0.3691
 8069SOL    HW225649   1.369   0.255   6.389 -2.5403  1.7800  0.0178
 8070SOL     OW25650   1.851   6.723  11.223  0.0900  0.2651 -0.2206
 8070SOL    HW125651   1.929   6.776  11.207 -0.5882  2.3625  2.6233
 8070SOL    HW225652   1.781   6.769  11.176  0.2337 -0.7804 -1.5284
 8071SOL     OW25653   5.341   3.288  10.195  0.4514  0.2830 -0.2152
 8071SOL    HW125654   5.329   3.194  10.193 -0.6890  0.4224 -0.7256
 8071SOL    HW225655   5.307   3.315  10.281  0.2517  0.2900 -0.2961
 8072SOL     OW25656   3.263   7.824   5.279 -0.0369 -0.3027 -0.2649
 8072SOL    HW125657   3.317   7.864   5.348  0.1099 -0.3363 -0.3591
 8072SOL    HW225658   3.196   7.889   5.260 -0.2424 -0.4045  0.1042
 8073SOL     OW25659   2.198   5.903  12.223  0.5419  0.0847  0.1220
 8073SOL    HW125660   2.238   5.990  12.215  0.7306 -0.1300 -1.4137
 8073SOL    HW225661   2.259   5.845  12.178 -1.5087 -0.2357 -2.4660
 8074SOL     OW25662   1.055   0.254   8.922 -0.4620  0.2378  0.2225
 8074SOL    HW125663   0.984   0.249   8.858  1.2959  0.7940 -1.9070
 8074SOL    HW225664   1.070   0.163   8.947 -0.8780 -0.0576 -0.5531
 8075SOL     OW25665   3.829   2.452   9.642  0.2943  0.3886  0.3401
 8075SOL    HW125666   3.851   2.546   9.639 -0.3229  0.6197  1.7507
 8075SOL    HW225667   3.736   2.451   9.665  0.0587 -0.5782 -0.6373
 8076SOL     OW25668   7.214   1.365  10.854  0.1332  0.1643 -0.0672
 8076SOL    HW125669   7.283   1.365  10.921  0.6603 -3.5056 -0.3844
 8076SOL    HW225670   7.133   1.377  10.903  0.7324  0.8803  0.7879
 8077SOL     OW25671   2.058   3.084   7.564 -0.2426 -0.1907 -0.1635
 8077SOL    HW125672   2.086   3.161   7.613  2.2460 -1.2344  0.1848
 8077SOL    HW225673   1.970   3.065   7.598 -1.9658  3.6977 -1.8391
 8078SOL     OW25674   0.744   3.249   4.805  0.5116 -0.1577 -0.2613
 8078SOL    HW125675   0.796   3.328   4.822  0.8089 -0.0834 -1.3758
 8078SOL    HW225676   0.774   3.219   4.719  0.9654 -1.9522  0.4839
 8079SOL     OW25677   4.749   0.181   9.473 -0.1707  0.1603 -1.1220
 8079SOL    HW125678   4.829   0.161   9.424 -0.7365  0.0073 -2.0249
 8079SOL    HW225679   4.737   0.106   9.531  1.1990  0.9300  0.2161
 8080SOL     OW25680   4.885   1.539   5.810 -0.1129 -0.1215 -0.1396
 8080SOL    HW125681   4.863   1.632   5.810  2.4481  0.7090  3.3877
 8080SOL    HW225682   4.973   1.535   5.773 -0.3033 -1.2182 -0.5162
 8081SOL     OW25683   2.642   7.424  10.662  0.1074 -0.2125 -0.4928
 8081SOL    HW125684   2.619   7.509  10.699 -1.2193 -0.3646 -0.9243
 8081SOL    HW225685   2.572   7.365  10.692  0.5721 -0.9677 -0.8614
 8082SOL     OW25686   4.868   2.265   6.631 -0.1204 -0.2741 -0.5403
 8082SOL    HW125687   4.777   2.241   6.649  0.2762 -0.6565  1.0866
 8082SOL    HW225688   4.917   2.184   6.649  0.8628  0.7426  1.6818
 8083SOL     OW25689   6.006   5.443   2.707 -0.1605 -0.4611 -0.1298
 8083SOL    HW125690   6.021   5.399   2.790 -0.1686 -0.1049  0.0627
 8083SOL    HW225691   5.929   5.400   2.670 -0.3631 -0.3891  0.2077
 8084SOL     OW25692   6.025   7.740   7.622 -0.3954  0.2442 -0.0525
 8084SOL    HW125693   6.091   7.807   7.637 -0.6527  0.8063 -1.2757
 8084SOL    HW225694   6.060   7.662   7.666  0.2847  0.9562  0.7120
 8085SOL     OW25695   1.820   1.934   5.032  0.0692  0.2246 -0.0770
 8085SOL    HW125696   1.835   1.869   5.101 -0.6831  0.8148  0.6538
 8085SOL    HW225697   1.725   1.943   5.026  0.1541  2.1078  0.6683
 8086SOL     OW25698   3.089   7.490   2.386  0.1130  0.3107 -0.2157
 8086SOL    HW125699   3.051   7.456   2.304 -0.7166 -0.2282  0.3696
 8086SOL    HW225700   3.015   7.531   2.430  1.1322  3.1774 -1.0041
 8087SOL     OW25701   5.179   2.331   4.280  0.3200  0.3645  0.1928
 8087SOL    HW125702   5.261   2.293   4.312  1.0683  1.6878 -0.0608
 8087SOL    HW225703   5.141   2.374   4.356  0.4893  0.7865  0.0443
 8088SOL     OW25704   2.628   5.766   8.371  1.1129  0.7567 -0.7943
 8088SOL    HW125705   2.558   5.772   8.436  1.0771 -1.0230 -0.6242
 8088SOL    HW225706   2.709   5.776   8.421  1.0321  1.3183 -0.7715
 8089SOL     OW25707   6.522   4.343   7.570  0.3209  0.0437  0.3743
 8089SOL    HW125708   6.493   4.407   7.505  1.3681  0.8012  0.6226
 8089SOL    HW225709   6.447   4.284   7.582 -1.5810  2.5547  1.8388
 8090SOL     OW25710   0.278   5.570   2.745 -0.0815  0.1789 -0.4629
 8090SOL    HW125711   0.372   5.565   2.730  0.3337  1.8023  1.1812
 8090SOL    HW225712   0.248   5.640   2.686  0.2637  1.5034  0.8637
 8091SOL     OW25713   6.768   7.429   2.244 -0.2237  0.1241 -0.2067
 8091SOL    HW125714   6.755   7.401   2.154 -0.0297 -0.6083 -0.0138
 8091SOL    HW225715   6.854   7.395   2.268 -0.0327  0.7831  0.0825
 8092SOL     OW25716   7.595   0.907   8.222 -0.2481  0.2433  0.8100
 8092SOL    HW125717   7.680   0.928   8.185 -0.0149  1.9424  2.1656
 8092SOL    HW225718   7.615   0.844   8.292 -0.3717 -0.8312 -0.0849
 8093SOL     OW25719   5.618   0.749  10.416 -0.1923  0.1763 -0.8838
 8093SOL    HW125720   5.611   0.654  10.414 -0.3683  0.2020 -1.7479
 8093SOL    HW225721   5.707   0.767  10.386  0.5626  0.2273  1.1809
 8094SOL     OW25722   1.162   1.130   0.369 -0.1941  0.1638 -0.1580
 8094SOL    HW125723   1.215   1.166   0.298  0.3302 -0.1401  0.0698
 8094SOL    HW225724   1.166   1.196   0.438 -0.2289  0.2056 -0.1962
 8095SOL     OW25725   7.523   1.587   8.489 -0.3907 -0.0710  0.6931
 8095SOL    HW125726   7.459   1.655   8.470 -1.5521 -0.7308  2.1247
 8095SOL    HW225727   7.589   1.630   8.544  0.9516  0.8401 -1.4879
 8096SOL     OW25728   7.463   5.674   4.396  0.2219 -0.0839  0.3101
 8096SOL    HW125729   7.434   5.585   4.377  1.2345 -0.1675 -0.9124
 8096SOL    HW225730   7.399   5.730   4.351  0.7315 -0.2424 -0.6432
 8097SOL     OW25731   1.716   6.767  11.754 -0.0691 -0.4789  0.0046
 8097SOL    HW125732   1.746   6.830  11.689  1.4499  0.9703  1.9896
 8097SOL    HW225733   1.624   6.751  11.732 -0.0430  1.2035 -1.5072
 8098SOL     OW25734   0.103   1.129   3.835 -0.5686  0.1877  0.3704
 8098SOL    HW125735   0.169   1.072   3.794 -0.2758  0.5482  0.3350
 8098SOL    HW225736   0.020   1.100   3.797 -0.4203 -0.1920  0.3233
 8099SOL     OW25737   2.172   0.197   0.049 -0.0033 -0.2581  0.0592
 8099SOL    HW125738   2.116   0.266   0.013  0.6167 -0.2594 -0.9462
 8099SOL    HW225739   2.152   0.196   0.143  0.6985  1.9867  0.2892
 8100SOL     OW25740   1.934   5.798   4.116  0.2987  0.2243  0.1229
 8100SOL    HW125741   1.839   5.784   4.121 -0.8271  3.6554 -4.6026
 8100SOL    HW225742   1.970   5.716   4.083 -0.8894 -1.1781  2.1183
 8101SOL     OW25743   5.850   1.716   1.670  0.1407  0.1224 -0.2235
 8101SOL    HW125744   5.876   1.765   1.748  0.0771  0.6814 -0.5507
 8101SOL    HW225745   5.805   1.638   1.705 -0.4850  0.7020  0.2908
 8102SOL     OW25746   3.626   5.808   0.363  0.1730  0.5677 -0.8170
 8102SOL    HW125747   3.705   5.756   0.375 -0.8402 -1.3789 -2.1777
 8102SOL    HW225748   3.614   5.853   0.447  1.9310 -0.1838 -0.1253
 8103SOL     OW25749   3.999   1.768   7.259  0.5588  0.3665 -0.3693
 8103SOL    HW125750   4.042   1.739   7.339  0.0756 -0.0935 -0.2653
 8103SOL    HW225751   4.070   1.789   7.198  0.9332  1.1506  0.3245
 8104SOL     OW25752   1.540   4.387   8.066  0.3190 -0.0656  0.1601
 8104SOL    HW125753   1.538   4.439   8.146 -0.6564  1.6241 -0.9051
 8104SOL    HW225754   1.448   4.379   8.040  0.3861 -2.7453  0.4960
 8105SOL     OW25755   6.276   0.217  11.965 -0.0510  0.6259 -0.7405
 8105SOL    HW125756   6.344   0.150  11.970 -1.5163 -0.8770  0.3041
 8105SOL    HW225757   6.310   0.290  12.016  1.2809  0.4185 -1.2960
 8106SOL     OW25758   3.721   4.148  11.693  0.6006  0.6076 -0.1393
 8106SOL    HW125759   3.805   4.121  11.732 -0.2153 -1.7917  0.1281
 8106SOL    HW225760   3.708   4.087  11.621 -0.2668  1.8756 -1.0905
 8107SOL     OW25761   1.707   7.380   0.461 -0.7535  0.0330 -0.8684
 8107SOL    HW125762   1.643   7.315   0.432 -1.8904  1.1963 -1.0578
 8107SOL    HW225763   1.657   7.461   0.471  0.1641  0.3618  1.6546
 8108SOL     OW25764   3.184   0.841   3.698  0.0505 -0.0831 -0.3424
 8108SOL    HW125765   3.266   0.826   3.651 -0.4970 -1.2264 -0.9923
 8108SOL    HW225766   3.203   0.816   3.788 -0.4193 -3.9075 -1.0892
 8109SOL     OW25767   6.570   0.218   4.484 -0.0717  0.6735 -0.0164
 8109SOL    HW125768   6.605   0.228   4.572  0.9990 -0.4399 -0.2698
 8109SOL    HW225769   6.550   0.125   4.477  0.9959  0.5091 -1.3169
 8110SOL     OW25770   0.011   1.462   5.890  0.2712  0.5626  0.4728
 8110SOL    HW125771   0.000   1.390   5.951  0.2287 -0.1207 -0.3224
 8110SOL    HW225772   0.086   1.512   5.924 -0.4480  0.8539  1.6948
 8111SOL     OW25773   0.349   0.000   3.914  0.3299 -0.0344  0.2932
 8111SOL    HW125774   0.416   0.065   3.892  1.2950 -1.3362 -0.7876
 8111SOL    HW225775   0.367  -0.073   3.856 -1.4725 -0.8081  0.6452
 8112SOL     OW25776   6.592   6.838   0.480 -0.0432 -0.7104  0.7350
 8112SOL    HW125777   6.649   6.914   0.487 -0.0146 -0.5336 -1.0786
 8112SOL    HW225778   6.629   6.775   0.542  2.5332 -0.8320 -0.7939
 8113SOL     OW25779   0.204   1.549   5.662  0.4445  0.5663  0.4494
 8113SOL    HW125780   0.111   1.529   5.674  0.4868 -0.2352 -0.4744
 8113SOL    HW225781   0.211   1.642   5.684 -0.5169  0.5659  0.8248
 8114SOL     OW25782   1.508   7.249   0.884 -0.5467  0.0845  0.3791
 8114SOL    HW125783   1.517   7.193   0.962 -2.4156 -0.2219  0.4155
 8114SOL    HW225784   1.423   7.291   0.894 -0.9420 -0.1455 -1.6370
 8115SOL     OW25785   4.381   7.166   8.181  0.2738  0.1055 -0.0510
 8115SOL    HW125786   4.469   7.178   8.146  0.0417  1.3637 -0.2608
 8115SOL    HW225787   4.394   7.124   8.266  1.2455  2.1525  0.8685
 8116SOL     OW25788   1.666   1.333   5.659 -0.0680  0.5240 -0.5171
 8116SOL    HW125789   1.604   1.405   5.648 -0.7536 -0.1732 -1.3346
 8116SOL    HW225790   1.614   1.262   5.695  0.3454  0.0659 -0.8111
 8117SOL     OW25791   2.444   0.680   9.520 -0.3730  0.1714  0.7171
 8117SOL    HW125792   2.514   0.625   9.556  1.6501  2.4205  0.4547
 8117SOL    HW225793   2.384   0.693   9.593 -0.7158 -1.9915  0.8880
 8118SOL     OW25794   7.223   3.353   9.241 -0.8685 -0.1185  0.0574
 8118SOL    HW125795   7.206   3.387   9.328 -0.5915  1.9484 -0.6501
 8118SOL    HW225796   7.146   3.378   9.190 -1.2079 -1.6392 -0.2529
 8119SOL     OW25797   6.574   1.363   3.708  0.1575 -0.2597 -0.2763
 8119SOL    HW125798   6.513   1.292   3.726  1.3182 -1.3218 -0.3408
 8119SOL    HW225799   6.527   1.422   3.649 -1.6397  0.2350  1.5382
 8120SOL     OW25800   3.965   4.129   0.000  0.2694  0.2643  0.1464
 8120SOL    HW125801   3.976   4.164   0.089 -0.9565 -0.1711  0.4920
 8120SOL    HW225802   4.008   4.044   0.002  0.2597  0.2629  0.3206
 8121SOL     OW25803   4.072   2.424   9.442 -0.0685 -0.0731  0.3494
 8121SOL    HW125804   4.083   2.480   9.365  0.3021 -0.1918  0.3144
 8121SOL    HW225805   3.994   2.458   9.485 -0.0171  0.2842  0.1653
 8122SOL     OW25806   6.206   5.671   9.801  0.1033  0.3252 -0.3054
 8122SOL    HW125807   6.183   5.623   9.881  0.0373  0.2390 -0.3748
 8122SOL    HW225808   6.224   5.602   9.737 -1.0205  0.3849 -0.7067
 8123SOL     OW25809   6.359   1.362   7.938  0.1263  0.0168  0.3362
 8123SOL    HW125810   6.273   1.327   7.915 -0.1007  0.6627  0.2055
 8123SOL    HW225811   6.420   1.291   7.915 -0.2487  0.0218 -0.7390
 8124SOL     OW25812   0.596   2.135   4.585  0.3098 -0.2655  0.0393
 8124SOL    HW125813   0.559   2.085   4.657 -0.5085  0.2098 -0.0361
 8124SOL    HW225814   0.526   2.136   4.519  0.8137 -0.1615 -0.4972
 8125SOL     OW25815   0.496   5.132   0.182 -0.1088 -0.4287 -0.1114
 8125SOL    HW125816   0.539   5.213   0.210  0.7347 -0.2664 -1.7520
 8125SOL    HW225817   0.520   5.123   0.089 -1.4222 -1.7729 -0.3574
 8126SOL     OW25818   2.124   7.965   1.831 -0.1124 -0.1238  0.0028
 8126SOL    HW125819   2.215   7.987   1.849  0.0944 -0.8014 -0.2085
 8126SOL    HW225820   2.090   8.041   1.784  0.4596 -0.0379 -0.2808
 8127SOL     OW25821   3.241   5.967   3.658 -0.0319 -0.4579 -0.0611
 8127SOL    HW125822   3.160   5.926   3.688  0.2709 -0.9679  0.0656
 8127SOL    HW225823   3.239   5.959   3.563  0.1122 -0.9365 -0.0270
 8128SOL     OW25824   7.167   4.492   5.534 -0.2672 -0.2442  0.0211
 8128SOL    HW125825   7.169   4.417   5.475 -3.0067  0.8882 -1.7023
 8128SOL    HW225826   7.239   4.547   5.504 -1.4151  0.1776 -2.2476
 8129SOL     OW25827   5.853   0.701   3.443 -0.2421  0.6555 -0.3301
 8129SOL    HW125828   5.775   0.738   3.485  0.0515  1.1583 -0.2258
 8129SOL    HW225829   5.880   0.768   3.380  0.7021  0.9243  0.3458
 8130SOL     OW25830   7.124   5.553   0.084 -0.1725  0.1226 -0.1911
 8130SOL    HW125831   7.154   5.635   0.045  0.2541  0.8381  1.5475
 8130SOL    HW225832   7.029   5.553   0.069  0.1282 -0.4088 -2.5418
 8131SOL     OW25833   1.965   1.139   6.954  0.2555  0.0448 -0.0575
 8131SOL    HW125834   1.896   1.114   6.892  0.8040 -1.2125 -0.1887
 8131SOL    HW225835   2.026   1.066   6.952  0.8654  0.5043  1.1364
 8132SOL     OW25836   6.251   1.224  10.111  0.2364 -0.1850 -0.4650
 8132SOL    HW125837   6.161   1.193  10.109 -0.5318  1.7342  0.8807
 8132SOL    HW225838   6.252   1.302  10.056  0.5501  0.9142  1.0087
 8133SOL     OW25839   1.134   4.262   8.702 -0.5883  0.1994 -0.2273
 8133SOL    HW125840   1.226   4.277   8.677 -0.9693 -0.1844 -2.0017
 8133SOL    HW225841   1.138   4.191   8.765  0.3930  0.7387  0.3486
 8134SOL     OW25842   7.725   3.057   5.539 -0.3507 -0.1733  0.3378
 8134SOL    HW125843   7.669   3.116   5.588 -0.4354  0.2029 -0.1978
 8134SOL    HW225844   7.693   2.970   5.560 -3.4773  0.0519 -2.5507
 8135SOL     OW25845   3.964   3.723   8.220 -0.0615 -0.6625 -0.2688
 8135SOL    HW125846   3.869   3.718   8.228 -0.2850 -0.9128 -2.3179
 8135SOL    HW225847   3.990   3.635   8.191  0.9704 -0.9470  1.4020
 8136SOL     OW25848   4.743   3.519   8.095  0.3466  0.2183 -0.0404
 8136SOL    HW125849   4.712   3.521   8.004 -0.8938 -1.1680  0.3073
 8136SOL    HW225850   4.716   3.433   8.127 -0.2845  1.1138  1.9853
 8137SOL     OW25851   6.421   0.638  10.333  0.0311 -0.3206  0.4396
 8137SOL    HW125852   6.460   0.655  10.247 -0.7487 -0.9240 -0.0535
 8137SOL    HW225853   6.405   0.724  10.370  0.1931 -0.0508 -0.1082
 8138SOL     OW25854   5.390   0.799   7.488  0.1832  0.3104  0.0989
 8138SOL    HW125855   5.357   0.879   7.530  1.8313  1.5476 -0.8232
 8138SOL    HW225856   5.350   0.800   7.401 -0.0220 -0.0371  0.1885
 8139SOL     OW25857   3.776   4.440   0.513  0.0967 -0.4217 -0.2095
 8139SOL    HW125858   3.835   4.373   0.547  1.3547  0.5619 -0.3394
 8139SOL    HW225859   3.816   4.523   0.540 -1.0183  0.2956 -0.6734
 8140SOL     OW25860   3.939   0.142  11.301 -0.4149 -0.5556 -0.5312
 8140SOL    HW125861   3.852   0.167  11.269 -0.1575  1.5255  0.1989
 8140SOL    HW225862   3.929   0.137  11.396  0.0921 -1.0863 -0.5014
 8141SOL     OW25863   4.388   2.342   6.176 -0.0183 -0.6654  0.0625
 8141SOL    HW125864   4.412   2.433   6.195 -0.0873 -1.1607  2.8309
 8141SOL    HW225865   4.409   2.332   6.083  0.5576  1.9894 -0.1953
 8142SOL     OW25866   0.499   3.286   9.388  0.5270  0.4487 -0.1155
 8142SOL    HW125867   0.544   3.369   9.403  1.8906 -0.0492 -1.2343
 8142SOL    HW225868   0.497   3.277   9.293 -3.4851  1.2291 -0.2831
 8143SOL     OW25869   0.293   6.421  10.562 -0.8999  0.2006  0.3815
 8143SOL    HW125870   0.239   6.457  10.492  0.3487 -0.9684 -1.2626
 8143SOL    HW225871   0.237   6.354  10.603 -0.9477 -0.5785 -0.9034
 8144SOL     OW25872   3.159   6.424  10.704 -0.6408  0.3716 -0.2921
 8144SOL    HW125873   3.151   6.460  10.616 -0.2866  0.1598 -0.4154
 8144SOL    HW225874   3.253   6.430  10.724 -0.9358  2.1906  0.8219
 8145SOL     OW25875   4.893   1.969   9.367  0.1045  0.4684 -0.2955
 8145SOL    HW125876   4.843   2.034   9.417 -0.3935  0.6238 -0.9704
 8145SOL    HW225877   4.834   1.895   9.358  0.5925 -0.0004  0.2819
 8146SOL     OW25878   5.013   1.825   3.395 -0.3490 -0.3942 -0.1051
 8146SOL    HW125879   5.096   1.781   3.378  0.0114 -0.4893  1.7238
 8146SOL    HW225880   5.023   1.911   3.354  0.9618 -0.1225  0.7408
 8147SOL     OW25881   2.373   6.389   8.229  0.2329  0.0421  0.2847
 8147SOL    HW125882   2.408   6.453   8.168  1.8460 -0.8163  0.2505
 8147SOL    HW225883   2.341   6.318   8.174 -0.6966  0.3944  0.3578
 8148SOL     OW25884   1.394   7.732   7.669  0.3593  0.1532  0.2396
 8148SOL    HW125885   1.319   7.713   7.612 -1.4155  1.3110  2.0499
 8148SOL    HW225886   1.415   7.824   7.652  0.1953  0.3376  1.0028
 8149SOL     OW25887   7.180   1.016   3.943 -0.2895  0.1788 -0.3422
 8149SOL    HW125888   7.140   0.931   3.926 -1.0366  0.0311  1.8384
 8149SOL    HW225889   7.274   0.998   3.947 -0.5053 -0.8036  1.1505
 8150SOL     OW25890   2.233   2.526   2.377  0.0551  0.6317  0.5761
 8150SOL    HW125891   2.185   2.456   2.333 -2.0323  1.3394  1.6191
 8150SOL    HW225892   2.255   2.588   2.307 -1.2695  0.6688  0.1612
 8151SOL     OW25893   0.424   1.421   0.250  0.5008 -0.4883  0.1786
 8151SOL    HW125894   0.499   1.426   0.309  0.5852 -1.6177  0.1902
 8151SOL    HW225895   0.460   1.388   0.168  0.0042 -1.1668  0.2260
 8152SOL     OW25896   0.796   4.276   6.786  0.3463  0.3883 -0.2325
 8152SOL    HW125897   0.825   4.260   6.697  1.5294  0.5390  0.1047
 8152SOL    HW225898   0.710   4.317   6.777  0.7720  1.0734 -1.3316
 8153SOL     OW25899   2.552   1.160   5.995 -1.2203  0.3084  0.0129
 8153SOL    HW125900   2.590   1.099   5.932 -0.8376  1.4005 -0.8513
 8153SOL    HW225901   2.558   1.115   6.079 -1.3552 -1.0090 -0.6615
 8154SOL     OW25902   3.370   6.954   4.526  0.2370  0.1363 -0.1378
 8154SOL    HW125903   3.423   6.994   4.595  1.7626 -0.3100 -1.0016
 8154SOL    HW225904   3.405   6.866   4.517 -0.3467 -0.0116 -1.0623
 8155SOL     OW25905   5.770   4.495   0.910  0.2091 -0.3617  0.0018
 8155SOL    HW125906   5.811   4.502   0.996  1.4748 -0.2228 -0.5899
 8155SOL    HW225907   5.713   4.418   0.916  2.1190 -1.8102  0.2670
 8156SOL     OW25908   6.636   1.322   5.006  0.0313 -0.1301 -0.1128
 8156SOL    HW125909   6.673   1.298   5.092  0.6434 -0.1273 -0.3707
 8156SOL    HW225910   6.680   1.404   4.983 -0.0595 -0.1810 -0.4689
 8157SOL     OW25911   4.392   3.902   0.407 -0.5859 -0.0182 -0.0353
 8157SOL    HW125912   4.412   3.988   0.443 -1.5531  0.1344  0.1771
 8157SOL    HW225913   4.332   3.862   0.470  0.8993 -1.4176  0.5713
 8158SOL     OW25914   6.415   5.110   4.839  0.6737  0.0759 -0.3240
 8158SOL    HW125915   6.376   5.196   4.855  3.7042  1.5003  0.0900
 8158SOL    HW225916   6.394   5.091   4.747 -1.0464  0.6522 -0.0786
 8159SOL     OW25917   0.494   3.004   4.000  0.4868 -0.2334  0.2092
 8159SOL    HW125918   0.452   3.014   4.086  1.5514 -2.3174  1.0543
 8159SOL    HW225919   0.422   2.976   3.942 -0.1088  0.5136  0.5694
 8160SOL     OW25920   3.561   3.065  12.319 -0.7645 -0.0600 -0.5539
 8160SOL    HW125921   3.640   3.013  12.324 -2.1902 -2.4472 -1.2327
 8160SOL    HW225922   3.582   3.136  12.258  0.7964 -0.7159 -0.8061
 8161SOL     OW25923   2.468   5.195   2.779 -0.8145 -0.0480 -0.3212
 8161SOL    HW125924   2.478   5.254   2.853 -0.1178  0.3673 -0.7290
 8161SOL    HW225925   2.550   5.146   2.776 -1.3333 -0.9455 -0.0704
 8162SOL     OW25926   4.090   1.409  10.307 -0.2002 -0.6955  0.4653
 8162SOL    HW125927   4.117   1.497  10.279  0.7206 -0.9179  0.6219
 8162SOL    HW225928   4.163   1.378  10.361 -0.5507 -1.5302  0.4690
 8163SOL     OW25929   6.185   7.976   9.793 -0.2352 -0.3138 -0.4414
 8163SOL    HW125930   6.185   8.044   9.726 -1.6506  0.3998  0.2477
 8163SOL    HW225931   6.095   7.944   9.795  0.3414 -2.0568 -0.5731
 8164SOL     OW25932   1.941   4.696  11.734  0.1016  0.1351 -0.0912
 8164SOL    HW125933   1.916   4.676  11.825 -0.4098  0.4098 -0.1688
 8164SOL    HW225934   1.874   4.653  11.681  1.0023 -0.9489 -0.3870
 8165SOL     OW25935   5.499   4.388   1.605 -0.1095  0.0100  0.0980
 8165SOL    HW125936   5.556   4.330   1.655  0.3458 -0.4516 -0.9254
 8165SOL    HW225937   5.499   4.470   1.654  0.5728 -0.3310  0.6843
 8166SOL     OW25938   4.344   5.333   4.595 -0.1715 -0.2156 -0.1886
 8166SOL    HW125939   4.376   5.260   4.542  0.6266  0.6008 -0.8703
 8166SOL    HW225940   4.422   5.386   4.612 -0.9352  1.1545 -0.7969
 8167SOL     OW25941   2.212   1.861   0.916  0.7201  0.0959 -0.2077
 8167SOL    HW125942   2.205   1.771   0.948 -0.7323  0.4469  0.5469
 8167SOL    HW225943   2.271   1.905   0.978 -1.6443  0.6297  1.8030
 8168SOL     OW25944   2.450   7.187  10.977 -0.2097 -0.1194  0.7011
 8168SOL    HW125945   2.395   7.120  10.936 -0.9866  0.2310  1.1627
 8168SOL    HW225946   2.537   7.173  10.938 -0.9940  0.4714 -1.4096
 8169SOL     OW25947   7.103   4.030   8.404 -0.6531  0.1571  0.0768
 8169SOL    HW125948   7.063   3.944   8.417 -3.2709  1.3090  0.3622
 8169SOL    HW225949   7.148   4.023   8.320 -0.9617 -1.4518  0.0173
 8170SOL     OW25950   0.482   7.833   1.175  0.1775 -0.1603  0.0227
 8170SOL    HW125951   0.523   7.912   1.140 -0.4084  0.4206  0.6255
 8170SOL    HW225952   0.436   7.862   1.253  1.6010 -1.4703  1.4184
 8171SOL     OW25953   2.896   2.745   1.484  0.1516  0.2741 -0.0153
 8171SOL    HW125954   2.803   2.762   1.498  0.5408  1.3526  1.3842
 8171SOL    HW225955   2.940   2.823   1.517  1.5619 -0.1926 -0.7341
 8172SOL     OW25956   0.630   3.652   9.679 -0.2922 -0.0773  0.0871
 8172SOL    HW125957   0.556   3.679   9.733 -1.2521 -1.6266 -0.4126
 8172SOL    HW225958   0.702   3.642   9.742 -1.2758 -1.4322  1.0580
 8173SOL     OW25959   2.095   4.436   3.735 -0.1603  0.0981  0.4753
 8173SOL    HW125960   2.178   4.479   3.714 -0.9565  1.8332  0.6567
 8173SOL    HW225961   2.120   4.350   3.768  1.5019  0.2244 -0.3571
 8174SOL     OW25962   6.895   1.098   2.261 -0.2578 -0.1341 -0.0036
 8174SOL    HW125963   6.934   1.139   2.338 -0.6520 -0.5343  0.4112
 8174SOL    HW225964   6.853   1.019   2.294  0.2991 -0.7564 -0.7646
 8175SOL     OW25965   0.255   6.938   2.482  0.3527 -0.0873 -0.1109
 8175SOL    HW125966   0.190   6.919   2.414  0.3937 -0.5578 -0.0200
 8175SOL    HW225967   0.279   6.853   2.517 -0.2447  0.1995  1.0477
 8176SOL     OW25968   2.697   1.506   5.692 -0.0065  0.0258  0.3029
 8176SOL    HW125969   2.676   1.494   5.784 -0.9686 -0.5662  0.0267
 8176SOL    HW225970   2.776   1.560   5.691  0.1970 -0.2404  1.4694
 8177SOL     OW25971   2.946   7.776   0.549 -0.9187  0.1730 -0.4079
 8177SOL    HW125972   3.033   7.763   0.587 -1.8479  1.1180  2.3291
 8177SOL    HW225973   2.888   7.725   0.606 -2.5158  2.3217  0.0147
 8178SOL     OW25974   0.311   2.761  11.340  0.0128 -0.1607 -0.1835
 8178SOL    HW125975   0.228   2.743  11.385 -0.7420 -1.5400 -2.0345
 8178SOL    HW225976   0.285   2.784  11.251  1.6301 -0.2694 -0.6995
 8179SOL     OW25977   1.668   1.623   2.703 -0.6390 -0.2232  0.0530
 8179SOL    HW125978   1.701   1.542   2.664 -0.8038 -0.9623  1.3752
 8179SOL    HW225979   1.732   1.690   2.676 -0.7150 -0.6980 -1.3774
 8180SOL     OW25980   0.116   1.210  12.332 -0.0257  0.2926  0.1127
 8180SOL    HW125981   0.122   1.306  12.328 -2.8317  0.5504  0.3541
 8180SOL    HW225982   0.160   1.187  12.414  1.9789  1.1692 -0.6400
 8181SOL     OW25983   6.904   6.939   9.826 -0.0406 -0.0456 -0.7546
 8181SOL    HW125984   6.981   6.926   9.770 -0.4751 -1.1258 -1.1175
 8181SOL    HW225985   6.875   6.850   9.847 -0.1318  0.3367  0.8566
 8182SOL     OW25986   0.300   6.411   3.179  0.1357  0.7183 -0.3738
 8182SOL    HW125987   0.300   6.499   3.216 -1.8042 -0.6548  3.3658
 8182SOL    HW225988   0.392   6.385   3.180  0.3787  1.3144  2.5032
 8183SOL     OW25989   2.657   5.623   3.788  0.1531 -0.0605 -0.4965
 8183SOL    HW125990   2.670   5.658   3.700  3.0306 -0.3315 -0.2639
 8183SOL    HW225991   2.653   5.701   3.845  3.7661  0.1720 -0.3173
 8184SOL     OW25992   6.936   5.606  10.374 -0.2798  0.4803 -0.3122
 8184SOL    HW125993   6.900   5.536  10.429 -0.5468  1.8313  1.3188
 8184SOL    HW225994   6.957   5.676  10.435  0.7993  1.5114 -1.7986
 8185SOL     OW25995   6.262   3.289   7.214 -0.4682  0.6334  0.2860
 8185SOL    HW125996   6.311   3.368   7.189 -1.9696  1.7761  0.7576
 8185SOL    HW225997   6.248   3.298   7.308 -2.2104  0.7612  0.0499
 8186SOL     OW25998   5.982   2.851   8.709  0.5329 -0.1726 -0.0324
 8186SOL    HW125999   5.986   2.806   8.794  0.3262 -0.3709 -0.1272
 8186SOL    HW226000   5.948   2.785   8.649 -0.8695  0.4255  0.0497
 8187SOL     OW26001   4.168   2.687   7.947  0.4056 -0.2041 -0.1576
 8187SOL    HW126002   4.119   2.770   7.939  1.4987  0.5959  1.0912
 8187SOL    HW226003   4.243   2.709   8.002  0.3797 -2.1978  0.7237
 8188SOL     OW26004   5.863   6.538   7.275 -0.9631 -0.0564 -0.1600
 8188SOL    HW126005   5.832   6.561   7.363 -0.9041  3.5463 -0.9464
 8188SOL    HW226006   5.798   6.577   7.216  0.1323 -0.5692 -1.7580
 8189SOL     OW26007   0.805   4.517   3.118  0.4331  0.0688  0.2351
 8189SOL    HW126008   0.738   4.468   3.165 -1.2321  1.0635 -0.9516
 8189SOL    HW226009   0.780   4.609   3.131  1.2055  0.4336 -0.7478
 8190SOL     OW26010   1.487   7.126   2.511  0.1497  0.1453  0.2638
 8190SOL    HW126011   1.493   7.041   2.467  0.7779  0.1163  0.3985
 8190SOL    HW226012   1.548   7.182   2.463  0.6040  0.1995  0.8838
 8191SOL     OW26013   3.530   1.475   2.268 -0.1545 -0.2975  0.2114
 8191SOL    HW126014   3.526   1.483   2.363  1.0570 -1.7167  0.4173
 8191SOL    HW226015   3.481   1.395   2.248 -0.8247  0.2581 -0.4255
 8192SOL     OW26016   4.930   1.183   6.382 -0.1160 -0.2685 -0.4398
 8192SOL    HW126017   4.961   1.178   6.472  0.0196 -1.4686 -0.5390
 8192SOL    HW226018   4.870   1.258   6.381  0.7757  0.4781  0.3575
 8193SOL     OW26019   3.267   5.510   9.451  0.2203  0.6169 -0.4120
 8193SOL    HW126020   3.247   5.602   9.466  1.3799  0.9249 -0.7050
 8193SOL    HW226021   3.357   5.499   9.482 -0.6364 -0.9611  1.8128
 8194SOL     OW26022   2.264   5.382   8.151  0.4281  0.1574  0.2136
 8194SOL    HW126023   2.246   5.470   8.184  0.0223  0.0783  0.2112
 8194SOL    HW226024   2.308   5.337   8.223 -2.5267 -0.7719  1.6047
 8195SOL     OW26025   2.704   6.687   5.972 -0.4580 -0.5676  0.0591
 8195SOL    HW126026   2.708   6.713   5.880  1.2826  0.0064  0.2548
 8195SOL    HW226027   2.665   6.762   6.016  1.6218  0.5253  0.1761
 8196SOL     OW26028   2.582   6.161   9.093 -0.1980  0.0953  0.3957
 8196SOL    HW126029   2.534   6.082   9.119 -0.0767 -0.0233  0.2550
 8196SOL    HW226030   2.531   6.196   9.019  0.0410 -0.1396  0.1177
 8197SOL     OW26031   5.108   6.846  10.673  0.1419 -0.6646  0.3353
 8197SOL    HW126032   5.181   6.793  10.704  0.4828  0.0462  0.7776
 8197SOL    HW226033   5.132   6.871  10.584 -0.7105 -2.4779 -0.4543
 8198SOL     OW26034   4.391   7.698   2.202  0.3993 -0.2675 -0.0359
 8198SOL    HW126035   4.404   7.604   2.216 -0.8805 -0.1980  2.0297
 8198SOL    HW226036   4.402   7.710   2.107  0.1765 -2.5479 -0.4066
 8199SOL     OW26037   6.520   1.710   3.258 -0.2440  0.1291 -0.2741
 8199SOL    HW126038   6.609   1.675   3.271 -0.4656 -0.6277 -0.7564
 8199SOL    HW226039   6.481   1.707   3.346  0.4268  1.1105  0.0722
 8200SOL     OW26040   6.337   5.639   2.427  0.4029  0.3286 -0.8007
 8200SOL    HW126041   6.384   5.608   2.504 -1.0149  2.0352  0.8539
 8200SOL    HW226042   6.317   5.560   2.377  2.0587 -0.7432  0.1542
 8201SOL     OW26043   3.528   0.499   6.132  0.2544  0.6613 -0.0926
 8201SOL    HW126044   3.615   0.471   6.159 -0.1396 -0.6025 -0.0971
 8201SOL    HW226045   3.482   0.418   6.110 -0.7580  1.3513 -0.5921
 8202SOL     OW26046   6.389   5.708   3.570 -0.5464  0.7543  0.1245
 8202SOL    HW126047   6.357   5.620   3.549 -0.7292  0.8914 -0.1752
 8202SOL    HW226048   6.479   5.708   3.537 -0.6716  0.8038 -0.2260
 8203SOL     OW26049   6.112   0.191   4.859  0.6159  0.0193 -0.3117
 8203SOL    HW126050   6.088   0.284   4.856  1.4865  0.2578 -0.1843
 8203SOL    HW226051   6.120   0.166   4.767  1.2792  0.3244 -0.3466
 8204SOL     OW26052   5.755   6.327  10.294 -0.1414  0.0754 -0.0534
 8204SOL    HW126053   5.688   6.389  10.266 -0.2434 -0.6368 -1.4437
 8204SOL    HW226054   5.796   6.297  10.213  0.5551 -0.9558  0.6556
 8205SOL     OW26055   2.468   4.685   9.418 -0.4490 -0.1646 -0.4962
 8205SOL    HW126056   2.387   4.652   9.379 -1.0765  1.4151 -0.6295
 8205SOL    HW226057   2.504   4.611   9.467 -1.8007 -0.9883 -0.7089
 8206SOL     OW26058   0.324   7.312   8.587  0.1779 -0.0269  0.1392
 8206SOL    HW126059   0.385   7.383   8.608  0.0665  0.2280 -0.3818
 8206SOL    HW226060   0.244   7.356   8.558 -0.4475 -0.3531  1.2967
 8207SOL     OW26061   7.470   1.765  10.140  0.4942 -0.2467 -0.1932
 8207SOL    HW126062   7.494   1.856  10.118  1.7436 -0.2574  0.9920
 8207SOL    HW226063   7.528   1.712  10.086  0.8793 -0.3030  0.2626
 8208SOL     OW26064   4.585   2.256   5.152  0.0853  0.2402 -0.2307
 8208SOL    HW126065   4.614   2.165   5.154 -0.8249 -0.0807 -1.3086
 8208SOL    HW226066   4.634   2.295   5.080  1.9684  1.1713  1.4212
 8209SOL     OW26067   0.456   3.805  11.605  0.2013  0.2526  0.3233
 8209SOL    HW126068   0.506   3.859  11.666 -0.1205  1.6876 -0.6276
 8209SOL    HW226069   0.374   3.853  11.593  0.2367 -0.0237 -1.1765
 8210SOL     OW26070   2.482   7.379   3.877 -0.2128  0.0191 -0.3720
 8210SOL    HW126071   2.400   7.357   3.833  1.2065 -1.5440 -2.4368
 8210SOL    HW226072   2.494   7.311   3.943 -0.6422  0.3574  0.0624
 8211SOL     OW26073   5.113   3.465   8.238 -0.1473 -0.6989  0.6001
 8211SOL    HW126074   5.085   3.490   8.150  0.5744  0.5507  0.7013
 8211SOL    HW226075   5.207   3.448   8.229 -0.1308 -0.8527  1.0675
 8212SOL     OW26076   4.486   7.246  12.068 -0.0863  0.5274  0.4159
 8212SOL    HW126077   4.487   7.324  12.013  0.7164 -0.0321 -0.4035
 8212SOL    HW226078   4.396   7.240  12.100 -0.0746  1.9652  0.7821
 8213SOL     OW26079   2.983   4.634   3.371 -0.4352  0.2893  0.1966
 8213SOL    HW126080   2.964   4.693   3.443 -2.5073  1.0346 -0.8802
 8213SOL    HW226081   2.930   4.556   3.389  0.0262 -0.0352  0.1469
 8214SOL     OW26082   0.239   4.164   6.577  0.1372  0.2445 -0.4598
 8214SOL    HW126083   0.216   4.241   6.525 -2.2424  0.3551  0.5966
 8214SOL    HW226084   0.265   4.200   6.662  0.8692 -0.0618 -0.5484
 8215SOL     OW26085   2.556   0.160  10.245 -0.3219 -0.4312 -0.0737
 8215SOL    HW126086   2.546   0.065  10.247  0.4033 -0.4984  1.3624
 8215SOL    HW226087   2.535   0.184  10.154  1.5398 -2.2132 -1.0602
 8216SOL     OW26088   4.233   4.339  11.826 -0.6093  0.2992 -0.3278
 8216SOL    HW126089   4.158   4.350  11.884 -0.9301 -1.1465 -0.4242
 8216SOL    HW226090   4.244   4.244  11.820  1.3367  0.4847 -0.1881
 8217SOL     OW26091   0.102   7.913   0.306  0.0665  0.3957 -0.3518
 8217SOL    HW126092   0.121   7.876   0.219 -1.4925 -0.3210 -0.4111
 8217SOL    HW226093   0.183   7.958   0.330  0.8861 -0.2566 -1.7328
 8218SOL     OW26094   4.088   7.380   0.315  0.5241 -0.0714 -1.4569
 8218SOL    HW126095   4.007   7.416   0.280 -0.0324  2.1455  1.6249
 8218SOL    HW226096   4.060   7.306   0.369  0.4038  1.0500  0.0727
 8219SOL     OW26097   7.638   2.127   9.936 -0.5298 -0.1543 -0.6529
 8219SOL    HW126098   7.576   2.107  10.006  0.0412 -1.4916 -0.5045
 8219SOL    HW226099   7.594   2.096   9.856 -0.1074 -1.0352 -0.5567
 8220SOL     OW26100   3.632   2.914  11.348 -0.2473 -0.3050  0.6234
 8220SOL    HW126101   3.542   2.947  11.345 -0.7418 -1.5617  0.9128
 8220SOL    HW226102   3.636   2.847  11.279 -0.4649 -2.3719  2.4979
 8221SOL     OW26103   3.532   2.013   5.495  0.2605 -0.2109  0.4039
 8221SOL    HW126104   3.535   2.009   5.399  0.3836 -0.2589  0.4082
 8221SOL    HW226105   3.537   2.106   5.515 -2.6811  0.0491  0.2932
 8222SOL     OW26106   7.669   7.119  11.349 -0.2286 -0.0532 -0.3816
 8222SOL    HW126107   7.708   7.203  11.324  0.6238 -0.5455 -0.7695
 8222SOL    HW226108   7.660   7.071  11.267  1.9764 -1.4241  0.0869
 8223SOL     OW26109   7.001   2.906   6.087  0.1458 -0.2584  0.2066
 8223SOL    HW126110   6.989   2.878   5.997 -0.6718 -1.0061  0.5384
 8223SOL    HW226111   6.938   2.855   6.137 -0.0800  0.8325  1.0785
 8224SOL     OW26112   4.362   1.727   4.716  0.4311 -0.5734 -0.1727
 8224SOL    HW126113   4.396   1.799   4.662  0.8889  0.1403  1.0224
 8224SOL    HW226114   4.333   1.662   4.653  1.2906  0.0684 -1.2806
 8225SOL     OW26115   1.751   1.533   3.120 -0.9602  0.4488 -0.1377
 8225SOL    HW126116   1.673   1.493   3.082 -0.5144 -0.7353  0.1347
 8225SOL    HW226117   1.809   1.459   3.137  0.6154  1.3836 -1.2057
 8226SOL     OW26118   0.063   6.190   3.152  0.3984  0.4992 -0.5464
 8226SOL    HW126119   0.149   6.154   3.130  1.0056  1.9478 -0.6377
 8226SOL    HW226120   0.076   6.233   3.237 -1.1109 -2.1816  1.2053
 8227SOL     OW26121   1.224   7.734   5.366 -0.1942  0.2513 -0.2812
 8227SOL    HW126122   1.310   7.704   5.394 -0.8546 -0.3691  1.1876
 8227SOL    HW226123   1.179   7.655   5.337  0.4080  0.8421 -3.1802
 8228SOL     OW26124   5.473   6.617   3.957 -0.2575  0.6912  0.2113
 8228SOL    HW126125   5.430   6.605   3.872  0.1068  1.0507 -0.0280
 8228SOL    HW226126   5.544   6.678   3.939 -0.1380  0.7176  0.7662
 8229SOL     OW26127   2.117   0.932   2.811  0.5533  0.8583 -0.2030
 8229SOL    HW126128   2.147   0.890   2.731  0.1733  0.9492 -0.3998
 8229SOL    HW226129   2.024   0.951   2.795  0.3107  0.3173  0.4944
 8230SOL     OW26130   4.746   2.910   3.424 -0.5265  0.3594 -0.5986
 8230SOL    HW126131   4.794   2.827   3.417 -2.8229 -1.4167  2.3420
 8230SOL    HW226132   4.659   2.890   3.387 -1.3763  1.1730  0.8746
 8231SOL     OW26133   2.947   2.805   1.217 -0.4815 -0.1577  0.1932
 8231SOL    HW126134   3.013   2.875   1.213 -2.2385  1.5600 -0.5438
 8231SOL    HW226135   2.944   2.780   1.309  0.8135  0.0968  0.3249
 8232SOL     OW26136   7.557   0.475   0.766 -0.1943 -0.2145  0.0593
 8232SOL    HW126137   7.548   0.476   0.671 -4.0400  0.7552  0.2869
 8232SOL    HW226138   7.560   0.382   0.789  0.7859 -0.4532 -0.9526
 8233SOL     OW26139   6.724   3.286   0.635 -0.3467  0.0007 -0.4683
 8233SOL    HW126140   6.634   3.269   0.608 -0.3070 -1.0501  0.0264
 8233SOL    HW226141   6.735   3.237   0.716  0.4856  0.6273 -0.1837
 8234SOL     OW26142   1.659   3.367   1.379  0.0152  0.1213  0.0177
 8234SOL    HW126143   1.712   3.441   1.406 -1.3057  0.9665  0.3881
 8234SOL    HW226144   1.610   3.342   1.457  0.4505 -1.1784 -0.0926
 8235SOL     OW26145   7.159   3.620   1.599 -0.5084 -0.2587 -0.4809
 8235SOL    HW126146   7.152   3.552   1.531 -0.2874 -0.2614 -0.5008
 8235SOL    HW226147   7.237   3.670   1.575 -1.3959  0.8325 -1.2178
 8236SOL     OW26148   7.522   1.202   4.816 -0.3029  0.4322  0.1729
 8236SOL    HW126149   7.596   1.159   4.774 -0.1037 -0.1751  1.1182
 8236SOL    HW226150   7.447   1.144   4.800  0.0831 -0.6506  1.9658
 8237SOL     OW26151   3.361   1.753   1.375 -0.6099  0.1323  0.1583
 8237SOL    HW126152   3.388   1.842   1.397 -0.8793  0.7919 -1.9786
 8237SOL    HW226153   3.398   1.737   1.288  0.4040 -2.2976  0.9476
 8238SOL     OW26154   0.897   5.728   9.189  0.0845  0.3420  0.2716
 8238SOL    HW126155   0.959   5.797   9.212 -0.3575  0.6285  0.6249
 8238SOL    HW226156   0.952   5.655   9.161  0.7219 -0.1829  2.5915
 8239SOL     OW26157   3.717   6.966   8.213 -0.4327 -0.0544 -0.4332
 8239SOL    HW126158   3.699   6.965   8.307 -0.8175  1.7845 -0.4393
 8239SOL    HW226159   3.637   6.933   8.173  0.0958 -1.8340 -0.1229
 8240SOL     OW26160   6.300   0.151   1.028  0.8655  0.5003 -0.1213
 8240SOL    HW126161   6.295   0.062   1.063 -0.5746  1.6171  2.9176
 8240SOL    HW226162   6.386   0.182   1.055 -0.0473  1.1843  2.3037
 8241SOL     OW26163   5.688   7.879   6.765  0.1772 -0.5601 -0.3683
 8241SOL    HW126164   5.608   7.927   6.744 -0.0288 -0.5569  0.4031
 8241SOL    HW226165   5.702   7.895   6.859  1.9452  0.7332 -0.8051
 8242SOL     OW26166   2.590   1.002   6.885  0.4195 -0.2688 -0.3039
 8242SOL    HW126167   2.686   1.002   6.886  0.4473  0.9005  0.7611
 8242SOL    HW226168   2.565   0.963   6.968  0.0173  0.6664  0.0351
 8243SOL     OW26169   7.186   4.991   1.754  0.3024  0.0156 -0.3143
 8243SOL    HW126170   7.133   4.939   1.694  1.6189 -1.1130 -0.5441
 8243SOL    HW226171   7.249   4.929   1.790  0.9070  1.1366  0.6077
 8244SOL     OW26172   4.744   6.480   6.529  0.4068  0.6429 -0.6157
 8244SOL    HW126173   4.678   6.413   6.511  0.4114  0.6920 -0.8170
 8244SOL    HW226174   4.727   6.507   6.620 -0.6971  1.6089 -1.0782
 8245SOL     OW26175   3.417   5.463   6.118  0.5480  0.1570  0.5638
 8245SOL    HW126176   3.456   5.542   6.155 -0.9081  1.0892  0.2127
 8245SOL    HW226177   3.412   5.402   6.191  2.6356 -0.0112  0.6054
 8246SOL     OW26178   1.473   1.354   6.100  0.4036 -0.0366  0.4325
 8246SOL    HW126179   1.475   1.363   6.195 -0.6344  1.2104  0.3646
 8246SOL    HW226180   1.447   1.263   6.085 -3.0669  0.6195  1.4252
 8247SOL     OW26181   2.363   6.762   7.484  0.5171  0.4664 -0.1896
 8247SOL    HW126182   2.356   6.695   7.551  3.3541  2.7066  2.6614
 8247SOL    HW226183   2.452   6.796   7.492 -0.6954  4.5678 -1.3093
 8248SOL     OW26184   0.322   2.529   5.735 -0.0160 -0.0017  0.0528
 8248SOL    HW126185   0.307   2.464   5.804 -1.3510 -0.3609 -0.5276
 8248SOL    HW226186   0.361   2.479   5.663  0.6639  0.2146  0.2729
 8249SOL     OW26187   3.109   2.047   7.200  0.4944 -0.2018 -0.1945
 8249SOL    HW126188   3.139   2.138   7.190 -1.3793  0.7596  1.8672
 8249SOL    HW226189   3.028   2.043   7.149  0.6174 -0.7520 -0.3496
 8250SOL     OW26190   3.088   6.518   9.618 -0.2889 -0.2571 -0.2707
 8250SOL    HW126191   3.128   6.542   9.702  1.5683 -2.3929 -0.4798
 8250SOL    HW226192   3.062   6.602   9.580  1.3757  1.0118  1.2019
 8251SOL     OW26193   1.320   5.551   1.948  0.1076  0.2311 -0.4014
 8251SOL    HW126194   1.359   5.625   1.902  0.3696 -0.3462 -1.1117
 8251SOL    HW226195   1.269   5.505   1.882 -2.1099  1.1407  0.5529
 8252SOL     OW26196   1.772   6.096   5.430  0.0000 -0.6149  0.3078
 8252SOL    HW126197   1.821   6.177   5.420 -0.6800 -0.1165  0.8415
 8252SOL    HW226198   1.833   6.035   5.471  0.0540  0.1335  1.3889
 8253SOL     OW26199   1.826   2.334   0.126 -0.3256 -0.0456  0.0758
 8253SOL    HW126200   1.835   2.385   0.206  0.7916 -1.9499  1.2503
 8253SOL    HW226201   1.735   2.305   0.126 -0.4886  0.4602  0.3163
 8254SOL     OW26202   1.019   2.764   7.496 -0.2525 -0.1505  0.1280
 8254SOL    HW126203   1.083   2.835   7.503 -0.4080 -0.0762  0.7985
 8254SOL    HW226204   0.971   2.766   7.579 -0.5478 -0.7615 -0.0242
 8255SOL     OW26205   1.302   5.923  12.330 -0.4589  0.1309 -0.0117
 8255SOL    HW126206   1.363   5.990  12.299  0.3477  0.2759  1.7207
 8255SOL    HW226207   1.225   5.972  12.358 -0.9853  0.0458 -1.2617
 8256SOL     OW26208   3.339   0.250   1.379  0.6596  0.2413  0.3169
 8256SOL    HW126209   3.354   0.241   1.285  0.2227 -0.7147  0.3254
 8256SOL    HW226210   3.424   0.275   1.415  1.2121 -0.9103 -0.1522
 8257SOL     OW26211   0.082   1.204   2.803  0.4898  0.4986  0.4683
 8257SOL    HW126212   0.140   1.147   2.752 -0.5368 -0.5041  0.3853
 8257SOL    HW226213   0.075   1.283   2.750  2.4444  1.0036  0.8920
 8258SOL     OW26214   1.952   5.698  12.040  0.0157 -0.0561 -0.5949
 8258SOL    HW126215   1.999   5.779  12.020 -0.8419  1.0675  1.5766
 8258SOL    HW226216   1.862   5.715  12.010 -0.4027  0.2267  0.7640
 8259SOL     OW26217   2.645   2.405   1.857 -0.0542  0.4351 -0.0719
 8259SOL    HW126218   2.723   2.380   1.908 -0.1639  1.3568  0.5726
 8259SOL    HW226219   2.677   2.472   1.796 -0.1552  0.1320 -0.4593
 8260SOL     OW26220   1.563   0.780  11.662 -0.1687 -0.5533 -0.4405
 8260SOL    HW126221   1.498   0.793  11.593 -0.0716  1.1482 -0.2454
 8260SOL    HW226222   1.560   0.861  11.713  2.3467 -0.2799 -0.6123
 8261SOL     OW26223   3.590   0.459   2.604  0.4032  0.7221 -0.1288
 8261SOL    HW126224   3.663   0.482   2.547  0.1309  0.2722 -0.6615
 8261SOL    HW226225   3.568   0.541   2.649  0.7368  1.0349 -0.5282
 8262SOL     OW26226   1.951   6.707   9.127 -0.2666 -0.1328  0.0999
 8262SOL    HW126227   1.923   6.797   9.115  0.1709  0.4762  2.9494
 8262SOL    HW226228   1.870   6.656   9.124 -0.9145  0.7582  1.3271
 8263SOL     OW26229   0.904   5.388   4.215 -0.5031 -0.2351  0.1518
 8263SOL    HW126230   0.945   5.370   4.131 -1.0684  0.3147 -0.2516
 8263SOL    HW226231   0.965   5.353   4.280  1.2898  1.7980 -0.3534
 8264SOL     OW26232   4.071   1.902  10.932 -0.0057  0.0915 -0.4493
 8264SOL    HW126233   4.087   1.936  11.020  1.5362  1.4017 -1.1795
 8264SOL    HW226234   4.130   1.827  10.924  0.0374  0.1249 -0.4478
 8265SOL     OW26235   5.743   0.507   8.267  0.3748 -0.4187  0.1878
 8265SOL    HW126236   5.655   0.472   8.256  0.0333  0.6313 -0.5745
 8265SOL    HW226237   5.769   0.478   8.355 -1.5801  1.0320  1.3213
 8266SOL     OW26238   6.196   7.465   9.808 -0.3481  0.2582 -0.5223
 8266SOL    HW126239   6.149   7.469   9.891  3.6958 -1.5196  2.1322
 8266SOL    HW226240   6.227   7.554   9.793  2.4771 -0.0916  2.3580
 8267SOL     OW26241   7.119   7.562   7.367 -0.1315 -0.2033 -0.3238
 8267SOL    HW126242   7.108   7.470   7.346 -1.5178  0.2418 -1.6964
 8267SOL    HW226243   7.068   7.609   7.301 -0.6621  1.4895  1.1834
 8268SOL     OW26244   1.521   5.668   5.053  0.2537 -0.5880  0.1888
 8268SOL    HW126245   1.462   5.731   5.095  0.1561  0.0745 -0.9115
 8268SOL    HW226246   1.480   5.583   5.067 -0.3887 -0.2489  0.3867
 8269SOL     OW26247   5.443   4.862   2.464 -0.1607 -0.4255  0.4598
 8269SOL    HW126248   5.416   4.800   2.396  2.2046 -0.1724 -0.8202
 8269SOL    HW226249   5.416   4.947   2.431  0.7877 -0.3270 -0.1064
 8270SOL     OW26250   1.510   3.214  10.903  0.1387  0.4338 -0.1482
 8270SOL    HW126251   1.562   3.293  10.896  1.6129 -0.3437  1.3222
 8270SOL    HW226252   1.566   3.145  10.868  0.0516 -0.3766  1.2121
 8271SOL     OW26253   4.117   7.289   0.826 -0.4622 -0.1976  0.5172
 8271SOL    HW126254   4.039   7.344   0.822  0.7294  1.5867  0.2918
 8271SOL    HW226255   4.181   7.343   0.873  0.8188 -1.3596  0.1612
 8272SOL     OW26256   0.477   1.715   1.403  0.5765  0.5523 -0.0745
 8272SOL    HW126257   0.547   1.664   1.445  0.8008  0.9399  0.0282
 8272SOL    HW226258   0.398   1.663   1.418  0.3822  1.3822  2.1462
 8273SOL     OW26259   1.950   3.827   4.009 -0.5001 -0.4456 -0.4015
 8273SOL    HW126260   1.879   3.764   3.996 -0.9331 -0.1262  0.3604
 8273SOL    HW226261   1.926   3.875   4.088  0.9501 -0.8608  0.3311
 8274SOL     OW26262   7.940   0.618   4.602  0.4924 -0.2538  0.3741
 8274SOL    HW126263   7.929   0.523   4.611  0.2430 -0.3666 -0.8940
 8274SOL    HW226264   7.952   0.649   4.691 -1.0641 -1.2707  0.9873
 8275SOL     OW26265   4.727   6.040   2.450  0.5204 -0.6089 -0.2891
 8275SOL    HW126266   4.696   6.080   2.368  2.2658  0.3454 -0.5281
 8275SOL    HW226267   4.730   6.112   2.512  0.2371 -1.1191  0.3266
 8276SOL     OW26268   3.095   4.379   7.225  0.2008 -0.6812  0.5471
 8276SOL    HW126269   3.190   4.382   7.236  0.4324 -1.2700 -0.9873
 8276SOL    HW226270   3.060   4.366   7.313  1.5554 -0.7622  1.0924
 8277SOL     OW26271   1.762   5.108  10.329 -0.2220  0.2175  0.1540
 8277SOL    HW126272   1.765   5.201  10.306  1.2616 -0.0985 -1.1628
 8277SOL    HW226273   1.820   5.100  10.404  2.6149 -0.0905 -1.8969
 8278SOL     OW26274   5.410   2.979  11.578 -0.0171 -0.1820 -0.5118
 8278SOL    HW126275   5.341   3.042  11.598 -0.9081 -1.0846 -0.6462
 8278SOL    HW226276   5.417   2.925  11.656 -0.0826 -0.6528 -0.8296
 8279SOL     OW26277   3.904   5.737   0.400 -0.0130 -0.0920  0.0651
 8279SOL    HW126278   3.919   5.656   0.451 -0.1628  0.6959  1.4194
 8279SOL    HW226279   3.920   5.807   0.463  1.6576  0.9986 -1.4976
 8280SOL     OW26280   5.120   6.066   9.988 -0.4246  0.8606 -0.4747
 8280SOL    HW126281   5.207   6.075  10.026 -1.1248  1.6054  1.0232
 8280SOL    HW226282   5.131   6.002   9.917  1.9008  2.9670 -2.1817
 8281SOL     OW26283   6.746   4.875   8.477 -0.0735 -0.4901  0.0979
 8281SOL    HW126284   6.770   4.797   8.428  0.6566  0.9206 -1.9048
 8281SOL    HW226285   6.752   4.947   8.414 -1.4832  1.1071  1.6538
 8282SOL     OW26286   3.493   7.734   8.926 -0.0642  0.5190  0.5364
 8282SOL    HW126287   3.562   7.786   8.885 -0.2939  0.0993 -0.4283
 8282SOL    HW226288   3.471   7.781   9.006  0.3903  1.3876  0.1628
 8283SOL     OW26289   7.368   7.660   1.942 -0.3340  0.3846 -0.0894
 8283SOL    HW126290   7.383   7.577   1.896 -2.2805  0.7980 -1.6484
 8283SOL    HW226291   7.322   7.635   2.022  1.5227 -0.2095  0.8414
 8284SOL     OW26292   0.873   2.789  11.659 -0.2694 -0.1877 -0.3332
 8284SOL    HW126293   0.896   2.862  11.601 -1.3727 -0.3947 -1.0618
 8284SOL    HW226294   0.898   2.711  11.610  0.1204 -0.3244  0.0844
 8285SOL     OW26295   5.630   5.805   3.847 -0.1630  1.4631  0.1458
 8285SOL    HW126296   5.617   5.893   3.884  1.9510  2.2744 -0.8482
 8285SOL    HW226297   5.673   5.821   3.763 -0.3838 -0.5273 -0.3919
 8286SOL     OW26298   2.338   2.711   0.254  0.0806 -0.3882 -0.1855
 8286SOL    HW126299   2.381   2.697   0.338  0.3298 -0.5014 -0.3305
 8286SOL    HW226300   2.343   2.805   0.240 -1.6413 -0.1094  0.8177
 8287SOL     OW26301   3.661   4.265   6.538 -0.3537  1.0036  0.4303
 8287SOL    HW126302   3.574   4.294   6.512 -0.2004 -0.0965 -1.5054
 8287SOL    HW226303   3.674   4.182   6.493  0.2634 -0.8144  3.6904
 8288SOL     OW26304   0.946   2.489   0.918 -0.1075 -0.3654 -0.1460
 8288SOL    HW126305   0.883   2.536   0.972 -0.4408 -0.7545 -0.1990
 8288SOL    HW226306   1.031   2.517   0.951 -0.2656  1.3818 -1.0832
 8289SOL     OW26307   7.955   1.618   1.637 -0.3074  0.2896 -0.0669
 8289SOL    HW126308   7.977   1.705   1.603 -0.7203 -0.0356 -1.2015
 8289SOL    HW226309   7.890   1.635   1.705  0.0370  0.9075  0.1222
 8290SOL     OW26310   3.398   4.299  10.905  0.1384 -0.7049 -0.2202
 8290SOL    HW126311   3.469   4.237  10.918 -0.5091 -1.4353 -0.0873
 8290SOL    HW226312   3.369   4.285  10.815 -0.4378 -1.0603  0.0168
 8291SOL     OW26313   4.077   2.206   7.463 -0.6370 -0.3566  0.5357
 8291SOL    HW126314   4.048   2.297   7.470  1.7477  0.4699  0.8021
 8291SOL    HW226315   4.164   2.206   7.503  0.5981 -2.1234 -1.8534
 8292SOL     OW26316   2.776   1.798   9.685 -0.3628 -0.3355  0.6705
 8292SOL    HW126317   2.690   1.834   9.706 -0.3213  0.3307 -0.2396
 8292SOL    HW226318   2.792   1.825   9.594  0.9470 -0.1307  0.9377
 8293SOL     OW26319   1.569   3.359   6.357  0.1238 -0.4159 -0.2342
 8293SOL    HW126320   1.649   3.307   6.370 -0.5059 -1.0491  1.4662
 8293SOL    HW226321   1.499   3.293   6.348 -0.6032  0.0858  1.3586
 8294SOL     OW26322   7.249   2.451   6.387 -0.1442  0.0647  0.6747
 8294SOL    HW126323   7.277   2.368   6.349 -0.3293 -0.1557  1.0123
 8294SOL    HW226324   7.329   2.493   6.415  0.0246  0.3628 -0.2171
 8295SOL     OW26325   0.562   6.237  11.483  0.0829 -0.2904 -0.1900
 8295SOL    HW126326   0.520   6.154  11.462 -1.8669  0.1075  1.7740
 8295SOL    HW226327   0.643   6.212  11.529 -1.2788 -1.2198  1.8816
 8296SOL     OW26328   5.592   6.251   0.544  0.0477 -0.4522  0.6385
 8296SOL    HW126329   5.570   6.315   0.612 -0.9109 -1.1934  1.0468
 8296SOL    HW226330   5.515   6.250   0.487  1.1498  0.7616 -0.9697
 8297SOL     OW26331   4.084   2.581   4.644  0.0496  0.4995  0.7017
 8297SOL    HW126332   4.000   2.614   4.677  0.7019  3.0015  0.0514
 8297SOL    HW226333   4.137   2.567   4.723 -0.3653  0.7138  1.0210
 8298SOL     OW26334   6.944   1.400  12.024 -0.2122  0.2094  0.2082
 8298SOL    HW126335   6.994   1.438  11.952 -0.1215 -0.8568 -0.3106
 8298SOL    HW226336   6.986   1.315  12.040 -0.8299  0.0220  0.8722
 8299SOL     OW26337   2.078   4.821   7.551 -0.2931  0.1124 -0.3525
 8299SOL    HW126338   1.994   4.789   7.584 -1.4113  2.4018 -0.7560
 8299SOL    HW226339   2.117   4.867   7.626  0.3435 -0.4474 -0.3340
 8300SOL     OW26340   3.638   4.068   3.850  0.8806 -0.0597 -0.1417
 8300SOL    HW126341   3.555   4.113   3.866  0.7831 -0.3678  0.2241
 8300SOL    HW226342   3.632   4.039   3.759 -0.2384 -1.7585  0.4219
 8301SOL     OW26343   1.956   0.203   7.246  0.4685 -0.4984 -0.3904
 8301SOL    HW126344   1.937   0.187   7.153  0.9059  0.5395 -0.6711
 8301SOL    HW226345   2.001   0.123   7.274  0.6002 -0.7074 -1.1544
 8302SOL     OW26346   0.403   5.071   2.306  0.5443 -0.0526  0.3187
 8302SOL    HW126347   0.362   5.028   2.231 -0.2489  1.8508 -0.3951
 8302SOL    HW226348   0.423   5.000   2.366  0.6443 -1.5701 -1.4265
 8303SOL     OW26349   6.082   3.267  10.659  0.0481 -0.0876 -0.4865
 8303SOL    HW126350   5.991   3.244  10.639 -0.3788  1.5219 -0.5267
 8303SOL    HW226351   6.100   3.342  10.602  0.6081  1.1334  1.2484
 8304SOL     OW26352   5.304   0.857  11.371 -0.3542 -0.0498  0.5151
 8304SOL    HW126353   5.361   0.802  11.424 -0.3698  0.8622  1.5175
 8304SOL    HW226354   5.216   0.838  11.403 -0.2429  1.8431  2.2121
 8305SOL     OW26355   6.163   1.623   0.064  0.1035 -0.7816 -0.7185
 8305SOL    HW126356   6.167   1.597  -0.028  2.0726 -0.6085 -0.7338
 8305SOL    HW226357   6.078   1.592   0.094 -0.5751 -0.8561 -2.5869
 8306SOL     OW26358   0.738   4.007   4.612 -0.0125  0.9520  0.1058
 8306SOL    HW126359   0.786   4.066   4.670 -1.1547  0.3660  1.7211
 8306SOL    HW226360   0.662   3.979   4.663 -0.6060 -0.2961 -1.3635
 8307SOL     OW26361   3.157   3.750   8.801  0.2894  0.8994  0.2737
 8307SOL    HW126362   3.120   3.756   8.713 -2.2423  0.4547  1.2257
 8307SOL    HW226363   3.091   3.789   8.857  1.7624  0.9849  2.0236
 8308SOL     OW26364   1.917   6.801   2.518  0.2710 -0.0441  0.3406
 8308SOL    HW126365   1.859   6.757   2.456 -1.1930 -0.8927  2.2340
 8308SOL    HW226366   1.956   6.730   2.569 -0.6116  0.6857  2.1248
 8309SOL     OW26367   7.330   0.478   4.311  0.0897  0.4931  0.2455
 8309SOL    HW126368   7.395   0.467   4.241  1.3669 -1.5621  1.6525
 8309SOL    HW226369   7.249   0.443   4.273  1.1249 -2.1056  0.2163
 8310SOL     OW26370   7.707   4.569   4.006  0.1788  0.2470 -0.0286
 8310SOL    HW126371   7.717   4.621   3.925  1.2088 -1.0099 -0.7343
 8310SOL    HW226372   7.637   4.614   4.053 -0.5974  0.9186 -1.7087
 8311SOL     OW26373   3.287   7.136   5.780 -0.4260  0.1359 -0.3624
 8311SOL    HW126374   3.215   7.121   5.719 -0.6960  0.4930 -0.1319
 8311SOL    HW226375   3.258   7.209   5.835  0.3715  0.6918 -0.6698
 8312SOL     OW26376   7.191   4.057   9.623 -0.0685  0.2361 -0.1862
 8312SOL    HW126377   7.242   3.987   9.582 -0.3998 -0.0522 -0.1148
 8312SOL    HW226378   7.257   4.116   9.659  0.2186  0.0393 -0.3768
 8313SOL     OW26379   4.162   4.023   8.973 -0.2204 -0.0273 -0.2224
 8313SOL    HW126380   4.147   3.931   8.952 -0.3879  0.0428 -0.4135
 8313SOL    HW226381   4.257   4.030   8.982 -0.2986 -0.5095  1.1844
 8314SOL     OW26382   7.630   5.482   5.765  0.4229  0.7768  0.5820
 8314SOL    HW126383   7.575   5.444   5.697  0.9850 -1.5653  1.3270
 8314SOL    HW226384   7.599   5.572   5.774 -0.3695  0.8409 -1.9868
 8315SOL     OW26385   4.583   5.954  11.525 -0.2377  0.6341  0.6099
 8315SOL    HW126386   4.565   5.905  11.445 -0.0958  2.3182 -0.5023
 8315SOL    HW226387   4.584   5.888  11.594  0.4990 -0.9968 -0.8917
 8316SOL     OW26388   2.971   2.730  10.425  0.5756  0.5610  0.1349
 8316SOL    HW126389   2.979   2.731  10.520  1.0758  1.5897  0.0942
 8316SOL    HW226390   3.047   2.779  10.394  0.2867  0.4444 -0.7854
 8317SOL     OW26391   0.137   5.590   5.904 -0.0730  0.2811  0.5879
 8317SOL    HW126392   0.107   5.567   5.992 -0.9849 -0.7582  0.0361
 8317SOL    HW226393   0.069   5.554   5.846  1.7876 -1.3797 -0.6818
 8318SOL     OW26394   6.258   4.750   9.217 -0.0704 -0.2131  0.2686
 8318SOL    HW126395   6.241   4.837   9.181 -1.8524  0.0090  1.4929
 8318SOL    HW226396   6.172   4.721   9.248  0.7013 -1.9652  0.8459
 8319SOL     OW26397   0.074   1.005   1.698  0.3472 -0.7888  0.1634
 8319SOL    HW126398   0.158   1.001   1.743 -0.0216 -1.2029  0.8203
 8319SOL    HW226399   0.028   1.079   1.737  0.3973 -0.5679 -0.1874
 8320SOL     OW26400   6.299   5.647   8.259 -0.0797  0.1329 -0.3576
 8320SOL    HW126401   6.289   5.689   8.174 -1.4208 -1.2082 -0.9235
 8320SOL    HW226402   6.389   5.666   8.285 -0.0782  1.7552 -1.4081
 8321SOL     OW26403   2.558   5.722  11.398  0.4093  0.8076  0.2531
 8321SOL    HW126404   2.496   5.780  11.441 -1.7488 -1.8122  0.9600
 8321SOL    HW226405   2.638   5.728  11.451 -0.1098  2.2748  0.9058
 8322SOL     OW26406   0.433   0.828   8.471  0.4129 -0.3603 -0.6652
 8322SOL    HW126407   0.344   0.815   8.504  0.0650 -1.1827 -1.8613
 8322SOL    HW226408   0.486   0.766   8.521  0.3307  0.1507  0.0698
 8323SOL     OW26409   3.139   0.517  10.984  0.2461 -0.6938  0.6662
 8323SOL    HW126410   3.061   0.561  11.017  1.1868  1.8353 -0.2888
 8323SOL    HW226411   3.196   0.509  11.060  0.0479 -0.2922  0.8582
 8324SOL     OW26412   3.726   7.553   7.242  0.0921 -0.7423 -0.2557
 8324SOL    HW126413   3.763   7.496   7.309  0.8030 -0.4354 -0.3775
 8324SOL    HW226414   3.724   7.500   7.163 -0.8776 -1.1507  0.0236
 8325SOL     OW26415   3.049   1.397  11.944  0.0734 -0.3215  0.0113
 8325SOL    HW126416   3.017   1.375  11.856 -0.0922  2.4956 -0.7333
 8325SOL    HW226417   2.972   1.429  11.990  0.3954 -0.6126  0.7568
 8326SOL     OW26418   3.297   0.578  10.538 -0.1070 -0.1859  0.1434
 8326SOL    HW126419   3.255   0.597  10.621  0.8383  0.4968  0.4876
 8326SOL    HW226420   3.313   0.484  10.539 -0.2246 -0.2008  0.6761
 8327SOL     OW26421   3.987   0.202  10.920 -0.3225  0.1303  0.0828
 8327SOL    HW126422   3.933   0.209  10.999 -0.0034 -2.3636  0.6095
 8327SOL    HW226423   4.077   0.201  10.952 -0.0169  1.9530 -0.6047
 8328SOL     OW26424   0.005   3.153  11.014  0.2896 -0.8912 -0.3276
 8328SOL    HW126425   0.040   3.240  11.034 -0.9152  0.0644 -2.1009
 8328SOL    HW226426  -0.054   3.134  11.087  0.2749 -0.0463 -0.1035
 8329SOL     OW26427   2.203   7.392   0.575 -0.1398  0.5515 -0.3773
 8329SOL    HW126428   2.188   7.430   0.661 -1.4417 -3.0685  1.1992
 8329SOL    HW226429   2.126   7.418   0.524 -1.7703 -0.9916  1.1278
 8330SOL     OW26430   1.187   7.209  10.395  0.4117 -0.2054  0.0214
 8330SOL    HW126431   1.191   7.142  10.328  3.0175 -0.2631  0.1395
 8330SOL    HW226432   1.191   7.292  10.347 -0.6032 -0.1644 -0.0102
 8331SOL     OW26433   0.996   0.181   5.267  0.1297 -0.2826 -0.7089
 8331SOL    HW126434   0.910   0.194   5.229  0.4749 -0.3749 -1.5452
 8331SOL    HW226435   1.054   0.238   5.217  0.8438 -1.5129 -1.3234
 8332SOL     OW26436   2.620   3.878   1.402  0.2860  0.6567  0.9749
 8332SOL    HW126437   2.642   3.967   1.374 -0.0096  1.1583  2.2502
 8332SOL    HW226438   2.627   3.881   1.498  1.2248 -0.9533  0.9882
 8333SOL     OW26439   3.359   0.340   9.868 -0.4738 -0.5931 -0.2853
 8333SOL    HW126440   3.281   0.394   9.866 -1.3341 -1.8022 -0.8146
 8333SOL    HW226441   3.330   0.258   9.908  0.4495 -1.1774 -0.7846
 8334SOL     OW26442   0.026   6.792   9.189 -0.8374  0.6086  0.1197
 8334SOL    HW126443   0.048   6.763   9.101  0.3862  2.2681 -0.1664
 8334SOL    HW226444  -0.067   6.774   9.198 -0.5852 -1.4427 -0.7328
 8335SOL     OW26445   1.253   0.938  12.064 -0.4521 -0.2774  0.5501
 8335SOL    HW126446   1.206   0.890  12.132  0.0560 -4.2497 -1.5650
 8335SOL    HW226447   1.344   0.913  12.076  0.1925  1.8253  0.4528
 8336SOL     OW26448   3.015   4.304   3.704 -0.1565  0.3272 -0.3037
 8336SOL    HW126449   2.936   4.339   3.663  0.6892 -0.5614 -2.8665
 8336SOL    HW226450   3.012   4.210   3.685  0.4996 -0.0704  1.4030
 8337SOL     OW26451   7.425   0.053   6.053 -0.4114  0.4337 -0.8346
 8337SOL    HW126452   7.381   0.133   6.026 -1.0901  0.4593  0.2971
 8337SOL    HW226453   7.360  -0.016   6.043 -0.5563  0.3824  0.2950
 8338SOL     OW26454   7.471   3.323   6.671  0.3930  0.0264  0.1960
 8338SOL    HW126455   7.439   3.275   6.595 -2.6511 -0.8097  1.8563
 8338SOL    HW226456   7.563   3.340   6.651 -0.1169 -0.6348 -3.3728
 8339SOL     OW26457   7.900   3.687   0.034 -0.0666 -0.4737  0.3583
 8339SOL    HW126458   7.899   3.614  -0.028 -1.5849 -0.7122  0.6036
 8339SOL    HW226459   7.848   3.655   0.108  0.0183  0.5307  0.8691
 8340SOL     OW26460   4.162   0.751   4.024  0.2972  0.2223  0.1547
 8340SOL    HW126461   4.170   0.757   4.119  1.4379 -0.0272  0.0929
 8340SOL    HW226462   4.179   0.659   4.005 -0.7990  0.0848 -0.2344
 8341SOL     OW26463   1.337   6.854   0.599  0.0765  0.0493  0.1706
 8341SOL    HW126464   1.283   6.788   0.642 -0.8432  2.0441  2.2831
 8341SOL    HW226465   1.413   6.805   0.567  0.3525 -1.8052  3.2010
 8342SOL     OW26466   4.489   6.278  11.170 -0.3058  0.0534 -0.2245
 8342SOL    HW126467   4.445   6.287  11.255  1.3554 -0.2134  0.7186
 8342SOL    HW226468   4.491   6.184  11.154 -2.5205  0.1730 -1.6830
 8343SOL     OW26469   6.095   7.302   5.619 -0.1114  0.7238  0.3794
 8343SOL    HW126470   6.145   7.377   5.649  0.9275  1.2983 -2.4657
 8343SOL    HW226471   6.076   7.320   5.527 -0.1282 -2.2906 -0.3440
 8344SOL     OW26472   3.151   1.954   8.114 -0.0389  0.2110  0.2492
 8344SOL    HW126473   3.124   2.046   8.113  1.3349  0.6359 -0.8905
 8344SOL    HW226474   3.202   1.943   8.034 -0.7953 -1.7521 -0.0186
 8345SOL     OW26475   3.932   7.159  10.517 -0.3310 -0.2188  0.4383
 8345SOL    HW126476   3.935   7.217  10.441  1.6624 -0.9102 -0.0624
 8345SOL    HW226477   3.912   7.216  10.590 -0.8433  0.6876 -0.3836
 8346SOL     OW26478   7.884   7.166  10.703  0.7342  0.3087 -0.5659
 8346SOL    HW126479   7.962   7.222  10.697  1.4417 -0.7545 -2.2533
 8346SOL    HW226480   7.902   7.095  10.642 -1.4462 -0.1446 -0.7480
 8347SOL     OW26481   1.790   4.354   6.977 -0.2739 -0.3506 -0.0874
 8347SOL    HW126482   1.785   4.295   7.053 -0.8992  0.7240  0.7311
 8347SOL    HW226483   1.817   4.297   6.905 -2.7250 -2.1097  0.2267
 8348SOL     OW26484   6.500   5.932   8.622 -0.2111 -0.2059 -0.4248
 8348SOL    HW126485   6.433   5.923   8.553 -0.4506  0.3136 -0.2621
 8348SOL    HW226486   6.491   6.022   8.653 -2.1803 -1.1919  2.3611
 8349SOL     OW26487   1.093   7.523   9.742 -0.3201 -0.1411 -0.2016
 8349SOL    HW126488   1.089   7.580   9.665  1.5561  0.0089 -0.2405
 8349SOL    HW226489   1.122   7.438   9.708 -0.9243 -0.4969  0.1504
 8350SOL     OW26490   0.014   7.876   1.249  0.0213  0.5479 -0.6060
 8350SOL    HW126491   0.020   7.968   1.221 -1.1577  0.5078 -1.0210
 8350SOL    HW226492   0.093   7.836   1.213 -0.1747  1.0879 -1.6859
 8351SOL     OW26493   4.741   2.162   9.471  0.0330 -0.4446  0.4719
 8351SOL    HW126494   4.719   2.219   9.397  1.6892 -1.1918 -0.6596
 8351SOL    HW226495   4.665   2.168   9.530 -1.8329 -0.6695 -1.7790
 8352SOL     OW26496   5.734   4.561   3.667  0.0791 -0.2872 -0.0262
 8352SOL    HW126497   5.681   4.637   3.690  0.0864 -0.5133  0.7849
 8352SOL    HW226498   5.821   4.596   3.649 -0.3503  0.1022 -1.5050
 8353SOL     OW26499   7.564   4.923   0.349 -0.0064  0.0344  0.4745
 8353SOL    HW126500   7.492   4.956   0.403 -0.0692  1.3728 -0.3833
 8353SOL    HW226501   7.597   5.000   0.303  0.6231 -0.9192 -0.7375
 8354SOL     OW26502   1.877   4.448   2.489  0.1351  0.0292 -0.6042
 8354SOL    HW126503   1.843   4.359   2.493 -0.1520  0.1454 -0.4186
 8354SOL    HW226504   1.800   4.504   2.503  0.2902  0.3089 -0.8319
 8355SOL     OW26505   4.896   0.664   7.869  0.5035  0.2654  0.1524
 8355SOL    HW126506   4.850   0.597   7.819 -0.0913  2.1562 -2.0113
 8355SOL    HW226507   4.962   0.699   7.809  1.0284  1.3732  1.3240
 8356SOL     OW26508   2.581   4.857   7.051  0.1252 -0.0074  0.1020
 8356SOL    HW126509   2.565   4.842   7.145  1.5840 -1.5038  0.1739
 8356SOL    HW226510   2.497   4.835   7.009 -0.6461  0.9963  1.0593
 8357SOL     OW26511   2.238   6.317   9.717 -0.4380  0.0586 -0.0653
 8357SOL    HW126512   2.196   6.333   9.802 -0.9207  0.0105 -0.2940
 8357SOL    HW226513   2.239   6.403   9.674 -2.0808 -0.2904 -0.8606
 8358SOL     OW26514   5.471   2.124  12.020 -0.5967  0.8378 -0.0567
 8358SOL    HW126515   5.494   2.086  11.935  2.2911  0.2261  0.8924
 8358SOL    HW226516   5.459   2.217  12.003 -1.6757  0.4917 -1.3668
 8359SOL     OW26517   3.424   6.998   8.430 -0.8685 -0.5760  0.0956
 8359SOL    HW126518   3.415   7.086   8.394 -0.8785 -0.5641  0.1271
 8359SOL    HW226519   3.336   6.961   8.427 -1.0042 -0.3223  0.7451
 8360SOL     OW26520   2.679   6.141  10.870 -0.2427 -0.2761 -0.4241
 8360SOL    HW126521   2.655   6.050  10.888 -1.3353 -0.0350 -0.5571
 8360SOL    HW226522   2.734   6.137  10.792  1.2479 -0.9718  0.6196
 8361SOL     OW26523   1.712   1.639  11.910  0.2332 -0.1080  0.3824
 8361SOL    HW126524   1.782   1.592  11.955  1.7030  0.9945 -0.6218
 8361SOL    HW226525   1.694   1.714  11.967  1.5724  0.8840 -0.4382
 8362SOL     OW26526   5.090   3.301   6.985 -0.6377 -0.3720  0.4845
 8362SOL    HW126527   5.043   3.226   7.021 -1.0972 -0.3944 -0.1407
 8362SOL    HW226528   5.066   3.301   6.892 -2.2146  1.6927  0.8232
 8363SOL     OW26529   0.766   1.635  11.909 -0.2420  0.9447 -0.1313
 8363SOL    HW126530   0.750   1.726  11.937  0.6338  1.2352 -0.5484
 8363SOL    HW226531   0.817   1.643  11.829  1.1703  0.0665  0.6426
 8364SOL     OW26532   4.393   6.043   7.750  0.4014 -0.0438 -0.2093
 8364SOL    HW126533   4.451   6.045   7.826  2.4914 -2.7685 -1.5633
 8364SOL    HW226534   4.445   6.081   7.679 -0.2512 -0.5985 -0.9993
 8365SOL     OW26535   2.081   6.199   0.835 -0.3510  0.2325  0.3003
 8365SOL    HW126536   2.103   6.111   0.804 -1.5807  0.3881 -1.1031
 8365SOL    HW226537   2.041   6.242   0.760 -2.6503  0.9479  1.8194
 8366SOL     OW26538   7.635   0.232   2.895  0.1003  0.0384  0.0363
 8366SOL    HW126539   7.550   0.268   2.919  0.3067 -0.0461  0.9604
 8366SOL    HW226540   7.696   0.306   2.906  0.3716 -0.2963  0.9547
 8367SOL     OW26541   1.331   0.029   5.371  0.1600  0.2347 -0.2750
 8367SOL    HW126542   1.339   0.026   5.466 -0.6408 -2.6004 -0.2140
 8367SOL    HW226543   1.307  -0.060   5.346  2.9632  0.1458 -3.3944
 8368SOL     OW26544   6.365   0.107  10.873  0.3274 -0.1384  0.0980
 8368SOL    HW126545   6.408   0.028  10.840 -2.0505 -1.0263 -1.1050
 8368SOL    HW226546   6.355   0.091  10.967 -1.6189 -2.1031 -0.3822
 8369SOL     OW26547   7.438   5.750   2.747 -0.1603 -0.0534  0.3862
 8369SOL    HW126548   7.480   5.725   2.664 -0.1869  1.2674 -0.0501
 8369SOL    HW226549   7.346   5.726   2.736 -0.1100 -0.1377  0.1393
 8370SOL     OW26550   3.347   2.108   1.671  0.0316 -0.5904 -0.5900
 8370SOL    HW126551   3.382   2.184   1.624 -2.0492  0.9823  0.2334
 8370SOL    HW226552   3.396   2.034   1.636  0.9975  0.9079 -2.6477
 8371SOL     OW26553   5.881   6.233   9.770 -0.6745  0.6174  0.1870
 8371SOL    HW126554   5.922   6.316   9.796  3.4412 -0.7857 -0.9577
 8371SOL    HW226555   5.847   6.250   9.682 -0.4418  1.2783  0.2199
 8372SOL     OW26556   7.810   4.776   9.579 -0.3351  0.0397 -0.2622
 8372SOL    HW126557   7.769   4.690   9.568 -0.5579  0.0627  0.4077
 8372SOL    HW226558   7.902   4.755   9.598 -0.2442 -0.0303 -0.7517
 8373SOL     OW26559   3.497   0.897   0.995  0.1655 -0.5875 -0.0260
 8373SOL    HW126560   3.412   0.914   1.035  0.5987  0.3841  0.5347
 8373SOL    HW226561   3.477   0.850   0.914 -0.9145 -0.1878 -0.0100
 8374SOL     OW26562   2.088   1.817   5.023 -0.3316 -0.0765  0.4836
 8374SOL    HW126563   1.992   1.824   5.021 -0.4265 -1.2600  0.4523
 8374SOL    HW226564   2.116   1.860   4.942 -0.6650  2.3128  1.5519
 8375SOL     OW26565   4.942   5.886   6.169 -0.3254 -0.0940 -0.5305
 8375SOL    HW126566   5.030   5.869   6.200 -0.7860 -1.0483  0.3199
 8375SOL    HW226567   4.912   5.961   6.222 -0.3901 -0.4282 -0.0903
 8376SOL     OW26568   7.813   0.554   0.011  0.2878  0.2771  0.1585
 8376SOL    HW126569   7.827   0.462   0.031  0.8771 -0.0018 -1.3520
 8376SOL    HW226570   7.804   0.557  -0.085  0.3813  1.7913  0.1629
 8377SOL     OW26571   3.545   2.687   8.377 -0.1413  0.3709 -0.5548
 8377SOL    HW126572   3.552   2.726   8.465  0.3488 -2.5325  0.7951
 8377SOL    HW226573   3.469   2.730   8.338  0.4824  2.7905  0.6781
 8378SOL     OW26574   3.660   3.311   0.719  0.0407 -0.0433  0.3688
 8378SOL    HW126575   3.632   3.363   0.644  1.5418 -1.9119 -1.6536
 8378SOL    HW226576   3.582   3.301   0.773 -1.4609  0.3375 -1.6291
 8379SOL     OW26577   7.863   0.140  10.715 -0.7091  0.3006  0.3749
 8379SOL    HW126578   7.888   0.227  10.746  0.0025  0.2428 -0.0218
 8379SOL    HW226579   7.879   0.143  10.620 -0.9354 -0.1775  0.3167
 8380SOL     OW26580   6.039   0.246   2.979 -0.1438  0.5331  0.0954
 8380SOL    HW126581   5.974   0.180   3.002 -1.6381  2.5744  2.1685
 8380SOL    HW226582   6.112   0.196   2.942 -1.8389 -2.0797  0.0196
 8381SOL     OW26583   5.170   5.609  11.098 -0.5543  0.0033 -0.0260
 8381SOL    HW126584   5.116   5.631  11.174 -0.9318 -2.2289  0.4210
 8381SOL    HW226585   5.260   5.614  11.131 -0.6484  0.2177  0.2062
 8382SOL     OW26586   7.366   4.663  11.965 -0.5974 -0.2300  0.0355
 8382SOL    HW126587   7.314   4.609  11.905 -2.5634  0.7044  0.8154
 8382SOL    HW226588   7.303   4.696  12.029  0.7345  2.0588  0.2712
 8383SOL     OW26589   1.118   2.035   5.455  0.2604 -0.1613 -0.0821
 8383SOL    HW126590   1.170   1.954   5.452 -0.2881 -0.5188  0.0073
 8383SOL    HW226591   1.036   2.009   5.496  0.2563  0.5426  0.3577
 8384SOL     OW26592   1.508   0.755   1.022  0.2692  0.2995  0.2084
 8384SOL    HW126593   1.501   0.845   0.992  0.7300  0.5296  0.7606
 8384SOL    HW226594   1.533   0.762   1.115  1.3518 -0.3882 -0.0074
 8385SOL     OW26595   6.046   5.530   1.415 -0.2423  0.0711  0.2717
 8385SOL    HW126596   5.987   5.459   1.388 -2.0816  1.7440 -0.3235
 8385SOL    HW226597   6.130   5.486   1.429 -0.6102 -1.8702 -2.5829
 8386SOL     OW26598   2.551   4.451   5.616  0.2743  0.4498  0.3111
 8386SOL    HW126599   2.599   4.369   5.609  0.5939  0.5618  1.0579
 8386SOL    HW226600   2.527   4.473   5.526  0.3747 -0.3454  0.0845
 8387SOL     OW26601   2.119   5.462   7.926 -0.1746 -0.1365 -0.6142
 8387SOL    HW126602   2.165   5.431   8.004  0.1253 -0.2824 -0.8483
 8387SOL    HW226603   2.183   5.518   7.882  0.0475 -0.9293 -1.3302
 8388SOL     OW26604   1.404   3.078   3.816  0.1370  0.0522  0.1808
 8388SOL    HW126605   1.437   3.018   3.883 -0.1132 -1.5878 -1.0630
 8388SOL    HW226606   1.474   3.081   3.751 -1.2826 -2.0213 -1.6118
 8389SOL     OW26607   3.756   0.374   3.986  0.0500 -0.1996  0.6559
 8389SOL    HW126608   3.762   0.298   4.044 -2.1686 -1.2832 -0.4074
 8389SOL    HW226609   3.739   0.336   3.899 -2.2932  1.4660  0.2866
 8390SOL     OW26610   2.348   2.426  11.732 -0.0305  0.0273  0.0582
 8390SOL    HW126611   2.311   2.338  11.733  1.0461 -0.4421 -0.1524
 8390SOL    HW226612   2.354   2.450  11.825  2.8189 -1.5208  0.3857
 8391SOL     OW26613   1.188   3.954  11.720 -0.0999  0.4237  0.0777
 8391SOL    HW126614   1.193   4.031  11.777  0.6195  1.7540 -1.6903
 8391SOL    HW226615   1.151   3.988  11.638 -0.7088 -1.3327 -0.4152
 8392SOL     OW26616   5.746   5.309  12.310  0.0123  0.0095 -0.4520
 8392SOL    HW126617   5.701   5.297  12.226  0.8605 -2.2438 -0.6564
 8392SOL    HW226618   5.835   5.279  12.294  0.1808 -0.5109  1.2645
 8393SOL     OW26619   5.263   0.283   0.858  0.4572 -0.0690  0.0370
 8393SOL    HW126620   5.200   0.212   0.842 -0.1406  0.3073  0.6445
 8393SOL    HW226621   5.345   0.251   0.821 -0.1019 -0.5464 -0.8450
 8394SOL     OW26622   5.123   3.498   9.499 -0.0496 -0.1596 -0.2139
 8394SOL    HW126623   5.059   3.503   9.428 -0.7475  1.9810  0.4970
 8394SOL    HW226624   5.123   3.406   9.525 -2.5180 -0.3153 -0.5412
 8395SOL     OW26625   4.148   7.203   7.348 -0.3438  0.1401 -0.0607
 8395SOL    HW126626   4.223   7.247   7.307  0.1557 -0.0027  0.6726
 8395SOL    HW226627   4.098   7.168   7.275  1.8543 -2.3009 -0.5349
 8396SOL     OW26628   0.626   5.935   0.239  0.6670 -0.5279  0.0785
 8396SOL    HW126629   0.595   6.015   0.283 -0.2998 -0.7975 -0.0768
 8396SOL    HW226630   0.670   5.967   0.160  2.9750  0.0015  1.4878
 8397SOL     OW26631   1.669   3.673   8.024 -0.2982  0.5917  0.0726
 8397SOL    HW126632   1.707   3.644   8.107 -0.8079  0.2773  0.2017
 8397SOL    HW226633   1.657   3.592   7.974 -3.4361  0.2456  1.1407
 8398SOL     OW26634   3.019   6.207   3.432  0.3521  0.7234  0.0799
 8398SOL    HW126635   2.935   6.249   3.449 -0.0401 -0.3925  1.0230
 8398SOL    HW226636   2.996   6.119   3.403  1.1823 -0.2006  2.0294
 8399SOL     OW26637   4.470   7.388   8.503 -0.3027 -0.0612  0.6766
 8399SOL    HW126638   4.422   7.442   8.440  2.3048  2.3281  0.5049
 8399SOL    HW226639   4.532   7.448   8.543  2.3199 -2.7854  1.0711
 8400SOL     OW26640   7.501   7.861   2.623  0.4558  0.1836  0.1005
 8400SOL    HW126641   7.499   7.802   2.699 -0.2521 -0.6052 -0.5097
 8400SOL    HW226642   7.419   7.909   2.627 -0.2330 -0.8550 -0.9037
 8401SOL     OW26643   1.574   2.648   3.633 -0.2915 -0.3636 -0.0970
 8401SOL    HW126644   1.484   2.680   3.623 -0.4333 -0.7282 -0.0239
 8401SOL    HW226645   1.566   2.552   3.629 -0.0059 -0.4264  0.6659
 8402SOL     OW26646   6.364   6.465   4.675  0.4678  0.0896  0.1428
 8402SOL    HW126647   6.298   6.507   4.731 -1.0859  0.2071 -1.6746
 8402SOL    HW226648   6.430   6.533   4.661 -0.5575  1.0012 -0.4201
 8403SOL     OW26649   7.076   5.480   6.644 -0.2062 -0.0548  0.1221
 8403SOL    HW126650   7.084   5.529   6.563  2.3513 -0.1214  0.2506
 8403SOL    HW226651   7.020   5.534   6.699 -1.4615  0.2934 -1.4416
 8404SOL     OW26652   1.952   1.888  12.364  0.0256 -0.5055  0.4145
 8404SOL    HW126653   1.959   1.801  12.404 -0.8545 -1.2069 -0.8938
 8404SOL    HW226654   2.036   1.929  12.381  0.4258 -1.5826  1.1247
 8405SOL     OW26655   2.383   5.489   9.147 -0.2117 -0.0505 -0.4757
 8405SOL    HW126656   2.455   5.552   9.151  0.4965 -0.8731  0.1347
 8405SOL    HW226657   2.370   5.462   9.237 -3.2244  2.1643 -0.1106
 8406SOL     OW26658   6.393   6.600   1.014 -0.2290  0.0475 -0.7823
 8406SOL    HW126659   6.372   6.686   1.051 -1.1106 -1.1448  1.7135
 8406SOL    HW226660   6.479   6.579   1.050 -0.4590 -0.5369 -0.5674
 8407SOL     OW26661   2.973   5.489   2.830  0.2246  0.3657 -0.6837
 8407SOL    HW126662   2.956   5.556   2.896  1.0710 -1.3132  1.3712
 8407SOL    HW226663   3.033   5.531   2.768 -0.6726  2.0305 -0.4722
 8408SOL     OW26664   5.546   1.919   7.963  0.5441 -0.3674  0.1061
 8408SOL    HW126665   5.519   1.854   8.028  0.9115  0.3070  0.9586
 8408SOL    HW226666   5.593   1.868   7.896 -1.8949 -1.4183 -0.9165
 8409SOL     OW26667   4.926   2.950   6.373 -0.0914  0.0129 -0.3930
 8409SOL    HW126668   4.927   2.922   6.465  0.3296  1.2731  0.0207
 8409SOL    HW226669   4.836   2.938   6.345 -0.4093  0.3262  0.4423
 8410SOL     OW26670   6.159   5.208  11.529 -0.6025  0.3276 -0.2253
 8410SOL    HW126671   6.152   5.280  11.465 -1.5320 -0.0383 -0.5465
 8410SOL    HW226672   6.089   5.224  11.591 -0.1264  0.2947  0.3251
 8411SOL     OW26673   0.264   7.445   7.187 -0.3751 -0.1806 -0.6027
 8411SOL    HW126674   0.226   7.486   7.109  1.0598  0.1006 -1.1804
 8411SOL    HW226675   0.189   7.406   7.232 -1.6311  1.9043 -0.7217
 8412SOL     OW26676   2.888   0.939   1.358 -0.5394 -0.1289 -0.3208
 8412SOL    HW126677   2.947   1.014   1.352  0.3540 -0.6862  0.9281
 8412SOL    HW226678   2.881   0.906   1.269 -1.7821  2.0158 -1.1094
 8413SOL     OW26679   3.695   5.772   5.426 -0.0199 -0.1139  0.7329
 8413SOL    HW126680   3.676   5.681   5.401 -0.1733  0.1791 -0.2494
 8413SOL    HW226681   3.624   5.795   5.486 -1.4742  0.1663 -1.0030
 8414SOL     OW26682   4.954   3.679   9.650 -0.4894 -0.0946 -0.3849
 8414SOL    HW126683   4.903   3.610   9.692 -0.2492  0.1954  0.4173
 8414SOL    HW226684   5.030   3.633   9.613  0.1722 -0.1698  0.9785
 8415SOL     OW26685   4.130   1.551   9.933  0.1531 -0.0717  0.0931
 8415SOL    HW126686   4.041   1.520   9.918  0.6074 -1.8916  0.8944
 8415SOL    HW226687   4.130   1.585  10.023  0.1488  0.4365 -0.0937
 8416SOL     OW26688   2.324   0.960   0.161 -0.1104  0.3344  0.4861
 8416SOL    HW126689   2.381   0.885   0.181 -0.4318  0.3831  1.7059
 8416SOL    HW226690   2.239   0.920   0.145 -0.2916  0.4241  1.1796
 8417SOL     OW26691   0.829   4.075   0.812  0.0658  0.0993  0.1494
 8417SOL    HW126692   0.891   4.002   0.821  0.6639  0.5232 -0.4224
 8417SOL    HW226693   0.825   4.092   0.718  0.1949  1.0112  0.2929
 8418SOL     OW26694   0.646   7.411  10.037  0.3953  0.7815  0.2034
 8418SOL    HW126695   0.632   7.321  10.008 -0.9221  0.4540  1.7210
 8418SOL    HW226696   0.675   7.457   9.958 -0.6132 -0.5905 -1.0266
 8419SOL     OW26697   6.677   7.078   2.130  0.5920  0.7563  0.4510
 8419SOL    HW126698   6.753   7.095   2.185 -0.0106  1.3725  1.1113
 8419SOL    HW226699   6.678   6.984   2.115  2.2092  0.9023 -0.6269
 8420SOL     OW26700   1.865   2.710   6.195  0.1015  0.5493  0.3860
 8420SOL    HW126701   1.864   2.744   6.285 -1.6510  0.8787  0.2796
 8420SOL    HW226702   1.807   2.633   6.198  2.7676 -1.6145  0.2704
 8421SOL     OW26703   1.514   5.119  11.291 -0.3354 -0.2051 -0.2389
 8421SOL    HW126704   1.445   5.144  11.229 -0.8512 -0.3998  0.2447
 8421SOL    HW226705   1.526   5.025  11.278 -0.1115 -0.1577 -0.3731
 8422SOL     OW26706   2.059   7.402  11.698 -0.3862 -0.2857 -0.3094
 8422SOL    HW126707   1.982   7.345  11.698  0.0299 -0.8622  0.2587
 8422SOL    HW226708   2.023   7.491  11.688 -1.5085 -0.0788  3.7256
 8423SOL     OW26709   6.621   5.447   6.750  0.2006 -0.2985 -0.1203
 8423SOL    HW126710   6.622   5.511   6.679  0.5154  0.0356  0.1822
 8423SOL    HW226711   6.536   5.460   6.792 -0.3472 -1.0808 -0.9523
 8424SOL     OW26712   4.065   3.896  11.383  0.0313 -0.2430 -0.4205
 8424SOL    HW126713   3.978   3.917  11.349 -1.1445 -1.4975  1.6187
 8424SOL    HW226714   4.106   3.980  11.400  0.1185  0.4280 -3.3618
 8425SOL     OW26715   0.437   1.425   4.736 -0.2388 -0.4517  0.3332
 8425SOL    HW126716   0.481   1.346   4.767 -0.1164 -0.2130  0.7725
 8425SOL    HW226717   0.436   1.415   4.641  2.4617  0.3882  0.1184
 8426SOL     OW26718   5.076   0.561   7.598  0.4895 -0.0991  0.7277
 8426SOL    HW126719   5.160   0.547   7.553 -0.7982  0.9594 -2.2517
 8426SOL    HW226720   5.089   0.642   7.647  0.5275  1.5270 -1.8051
 8427SOL     OW26721   2.039   0.372  11.748 -0.1439 -0.1847 -0.4954
 8427SOL    HW126722   2.117   0.399  11.699  0.4357  1.0439  1.0046
 8427SOL    HW226723   2.066   0.292  11.793  0.1799  0.1032 -0.1707
 8428SOL     OW26724   6.611   6.035  10.236  0.6446  0.0457  0.4896
 8428SOL    HW126725   6.693   6.062  10.277  0.3863 -2.6997  3.1913
 8428SOL    HW226726   6.628   5.946  10.205 -1.2117 -0.4767  0.8391
 8429SOL     OW26727   1.967   3.682   5.237  0.3116  0.3665  0.0251
 8429SOL    HW126728   2.026   3.719   5.302 -0.7583 -1.5546  2.2544
 8429SOL    HW226729   1.995   3.590   5.228  1.0008  0.7671 -3.0202
 8430SOL     OW26730   3.648   5.817  10.961 -0.3807  0.4757  0.0291
 8430SOL    HW126731   3.603   5.896  10.991 -1.6856  0.2926 -1.2980
 8430SOL    HW226732   3.584   5.774  10.904  0.6658 -1.0261 -0.0610
 8431SOL     OW26733   4.572   3.917  10.307 -0.5908  0.0272 -0.2966
 8431SOL    HW126734   4.485   3.922  10.347 -0.6157 -2.1439  0.0459
 8431SOL    HW226735   4.554   3.891  10.216 -0.3324  0.0158 -0.3443
 8432SOL     OW26736   6.363   7.791   1.930  0.3986  0.4765  0.1399
 8432SOL    HW126737   6.338   7.878   1.961 -0.8234  0.1510  0.1345
 8432SOL    HW226738   6.314   7.731   1.987  0.5175 -0.1832 -0.4478
 8433SOL     OW26739   5.058   0.789   2.882 -0.1919 -0.5361 -0.2725
 8433SOL    HW126740   5.152   0.775   2.873  0.2113  0.4013  1.9132
 8433SOL    HW226741   5.021   0.701   2.880  0.6041 -0.8742 -1.9304
 8434SOL     OW26742   2.492   7.880  10.158 -0.3886  0.4229 -0.3407
 8434SOL    HW126743   2.505   7.799  10.108  0.4479  0.4344 -0.1647
 8434SOL    HW226744   2.403   7.908  10.137 -0.1039  0.3502 -1.7181
 8435SOL     OW26745   4.248   5.292   3.285 -0.2230  0.2612 -0.0170
 8435SOL    HW126746   4.343   5.295   3.279 -0.2376 -0.1539 -0.4893
 8435SOL    HW226747   4.224   5.203   3.258 -0.6020 -0.3606  2.1372
 8436SOL     OW26748   3.959   5.749   2.227  0.2207  0.1125  0.2509
 8436SOL    HW126749   3.873   5.715   2.203  0.5685 -0.5277 -0.0937
 8436SOL    HW226750   4.017   5.722   2.156  1.1262 -1.2142  1.4330
 8437SOL     OW26751   7.106   7.519   9.843  0.0058  0.1281 -0.2849
 8437SOL    HW126752   7.120   7.430   9.811 -0.9225  0.1202 -0.6947
 8437SOL    HW226753   7.164   7.574   9.790  1.1599 -0.3111  0.4922
 8438SOL     OW26754   4.030   0.331  12.031  0.0622 -0.5484  0.1109
 8438SOL    HW126755   4.112   0.316  12.078  0.7632  0.5679 -0.6836
 8438SOL    HW226756   3.973   0.373  12.096  1.5978  2.5746 -0.3425
 8439SOL     OW26757   0.157   3.455  10.591  0.6835 -0.1142  0.1497
 8439SOL    HW126758   0.217   3.508  10.644 -0.0166 -0.1917  1.0421
 8439SOL    HW226759   0.166   3.367  10.627 -1.2063  0.1752  1.4623
 8440SOL     OW26760   1.002   7.363   2.808  0.0856 -0.5325  0.0638
 8440SOL    HW126761   0.933   7.413   2.764  0.9813  1.0764  0.4236
 8440SOL    HW226762   1.079   7.419   2.804  0.5286 -0.8507  2.5761
 8441SOL     OW26763   6.454   3.279   0.816 -0.4181 -0.2775  0.1212
 8441SOL    HW126764   6.359   3.285   0.808 -0.3249 -0.1320 -1.1159
 8441SOL    HW226765   6.474   3.189   0.788 -0.2777 -0.6999  1.5052
 8442SOL     OW26766   0.044   4.472   9.435 -0.4998 -0.8594 -0.0929
 8442SOL    HW126767   0.033   4.379   9.417  0.7549 -1.1374  0.5483
 8442SOL    HW226768  -0.040   4.499   9.473 -0.7456 -1.7888  0.0396
 8443SOL     OW26769   6.885   1.037  11.027 -0.3875 -0.0227  0.4042
 8443SOL    HW126770   6.807   1.076  11.067 -0.8451 -2.4625  2.0982
 8443SOL    HW226771   6.958   1.082  11.069 -0.8966 -1.2135  2.7202
 8444SOL     OW26772   0.312   3.882   7.485 -0.8532 -0.3140 -0.5816
 8444SOL    HW126773   0.263   3.936   7.424  0.7573  0.3809 -1.3245
 8444SOL    HW226774   0.389   3.935   7.508 -0.3843 -1.3895  0.4415
 8445SOL     OW26775   2.498   4.700   9.816 -0.4935 -0.0406 -0.3050
 8445SOL    HW126776   2.511   4.605   9.819  1.1522  0.1721  0.2990
 8445SOL    HW226777   2.542   4.728   9.736  0.2998  0.3661  0.2602
 8446SOL     OW26778   4.867   4.952   8.919  0.3400  0.4923  0.4662
 8446SOL    HW126779   4.850   4.969   8.826  1.2931  0.4188  0.2646
 8446SOL    HW226780   4.790   4.905   8.949 -0.3462  1.2384 -0.0840
 8447SOL     OW26781   3.171   1.370  12.191  0.5892 -0.4790  0.2250
 8447SOL    HW126782   3.141   1.364  12.101  0.8310 -0.6618  0.1561
 8447SOL    HW226783   3.115   1.436  12.231  0.4416 -0.4439 -0.0421
 8448SOL     OW26784   3.522   6.863   8.860  0.6401 -0.5754  0.2230
 8448SOL    HW126785   3.433   6.897   8.873  1.0037  1.2803 -1.6231
 8448SOL    HW226786   3.510   6.788   8.802  0.2765 -0.1304 -0.2959
 8449SOL     OW26787   6.955   1.955   1.632 -0.1640 -0.1398 -0.5174
 8449SOL    HW126788   7.030   1.965   1.691 -0.4477  2.3379 -0.4776
 8449SOL    HW226789   6.994   1.928   1.548  0.9007  1.7668 -0.6890
 8450SOL     OW26790   4.263   2.264   7.646 -0.4131  0.2212 -0.5171
 8450SOL    HW126791   4.250   2.335   7.709 -1.8017 -0.0251 -0.5004
 8450SOL    HW226792   4.247   2.184   7.696 -0.3693 -0.0311 -0.9008
 8451SOL     OW26793   5.116   5.553   7.397 -0.6620 -0.2034 -0.1018
 8451SOL    HW126794   5.200   5.596   7.411 -0.3306 -0.3216 -1.6223
 8451SOL    HW226795   5.081   5.594   7.318 -1.3882 -1.1223 -0.2710
 8452SOL     OW26796   1.733   1.500   0.728  0.0570 -0.0462  0.8654
 8452SOL    HW126797   1.667   1.534   0.668  1.4868  1.1395 -0.1038
 8452SOL    HW226798   1.716   1.406   0.732 -0.7742  0.0221 -0.5061
 8453SOL     OW26799   6.754   5.455   4.920 -0.3904 -0.9095  0.3815
 8453SOL    HW126800   6.737   5.366   4.887 -0.0336 -0.3029 -1.5503
 8453SOL    HW226801   6.677   5.505   4.892 -1.3118 -0.8796  2.7666
 8454SOL     OW26802   2.400   2.262   6.747  0.0175 -0.0751 -0.0580
 8454SOL    HW126803   2.378   2.276   6.839 -0.1354  0.7585 -0.2071
 8454SOL    HW226804   2.340   2.194   6.718 -0.0050 -0.2688  0.4357
 8455SOL     OW26805   2.193   3.337   3.151  0.1639 -0.0629 -0.3086
 8455SOL    HW126806   2.206   3.250   3.190  0.6938  0.0100 -0.3103
 8455SOL    HW226807   2.256   3.393   3.196  0.1766  0.2110 -0.6601
 8456SOL     OW26808   7.858   0.631   7.081  0.4004  0.2271  0.2008
 8456SOL    HW126809   7.914   0.561   7.116  0.3575 -0.1093 -0.3957
 8456SOL    HW226810   7.857   0.616   6.987 -0.6398  0.2687  0.1941
 8457SOL     OW26811   4.330   1.328   6.847  0.2978  0.3838  0.0533
 8457SOL    HW126812   4.355   1.352   6.936 -0.8101 -0.0747  0.5045
 8457SOL    HW226813   4.235   1.334   6.846  0.0900 -1.8200 -0.3964
 8458SOL     OW26814   6.127   1.219   4.962 -0.4802  0.1042  0.6220
 8458SOL    HW126815   6.064   1.284   4.932  1.1573  1.1172 -0.7947
 8458SOL    HW226816   6.200   1.227   4.901  1.6004 -0.1096  2.9450
 8459SOL     OW26817   1.247   7.657  11.755  0.2089 -0.4731 -0.0204
 8459SOL    HW126818   1.165   7.616  11.729 -0.1582  0.3447 -0.2004
 8459SOL    HW226819   1.314   7.612  11.703 -0.5567  1.4173 -2.8911
 8460SOL     OW26820   0.787   3.339   3.621  0.4457  0.0524  0.0229
 8460SOL    HW126821   0.800   3.431   3.642  0.1983  0.3824 -1.2199
 8460SOL    HW226822   0.842   3.324   3.544  0.5242 -0.8567  0.2442
 8461SOL     OW26823   0.471   0.840   5.179  0.6571 -0.1717  0.3478
 8461SOL    HW126824   0.439   0.751   5.197  1.3012 -0.2451  1.1729
 8461SOL    HW226825   0.560   0.827   5.145  0.7969  0.1577  0.5800
 8462SOL     OW26826   2.222   7.289   4.179 -0.2909  0.1171  0.3457
 8462SOL    HW126827   2.297   7.253   4.227  0.9753  0.7197 -1.1339
 8462SOL    HW226828   2.197   7.219   4.118  0.6053  0.7805 -0.8134
 8463SOL     OW26829   5.528   6.436   7.327  0.0394  0.7073 -0.3050
 8463SOL    HW126830   5.450   6.382   7.343 -0.1986  0.4307 -2.2479
 8463SOL    HW226831   5.584   6.381   7.273  0.9218  1.4853 -0.2014
 8464SOL     OW26832   0.357   5.557   3.461 -0.3088  0.0987  0.2770
 8464SOL    HW126833   0.321   5.518   3.541 -1.1979 -2.1879 -1.1421
 8464SOL    HW226834   0.280   5.583   3.410  0.1299 -0.6831 -0.8355
 8465SOL     OW26835   0.241   5.699   5.282 -0.2075  0.1482 -0.1448
 8465SOL    HW126836   0.243   5.729   5.191 -0.7723  0.2787 -0.1196
 8465SOL    HW226837   0.331   5.675   5.302 -0.0635  0.2136 -0.7090
 8466SOL     OW26838   6.539   1.758   0.715 -0.0147 -0.0338  0.1023
 8466SOL    HW126839   6.463   1.807   0.745  0.3711  0.7082 -0.1052
 8466SOL    HW226840   6.519   1.733   0.625  0.6719  1.6497 -0.5528
 8467SOL     OW26841   1.565   2.152   6.260  0.8038  0.0164 -0.3088
 8467SOL    HW126842   1.571   2.245   6.237  0.2415 -0.0382 -0.7009
 8467SOL    HW226843   1.622   2.108   6.196  0.3427  0.0031 -0.7151
 8468SOL     OW26844   1.063   5.962   1.868 -0.4506 -0.6671 -0.1833
 8468SOL    HW126845   1.106   6.047   1.870 -0.7218 -0.5343 -0.0291
 8468SOL    HW226846   1.129   5.902   1.833 -0.7297 -0.1161 -1.7441
 8469SOL     OW26847   2.494   4.479   2.304  0.0921  0.4151  0.5954
 8469SOL    HW126848   2.516   4.543   2.236 -0.1834 -1.4087 -1.3179
 8469SOL    HW226849   2.505   4.526   2.386  3.2131  1.9417 -0.5548
 8470SOL     OW26850   1.298   2.769   2.813  0.3216 -0.5054 -0.8829
 8470SOL    HW126851   1.306   2.842   2.874 -0.6592 -1.4293  0.3873
 8470SOL    HW226852   1.387   2.733   2.807  0.7919  0.6749 -1.4288
 8471SOL     OW26853   1.450   6.371   0.256 -0.7133 -0.0771 -0.1696
 8471SOL    HW126854   1.378   6.354   0.317 -0.9539 -1.3355 -0.7610
 8471SOL    HW226855   1.456   6.290   0.204  1.0165  0.0771 -0.2439
 8472SOL     OW26856   4.652   7.578   5.070  0.0049  0.1476  0.2954
 8472SOL    HW126857   4.597   7.565   4.993  0.1707  0.0982  0.1842
 8472SOL    HW226858   4.727   7.629   5.037  0.7934 -1.0808  0.1143
 8473SOL     OW26859   4.726   0.864  11.249 -0.0526 -0.1889 -0.4215
 8473SOL    HW126860   4.787   0.850  11.176  0.2122  0.3949 -0.3167
 8473SOL    HW226861   4.643   0.887  11.207 -0.1786 -0.8597 -0.5610
 8474SOL     OW26862   2.052   6.491   7.616 -0.5135  0.0209 -0.5358
 8474SOL    HW126863   1.971   6.543   7.617  0.1574  1.1001  0.6151
 8474SOL    HW226864   2.090   6.507   7.530 -0.3558  1.4067 -0.2223
 8475SOL     OW26865   0.489   4.411   7.738 -0.2380  0.0029  0.1005
 8475SOL    HW126866   0.542   4.333   7.728  2.0966  1.2076  2.0256
 8475SOL    HW226867   0.432   4.392   7.812 -0.7768 -0.4158 -0.4163
 8476SOL     OW26868   0.732   2.350  10.137  0.2222 -0.3634 -0.3221
 8476SOL    HW126869   0.671   2.408  10.093 -1.2221 -2.4971 -1.3416
 8476SOL    HW226870   0.701   2.346  10.227 -0.7478 -0.8698 -0.6661
 8477SOL     OW26871   6.038   1.787  10.836  0.2780  0.1223 -0.2186
 8477SOL    HW126872   6.100   1.822  10.900  1.4405  2.2427 -2.3814
 8477SOL    HW226873   6.040   1.693  10.850  1.3278  0.4068  2.0655
 8478SOL     OW26874   4.619   1.997   1.787 -0.3610 -0.8165  0.0878
 8478SOL    HW126875   4.569   1.922   1.817 -2.9010  0.3740 -0.8322
 8478SOL    HW226876   4.589   2.070   1.842  0.5836 -0.0986 -0.3144
 8479SOL     OW26877   5.804   6.448   4.007  0.1896 -0.2692 -0.0248
 8479SOL    HW126878   5.772   6.403   3.929 -0.8933 -0.4660  0.5148
 8479SOL    HW226879   5.788   6.387   4.079  1.0978 -0.0542  0.3751
 8480SOL     OW26880   7.932   4.092  11.244  0.8477 -0.2390 -0.1668
 8480SOL    HW126881   7.945   4.059  11.156  2.0122 -1.5661  0.4622
 8480SOL    HW226882   7.887   4.176  11.232  1.2136 -0.2674 -2.0059
 8481SOL     OW26883   3.521   6.416   4.227  0.3865 -0.2082 -0.2594
 8481SOL    HW126884   3.438   6.449   4.191  0.8968  1.3857 -0.0347
 8481SOL    HW226885   3.496   6.335   4.272 -0.8208 -0.4563 -1.3143
 8482SOL     OW26886   1.763   5.203  11.171 -0.1037  0.1814  0.3210
 8482SOL    HW126887   1.685   5.165  11.211 -0.4458  0.3233 -0.1941
 8482SOL    HW226888   1.788   5.142  11.102 -1.0757  1.1876 -0.9841
 8483SOL     OW26889   4.454   2.785   5.560  0.1941  0.0117 -0.4122
 8483SOL    HW126890   4.535   2.755   5.601  0.7386  0.3428 -1.2349
 8483SOL    HW226891   4.453   2.879   5.576 -0.1631 -0.0280 -0.1832
 8484SOL     OW26892   5.499   4.431  11.904  0.8348 -0.9906  0.3577
 8484SOL    HW126893   5.570   4.407  11.843  0.5181 -1.7817  0.2878
 8484SOL    HW226894   5.528   4.396  11.988  0.4245 -1.5258  0.2808
 8485SOL     OW26895   0.211   2.571   5.489  0.4327  0.5276 -0.6487
 8485SOL    HW126896   0.215   2.570   5.585  0.0190  2.0675 -0.5877
 8485SOL    HW226897   0.295   2.609   5.462  0.3058  0.6508 -0.8703
 8486SOL     OW26898   3.848   1.296   6.195 -0.9202 -0.6797  0.6683
 8486SOL    HW126899   3.887   1.361   6.254 -2.4385  0.5464  0.4121
 8486SOL    HW226900   3.797   1.239   6.253  0.7208 -1.9539  0.9398
 8487SOL     OW26901   5.214   0.654   1.185 -0.0265 -0.5767  0.7903
 8487SOL    HW126902   5.269   0.719   1.229  0.2187  0.5259 -1.0611
 8487SOL    HW226903   5.275   0.588   1.153  0.0335 -0.2753  0.2766
 8488SOL     OW26904   6.312   2.874   8.341  0.1722  0.0215 -0.2096
 8488SOL    HW126905   6.238   2.935   8.342  0.7449  0.7825 -1.3426
 8488SOL    HW226906   6.369   2.904   8.411 -0.6131 -0.6266  0.7326
 8489SOL     OW26907   7.692   1.347   5.504 -0.1550  0.1836  0.1116
 8489SOL    HW126908   7.655   1.410   5.442 -0.3702  0.3497  0.4067
 8489SOL    HW226909   7.707   1.268   5.451  0.9544  0.7508 -0.4708
 8490SOL     OW26910   5.293   0.513   8.292  0.0723  0.3399  0.3935
 8490SOL    HW126911   5.202   0.483   8.288  0.1447  0.0627  0.7463
 8490SOL    HW226912   5.299   0.581   8.225 -0.8663  1.6123  1.5247
 8491SOL     OW26913   6.931   2.093   8.739  0.9611  0.4856  0.1969
 8491SOL    HW126914   6.977   2.177   8.729  0.6895  0.5388 -0.7412
 8491SOL    HW226915   6.850   2.116   8.784  1.4038  0.5442  0.9751
 8492SOL     OW26916   0.649   5.560   3.589 -0.1018  0.2567  0.1666
 8492SOL    HW126917   0.566   5.573   3.543 -0.0928 -1.2190 -0.3289
 8492SOL    HW226918   0.677   5.472   3.563  0.4142 -0.2290  2.2179
 8493SOL     OW26919   4.563   7.176   4.890  0.0065 -0.2433 -0.3972
 8493SOL    HW126920   4.619   7.099   4.901  0.2708  0.2285  1.9899
 8493SOL    HW226921   4.486   7.157   4.942  0.5247  1.4912  1.0898
 8494SOL     OW26922   5.645   0.275   2.626 -0.4285  0.1066 -0.3510
 8494SOL    HW126923   5.564   0.225   2.631  0.0897 -0.5898  1.4996
 8494SOL    HW226924   5.672   0.267   2.534 -1.5654 -1.0592 -0.6084
 8495SOL     OW26925   5.563   4.822   8.702 -0.0244  0.4803  0.1669
 8495SOL    HW126926   5.472   4.853   8.705 -0.2390 -0.1913  1.1511
 8495SOL    HW226927   5.559   4.740   8.654 -0.0880  0.0087  0.9622
 8496SOL     OW26928   7.582   4.290   9.452 -0.2083  0.3229 -0.1308
 8496SOL    HW126929   7.568   4.263   9.361 -1.1827 -0.9592  0.3607
 8496SOL    HW226930   7.574   4.385   9.450 -0.7507  0.2702 -1.3090
 8497SOL     OW26931   3.085   6.770   1.845  0.4553  0.6088  0.0137
 8497SOL    HW126932   3.112   6.706   1.911 -2.0085  0.3473  0.8762
 8497SOL    HW226933   3.051   6.717   1.773  0.5610  0.9181 -0.2643
 8498SOL     OW26934   0.486   1.242   8.485 -0.5223 -0.0319 -0.3419
 8498SOL    HW126935   0.417   1.185   8.521  0.1782 -1.3744 -1.0469
 8498SOL    HW226936   0.438   1.313   8.442 -1.4692 -0.6666 -0.3747
 8499SOL     OW26937   5.729   2.605   4.675 -0.5376  0.1814  0.0970
 8499SOL    HW126938   5.647   2.596   4.723  0.6106  0.9510  2.3364
 8499SOL    HW226939   5.747   2.517   4.643 -2.5047  0.1129 -1.0021
 8500SOL     OW26940   6.443   4.824   5.047 -0.0671 -0.4126  0.0675
 8500SOL    HW126941   6.353   4.795   5.029  0.0381 -0.6304 -0.1080
 8500SOL    HW226942   6.497   4.747   5.030  0.4333  0.3696 -2.2918
 8501SOL     OW26943   1.509   4.800   0.094  0.6027 -0.1422  0.5869
 8501SOL    HW126944   1.499   4.783   0.000  2.5751  1.6134 -0.0350
 8501SOL    HW226945   1.423   4.783   0.131 -0.4629 -0.0850 -1.6828
 8502SOL     OW26946   3.240   7.930   8.799 -0.0561 -0.2374 -0.1496
 8502SOL    HW126947   3.310   7.953   8.860 -0.5513 -1.1309  0.7919
 8502SOL    HW226948   3.267   7.845   8.764 -0.7333 -0.6752  0.3595
 8503SOL     OW26949   3.528   4.509   3.825  0.0098  0.4964 -0.2396
 8503SOL    HW126950   3.498   4.424   3.795  0.4155 -0.4271  1.8062
 8503SOL    HW226951   3.533   4.501   3.920 -0.3013  2.9353  0.0527
 8504SOL     OW26952   5.215   2.263  11.584 -0.2212 -0.3296 -0.3315
 8504SOL    HW126953   5.145   2.287  11.645 -2.4525 -2.0791 -2.0375
 8504SOL    HW226954   5.171   2.250  11.500  1.6414 -4.1169 -0.9328
 8505SOL     OW26955   0.383   5.253  11.890 -0.5033 -0.1902 -0.0758
 8505SOL    HW126956   0.431   5.179  11.852  0.3423 -0.6340  1.7238
 8505SOL    HW226957   0.445   5.292  11.951 -1.5163  0.9862  0.2342
 8506SOL     OW26958   2.821   3.653  11.318 -0.5132 -0.4513  0.0218
 8506SOL    HW126959   2.809   3.667  11.224  1.1616 -0.1881 -0.1759
 8506SOL    HW226960   2.915   3.641  11.329 -0.7591 -1.2247  1.5789
 8507SOL     OW26961   2.491   0.534   6.015  0.3920 -0.8983  0.3684
 8507SOL    HW126962   2.455   0.622   6.015  0.4147 -0.8353  2.5783
 8507SOL    HW226963   2.494   0.509   5.922 -1.0702  0.7979 -0.1892
 8508SOL     OW26964   6.527   0.308  10.056 -0.4313  0.2234 -0.5782
 8508SOL    HW126965   6.513   0.342  10.145  0.1922 -0.2464 -0.2893
 8508SOL    HW226966   6.479   0.225  10.055 -1.6075  0.8965 -1.1464
 8509SOL     OW26967   1.367   2.384   5.275  0.4151 -1.0326 -0.5551
 8509SOL    HW126968   1.443   2.443   5.274  0.0044 -0.5072 -1.1276
 8509SOL    HW226969   1.346   2.374   5.368  0.7846 -0.6599 -0.4298
 8510SOL     OW26970   3.206   2.303   3.285 -0.8622  0.3664 -0.1352
 8510SOL    HW126971   3.207   2.373   3.220 -1.7894 -0.1462 -0.7117
 8510SOL    HW226972   3.154   2.233   3.245 -0.6014 -0.3516  0.7482
 8511SOL     OW26973   7.607   4.428   1.599 -0.1585 -0.3474  0.4739
 8511SOL    HW126974   7.569   4.392   1.679 -2.2409 -1.6885 -1.0341
 8511SOL    HW226975   7.535   4.429   1.536  1.7035 -0.5458 -1.7854
 8512SOL     OW26976   4.111   6.977  10.628 -0.1874  0.2212  0.0631
 8512SOL    HW126977   4.059   7.033  10.570  1.9596  1.4392 -0.8159
 8512SOL    HW226978   4.057   6.965  10.705 -1.5814  1.7787 -0.6177
 8513SOL     OW26979   5.974   7.741   2.530  0.4034  0.2006 -0.0068
 8513SOL    HW126980   6.052   7.781   2.568 -0.1190 -0.1993  1.5719
 8513SOL    HW226981   5.946   7.802   2.462  0.6460  1.6535  1.1423
 8514SOL     OW26982   0.717   4.315   7.105  0.4104  0.3497  0.3700
 8514SOL    HW126983   0.705   4.270   7.021  0.1657  0.0370  0.5738
 8514SOL    HW226984   0.812   4.317   7.118  0.5750  1.7831 -0.6725
 8515SOL     OW26985   4.037   0.895   2.065  0.5070 -0.0533  0.1871
 8515SOL    HW126986   3.956   0.850   2.087  1.4270 -2.1479 -0.4823
 8515SOL    HW226987   4.022   0.985   2.093 -2.8988  0.2461 -1.8953
 8516SOL     OW26988   1.469   7.646   4.014  0.5379  0.4275 -0.0445
 8516SOL    HW126989   1.402   7.715   4.016  1.4265  1.3205 -0.1659
 8516SOL    HW226990   1.420   7.565   4.030 -0.5366  1.0748  0.0903
 8517SOL     OW26991   0.391   1.220   4.333  0.4164  0.3967  0.5707
 8517SOL    HW126992   0.442   1.162   4.389  1.2777  1.7070  1.2163
 8517SOL    HW226993   0.358   1.288   4.393 -0.8341  0.3972 -0.0939
 8518SOL     OW26994   6.343   1.624   2.302 -0.3645 -0.0810  0.4655
 8518SOL    HW126995   6.428   1.615   2.343 -0.8688  0.6376  1.7355
 8518SOL    HW226996   6.290   1.554   2.339 -0.8031  0.5271  1.0242
 8519SOL     OW26997   0.816   7.314   7.989  0.3911 -0.4218  0.0977
 8519SOL    HW126998   0.886   7.337   7.927  1.0034 -1.9895  0.1675
 8519SOL    HW226999   0.741   7.366   7.960  1.0235 -0.1722 -1.1876
 8520SOL     OW27000   1.450   6.807   0.996  0.3771  0.8153  0.4570
 8520SOL    HW127001   1.460   6.748   0.921 -2.9032  0.6871 -0.0497
 8520SOL    HW227002   1.457   6.750   1.073 -1.9256 -0.1989 -0.0021
 8521SOL     OW27003   3.996   6.315   1.708  0.4357  0.1334 -0.3980
 8521SOL    HW127004   3.993   6.401   1.749  0.9748 -0.1929  0.3442
 8521SOL    HW227005   4.060   6.265   1.760  0.4777 -0.5660 -1.0975
 8522SOL     OW27006   2.922   0.043   4.808  0.4180 -0.5228 -0.2655
 8522SOL    HW127007   2.997   0.040   4.867 -1.5272 -2.2747  2.3234
 8522SOL    HW227008   2.912   0.136   4.786  1.1907  0.2281  2.2787
 8523SOL     OW27009   0.619   5.060   5.868  0.3555  0.2612  0.4350
 8523SOL    HW127010   0.603   5.133   5.809  0.2368 -0.4879 -0.4933
 8523SOL    HW227011   0.659   5.099   5.946  2.4304  1.0571 -0.9497
 8524SOL     OW27012   7.493   5.887  12.378 -0.0292  0.6238  0.2470
 8524SOL    HW127013   7.435   5.877  12.453 -1.0721  1.3264 -0.4527
 8524SOL    HW227014   7.466   5.819  12.316  0.1199  0.7263  0.0640
 8525SOL     OW27015   1.572   2.353  12.123 -0.6735 -0.5771  0.0745
 8525SOL    HW127016   1.618   2.285  12.173 -0.2659 -0.4832 -0.1726
 8525SOL    HW227017   1.641   2.402  12.080 -1.0473 -0.9076 -0.9164
 8526SOL     OW27018   3.599   7.112   9.606 -0.3772  0.1064 -0.0296
 8526SOL    HW127019   3.666   7.138   9.669 -0.8973 -0.2745  0.6935
 8526SOL    HW227020   3.647   7.096   9.525  0.2043  1.3944  0.0316
 8527SOL     OW27021   1.940   3.719   3.414  0.2505 -0.3750  0.5683
 8527SOL    HW127022   1.929   3.626   3.392 -0.3225 -0.3128  0.5905
 8527SOL    HW227023   2.008   3.719   3.481 -0.7615 -0.9183  1.6295
 8528SOL     OW27024   1.249   6.023  11.366  0.2333 -0.3301  0.0166
 8528SOL    HW127025   1.326   6.071  11.337 -1.8723  1.5507 -3.0077
 8528SOL    HW227026   1.242   5.949  11.305 -0.9085  0.1497 -0.4621
 8529SOL     OW27027   7.573   6.070   4.042  0.4589  0.0149 -0.3500
 8529SOL    HW127028   7.650   6.056   3.986 -0.5090 -0.2622 -1.6632
 8529SOL    HW227029   7.558   6.164   4.040 -0.0802 -0.0773 -1.2977
 8530SOL     OW27030   0.615   4.798   7.356  0.3944 -0.1136  1.0059
 8530SOL    HW127031   0.533   4.822   7.399 -1.1082 -1.2267 -1.0779
 8530SOL    HW227032   0.631   4.708   7.386  1.1024  0.2269  1.6987
 8531SOL     OW27033   0.471   1.579   1.054  0.4309  0.0541 -0.0906
 8531SOL    HW127034   0.414   1.539   0.987  1.8672 -1.7503 -0.3120
 8531SOL    HW227035   0.429   1.556   1.137 -0.3787  0.7308 -0.2970
 8532SOL     OW27036   7.154   0.858   0.683  0.0179 -0.4967  0.2670
 8532SOL    HW127037   7.116   0.931   0.634  0.1764  0.2542  1.2338
 8532SOL    HW227038   7.123   0.871   0.772 -0.0924 -1.7243  0.4225
 8533SOL     OW27039   5.083   5.502  11.385  0.0678  0.3672 -0.3441
 8533SOL    HW127040   5.030   5.481  11.462 -0.5088  1.4628 -0.4141
 8533SOL    HW227041   5.091   5.420  11.337  0.2444 -0.2884  0.7652
 8534SOL     OW27042   1.968   4.534   3.029  0.8620  0.5648 -0.7359
 8534SOL    HW127043   1.940   4.620   2.999  1.5475 -0.0127 -3.2647
 8534SOL    HW227044   2.060   4.545   3.051  1.0694  0.4245 -1.4849
 8535SOL     OW27045   2.225   2.524  10.805  0.2221  0.0628 -0.2247
 8535SOL    HW127046   2.244   2.571  10.724  1.8013 -2.3346 -1.3790
 8535SOL    HW227047   2.192   2.439  10.776  1.4488 -1.1098  1.6016
 8536SOL     OW27048   4.275   2.983   3.331 -0.2775 -0.2312  0.0731
 8536SOL    HW127049   4.225   2.950   3.406  1.6226 -1.7637  0.7733
 8536SOL    HW227050   4.300   3.072   3.356  1.1655 -1.0546  1.7913
 8537SOL     OW27051   5.661   4.938   5.971  0.7535  0.0716  0.0539
 8537SOL    HW127052   5.608   4.859   5.985  0.4926 -0.2311 -2.2782
 8537SOL    HW227053   5.606   4.995   5.917  1.4735  1.2747  0.5596
 8538SOL     OW27054   2.130   7.876   2.477 -0.0947  0.1127 -0.1268
 8538SOL    HW127055   2.090   7.962   2.465 -0.5818  0.0484  0.9144
 8538SOL    HW227056   2.169   7.855   2.392  1.6786  2.1739  0.0961
 8539SOL     OW27057   0.931   4.125   7.619  0.3811  0.0264  0.1945
 8539SOL    HW127058   1.010   4.110   7.567  1.0501  1.1591  0.8163
 8539SOL    HW227059   0.942   4.068   7.696 -0.0644 -0.8170 -0.3659
 8540SOL     OW27060   7.464   7.092   7.523  0.2151  0.3677 -0.4314
 8540SOL    HW127061   7.520   7.015   7.515 -0.8419 -0.5110  0.4669
 8540SOL    HW227062   7.393   7.066   7.582 -0.8127  1.6475 -1.0292
 8541SOL     OW27063   7.658   0.916   9.889  0.3283  0.2442 -0.7638
 8541SOL    HW127064   7.737   0.874   9.925 -0.8398  0.3792  2.2575
 8541SOL    HW227065   7.676   1.010   9.896 -0.5454  0.3107  1.2743
 8542SOL     OW27066   5.118   1.915   3.814 -0.1883  0.1158 -0.2163
 8542SOL    HW127067   5.068   1.985   3.774  1.1246  0.6853 -0.9304
 8542SOL    HW227068   5.053   1.861   3.859 -1.3539  1.1066 -0.6667
 8543SOL     OW27069   6.783   5.139   6.537  0.2141 -0.6159  0.1456
 8543SOL    HW127070   6.875   5.161   6.523 -0.0655  0.1981 -0.5120
 8543SOL    HW227071   6.769   5.150   6.631  0.6750 -0.2565  0.1747
 8544SOL     OW27072   1.161   0.347  10.725 -0.0221  0.6296 -0.0960
 8544SOL    HW127073   1.070   0.371  10.740 -0.2879  0.5656 -1.4270
 8544SOL    HW227074   1.156   0.261  10.682  0.4877  1.6060 -2.2898
 8545SOL     OW27075   1.023   4.336   0.746 -0.2848  0.5074  0.0960
 8545SOL    HW127076   1.023   4.429   0.722 -1.1974  0.3584 -0.5506
 8545SOL    HW227077   0.931   4.311   0.745 -0.0274 -0.4957 -0.0957
 8546SOL     OW27078   6.166   5.351   5.584  0.2665 -0.1573  0.3397
 8546SOL    HW127079   6.168   5.341   5.679 -0.7485 -1.1629  0.2757
 8546SOL    HW227080   6.126   5.270   5.552 -1.7865  1.2094 -0.7689
 8547SOL     OW27081   3.760   2.491   7.141  0.0635 -0.0110 -0.2592
 8547SOL    HW127082   3.802   2.576   7.128 -0.3890  0.2425 -0.0569
 8547SOL    HW227083   3.719   2.497   7.227  1.7234 -1.1411  0.6638
 8548SOL     OW27084   6.457   4.235   9.087 -0.0238  0.6577  0.0006
 8548SOL    HW127085   6.514   4.308   9.062 -0.3729  1.5370  1.6391
 8548SOL    HW227086   6.368   4.268   9.074 -0.1950 -0.0335 -0.6944
 8549SOL     OW27087   3.082   6.100   7.120  0.2041 -0.2287 -0.0400
 8549SOL    HW127088   3.118   6.085   7.207 -0.4252 -0.4410  0.1936
 8549SOL    HW227089   3.157   6.098   7.061  0.4988 -1.3475  0.3479
 8550SOL     OW27090   0.651   0.264  10.554  0.0393  0.2069 -0.0357
 8550SOL    HW127091   0.675   0.214  10.477  1.8549 -2.6016  2.1555
 8550SOL    HW227092   0.583   0.212  10.597 -0.3774  1.3139  0.6947
 8551SOL     OW27093   6.738   1.806   5.800  0.2998 -0.1344 -0.0997
 8551SOL    HW127094   6.767   1.896   5.784 -0.0226  0.1729  0.9540
 8551SOL    HW227095   6.770   1.786   5.888 -1.2484 -0.3535  0.4409
 8552SOL     OW27096   0.685   6.848   2.068 -0.1584 -0.0614 -0.5742
 8552SOL    HW127097   0.671   6.888   1.982  0.2653  1.2013 -0.0896
 8552SOL    HW227098   0.658   6.916   2.130  0.0619 -0.7469  0.2873
 8553SOL     OW27099   1.557   6.742   0.437 -0.2021 -0.4361 -0.1958
 8553SOL    HW127100   1.566   6.830   0.401  1.0449 -0.9984 -1.3462
 8553SOL    HW227101   1.608   6.686   0.378  4.0056 -1.1810  3.5539
 8554SOL     OW27102   0.519   1.965   8.759 -0.0691  0.1884  0.5606
 8554SOL    HW127103   0.480   2.040   8.714 -0.4668 -1.1388 -1.4081
 8554SOL    HW227104   0.502   1.983   8.852 -3.1318  0.9631 -0.0093
 8555SOL     OW27105   2.126   1.978   8.289  0.4149 -0.1774 -0.1785
 8555SOL    HW127106   2.097   1.887   8.280  1.0676 -0.6877  2.3217
 8555SOL    HW227107   2.072   2.015   8.358  1.0111  0.9742 -0.2895
 8556SOL     OW27108   6.011   5.761  11.241  0.3087 -0.5467 -0.0307
 8556SOL    HW127109   5.930   5.812  11.232 -0.8892 -2.2991  0.4508
 8556SOL    HW227110   6.081   5.827  11.239 -1.2052  1.1865  1.2505
 8557SOL     OW27111   3.173   7.893   4.641 -0.2256  0.6669 -0.5576
 8557SOL    HW127112   3.253   7.844   4.629 -0.2588  0.3808  0.3098
 8557SOL    HW227113   3.138   7.862   4.725  0.1480  2.6750  0.4175
 8558SOL     OW27114   6.132   6.808   3.366  0.5112 -0.2909  0.3898
 8558SOL    HW127115   6.191   6.734   3.379  1.2848  0.0845 -0.8674
 8558SOL    HW227116   6.184   6.885   3.390 -0.2893 -0.1206  1.7044
 8559SOL     OW27117   1.722   6.686   0.838 -0.1345 -0.3915  0.4380
 8559SOL    HW127118   1.778   6.678   0.761  0.2876 -1.5701  0.8464
 8559SOL    HW227119   1.645   6.634   0.817 -1.6089  1.9922 -0.5170
 8560SOL     OW27120   6.020   1.322  10.638 -0.2204  0.4929  0.5035
 8560SOL    HW127121   6.043   1.295  10.549  2.3258  2.2471  0.5209
 8560SOL    HW227122   5.955   1.392  10.626 -0.3088  0.3353  0.0448
 8561SOL     OW27123   3.060   6.084   3.048 -0.2895 -0.1099 -0.0908
 8561SOL    HW127124   3.004   6.007   3.060  0.3900 -0.5427  0.4085
 8561SOL    HW227125   3.147   6.055   3.077  0.4499  0.2112 -1.8512
 8562SOL     OW27126   4.376   2.937  10.533 -0.1006 -0.4014 -0.4604
 8562SOL    HW127127   4.387   2.991  10.610  2.5136 -2.9237  1.1683
 8562SOL    HW227128   4.294   2.890  10.547 -0.3562  0.2132  0.0957
 8563SOL     OW27129   3.653   4.303   7.212  0.2157 -0.4161 -0.1890
 8563SOL    HW127130   3.744   4.315   7.183 -0.3729  0.1468 -1.8813
 8563SOL    HW227131   3.646   4.210   7.231  0.7568 -0.7287 -1.4668
 8564SOL     OW27132   2.011   7.082   6.790  0.0885 -0.1638  0.1840
 8564SOL    HW127133   1.973   7.117   6.870  0.9982  1.5309 -0.0873
 8564SOL    HW227134   2.004   7.153   6.726  2.6100 -0.1437 -0.1927
 8565SOL     OW27135   2.337   0.214   8.364 -0.1056 -0.3765  0.0294
 8565SOL    HW127136   2.363   0.263   8.286  1.0621 -0.0561  0.5875
 8565SOL    HW227137   2.254   0.172   8.341 -0.5432  0.9292 -0.8671
 8566SOL     OW27138   5.509   4.158   3.543 -0.0213  0.4623  0.5205
 8566SOL    HW127139   5.551   4.237   3.511 -0.1253  0.0238 -0.7368
 8566SOL    HW227140   5.567   4.126   3.613  0.1650  1.4697  0.8351
 8567SOL     OW27141   4.714   6.483  10.179 -0.2377 -0.1690  0.1136
 8567SOL    HW127142   4.808   6.481  10.197 -0.1464 -0.5846 -0.3939
 8567SOL    HW227143   4.704   6.547  10.109 -0.6069  1.5208  1.6174
 8568SOL     OW27144   7.668   0.323   8.175 -0.4799 -0.2218 -0.2046
 8568SOL    HW127145   7.611   0.398   8.193 -0.7680 -0.4679 -0.0666
 8568SOL    HW227146   7.621   0.248   8.213  1.5434  0.0220  3.1623
 8569SOL     OW27147   1.281   3.232   2.327  0.0174  0.9101 -0.0224
 8569SOL    HW127148   1.186   3.224   2.329  0.2158 -3.3438  1.0516
 8569SOL    HW227149   1.312   3.148   2.293  3.4291  2.4296 -1.1044
 8570SOL     OW27150   3.887   1.928  10.429 -0.4636  0.3822 -0.2073
 8570SOL    HW127151   3.971   1.885  10.411 -1.5940 -1.6627 -0.9084
 8570SOL    HW227152   3.897   2.016  10.394  1.4524  0.2690 -0.0724
 8571SOL     OW27153   7.142   2.337   7.012  0.0945 -0.1385 -0.2250
 8571SOL    HW127154   7.160   2.258   7.062 -1.9508 -1.0359 -0.8213
 8571SOL    HW227155   7.229   2.371   6.989  1.0365 -2.1668  0.0898
 8572SOL     OW27156   1.949   5.928  12.285  0.4561  0.2017  0.1078
 8572SOL    HW127157   2.044   5.919  12.278  0.3176 -0.7084 -0.7573
 8572SOL    HW227158   1.927   5.892  12.371  0.8768  0.2700  0.2428
 8573SOL     OW27159   5.454   3.041   1.108 -0.2573 -0.2144  1.0906
 8573SOL    HW127160   5.527   3.080   1.060 -1.4026 -0.3262 -0.8721
 8573SOL    HW227161   5.448   2.952   1.074 -2.5803  0.4274 -0.4466
 8574SOL     OW27162   0.230   1.748   0.261 -0.4939  0.0347  0.0631
 8574SOL    HW127163   0.321   1.775   0.244 -0.0115 -0.8939  1.0445
 8574SOL    HW227164   0.215   1.770   0.353 -1.3358  0.3411 -0.1376
 8575SOL     OW27165   1.055   7.115  11.554 -0.8053  0.1719 -0.1095
 8575SOL    HW127166   0.990   7.106  11.485 -0.6113 -2.7523 -0.0075
 8575SOL    HW227167   1.091   7.027  11.566  2.0147  1.3401  0.9721
 8576SOL     OW27168   2.586   7.574   2.324  0.1227  0.0249 -0.0040
 8576SOL    HW127169   2.544   7.637   2.382  0.3496  0.9789 -0.8398
 8576SOL    HW227170   2.584   7.491   2.372 -1.1532  0.4232  0.6726
 8577SOL     OW27171   4.511   1.202   4.145  0.1139  0.2247 -0.1365
 8577SOL    HW127172   4.570   1.204   4.220  0.7061  0.3001 -0.6015
 8577SOL    HW227173   4.454   1.279   4.157 -1.8629 -1.4196  1.8630
 8578SOL     OW27174   4.485   3.626  12.101 -0.3977 -0.1065 -0.4186
 8578SOL    HW127175   4.456   3.717  12.106 -0.8962 -0.2110 -1.1762
 8578SOL    HW227176   4.580   3.632  12.091 -0.5818  0.4218 -2.3009
 8579SOL     OW27177   6.708   3.484   5.697 -0.2662 -0.1218 -0.3268
 8579SOL    HW127178   6.750   3.537   5.629  0.1827 -1.2849 -0.9922
 8579SOL    HW227179   6.780   3.456   5.753 -0.5970  0.5850  0.4596
 8580SOL     OW27180   3.437   7.760   7.982  0.5208  0.0017  0.4122
 8580SOL    HW127181   3.435   7.667   8.007  0.8960 -0.1299 -0.0341
 8580SOL    HW227182   3.367   7.800   8.034 -0.8935 -0.8813 -0.7441
 8581SOL     OW27183   5.445   7.304  10.001 -0.0449  0.1326 -0.4844
 8581SOL    HW127184   5.501   7.241   9.955 -1.0351  0.0585 -1.6440
 8581SOL    HW227185   5.367   7.311   9.946  0.3455  2.9446 -0.8330
 8582SOL     OW27186   4.493   7.090   1.399  0.2123 -0.8350  0.1953
 8582SOL    HW127187   4.407   7.048   1.409 -0.0246 -0.1423  1.1470
 8582SOL    HW227188   4.553   7.033   1.447  0.1747 -0.9484  0.1104
 8583SOL     OW27189   2.120   1.449   5.979 -0.0553  0.0983  0.6236
 8583SOL    HW127190   2.062   1.473   5.907  1.7962 -2.3975 -1.9060
 8583SOL    HW227191   2.141   1.532   6.022 -1.6243  1.6281 -1.3719
 8584SOL     OW27192   6.994   4.863   5.668  0.0618  0.2916 -0.3743
 8584SOL    HW127193   6.972   4.802   5.598  0.7003  0.6650 -0.9075
 8584SOL    HW227194   7.044   4.810   5.731  0.8270  0.3180 -0.9522
 8585SOL     OW27195   6.640   3.640  11.429  0.1054 -0.0430  0.1472
 8585SOL    HW127196   6.678   3.700  11.365  0.0654  0.0467  0.2089
 8585SOL    HW227197   6.709   3.574  11.443  0.3887  0.3313  0.5515
 8586SOL     OW27198   5.917   5.347  11.292  0.1874  0.0283 -0.1669
 8586SOL    HW127199   5.950   5.336  11.203 -0.9593 -1.3248 -0.4773
 8586SOL    HW227200   5.988   5.390  11.339  1.7227 -1.2630 -1.1809
 8587SOL     OW27201   7.144   7.466   4.952  0.2744 -0.2882 -0.3449
 8587SOL    HW127202   7.197   7.457   4.872  0.9304 -0.8423  0.1469
 8587SOL    HW227203   7.110   7.378   4.968  0.2850 -0.2160  0.0796
 8588SOL     OW27204   2.959   2.993   4.917  0.0058  0.0841  0.0189
 8588SOL    HW127205   2.888   2.930   4.907 -1.4228  1.7054 -0.5252
 8588SOL    HW227206   2.987   3.011   4.827  0.6517 -0.0388  0.1923
 8589SOL     OW27207   6.543   1.498  10.083 -0.5822 -0.1568  0.0240
 8589SOL    HW127208   6.485   1.429  10.116  0.8831 -0.7096  1.5810
 8589SOL    HW227209   6.613   1.451  10.038 -0.9071  0.4725 -1.1951
 8590SOL     OW27210   0.737   1.683   8.319  0.1192  0.5168 -0.2316
 8590SOL    HW127211   0.704   1.633   8.244  0.3879  0.2066 -0.1465
 8590SOL    HW227212   0.678   1.757   8.326 -0.7151 -0.1662  0.0746
 8591SOL     OW27213   4.648   4.765   8.836 -0.0851 -0.2408 -0.3693
 8591SOL    HW127214   4.575   4.801   8.787 -1.5164  0.4861  2.0892
 8591SOL    HW227215   4.609   4.701   8.896  1.6737 -1.7556 -0.7526
 8592SOL     OW27216   3.269   2.446   4.997 -0.2313  0.4278  0.5758
 8592SOL    HW127217   3.178   2.448   4.967 -0.3166 -2.2377  0.4064
 8592SOL    HW227218   3.303   2.533   4.978 -1.9779  0.6762 -1.9371
 8593SOL     OW27219   4.709   4.415  12.206 -0.0619  0.3116  0.4193
 8593SOL    HW127220   4.747   4.496  12.173  0.7534 -0.1797  0.0994
 8593SOL    HW227221   4.737   4.411  12.298 -1.0763  0.9494  0.7655
 8594SOL     OW27222   0.719   6.942   3.390  0.0634  0.3169 -0.7150
 8594SOL    HW127223   0.701   6.893   3.470 -1.4601  0.2106 -1.0991
 8594SOL    HW227224   0.810   6.969   3.400  0.2616 -0.6572  0.5310
 8595SOL     OW27225   2.097   2.133  10.445  0.2646  0.3521 -0.2326
 8595SOL    HW127226   2.154   2.059  10.425  1.1321  0.9128  0.1422
 8595SOL    HW227227   2.155   2.209  10.448  0.0604  0.5400  3.1301
 8596SOL     OW27228   2.615   4.126   8.358  0.0303  0.1634  0.4552
 8596SOL    HW127229   2.635   4.053   8.416  1.3181 -0.3593 -0.6089
 8596SOL    HW227230   2.642   4.204   8.407  0.2361 -0.1903  0.9085
 8597SOL     OW27231   5.298   0.179   5.918 -0.5714 -0.1379  0.1736
 8597SOL    HW127232   5.388   0.195   5.890 -0.1077  1.4544  2.3012
 8597SOL    HW227233   5.249   0.253   5.884 -0.7931 -0.2751  0.1946
 8598SOL     OW27234   2.015   7.080   6.014  0.7957 -0.0615 -0.2916
 8598SOL    HW127235   1.943   7.143   6.010 -0.3935 -1.2968  0.6941
 8598SOL    HW227236   2.050   7.079   5.925  0.9868  2.0983 -0.2914
 8599SOL     OW27237   2.197   1.577   6.978  0.1595  0.2269 -0.4591
 8599SOL    HW127238   2.275   1.539   7.019  0.5308  2.6983  1.4026
 8599SOL    HW227239   2.124   1.548   7.033  0.0478 -0.2551 -0.8577
 8600SOL     OW27240   1.443   5.338   9.128  0.2431 -0.4555 -0.2804
 8600SOL    HW127241   1.529   5.300   9.148 -0.2042 -1.1766  0.3351
 8600SOL    HW227242   1.463   5.414   9.074  1.2316 -0.9675 -0.6694
 8601SOL     OW27243   6.652   1.728   7.443  0.2525  0.1794 -0.3762
 8601SOL    HW127244   6.679   1.694   7.358  1.5611 -0.6302  0.3390
 8601SOL    HW227245   6.611   1.653   7.487 -1.8348  0.9749 -0.8250
 8602SOL     OW27246   5.463   2.119  10.418  0.3538 -0.3206  0.0208
 8602SOL    HW127247   5.371   2.120  10.394 -0.4336  0.6775  2.7131
 8602SOL    HW227248   5.477   2.034  10.460 -0.2631  0.6467  2.3965
 8603SOL     OW27249   6.547   5.423   3.048  0.0196 -0.3290  0.3053
 8603SOL    HW127250   6.639   5.449   3.053 -0.0815  0.3118 -0.8634
 8603SOL    HW227251   6.500   5.492   3.095 -0.1533  1.1648 -1.9373
 8604SOL     OW27252   2.705   4.525   5.000  0.3472  0.4225  0.3605
 8604SOL    HW127253   2.673   4.556   5.085 -1.0955  0.6963 -0.2468
 8604SOL    HW227254   2.741   4.438   5.018 -1.0126 -0.0211  1.0704
 8605SOL     OW27255   5.086   0.585   9.675 -0.6551 -0.1459 -0.2998
 8605SOL    HW127256   5.018   0.587   9.608  1.4679 -0.3238 -2.6216
 8605SOL    HW227257   5.141   0.511   9.651  0.3910  0.0071  1.4582
 8606SOL     OW27258   1.510   1.623   1.809  0.4538  0.4864  0.2136
 8606SOL    HW127259   1.439   1.580   1.856  0.5019 -1.0371 -1.0434
 8606SOL    HW227260   1.467   1.689   1.754  0.2389  1.0631  1.0667
 8607SOL     OW27261   1.752   5.327   8.641 -0.4230 -0.3222 -0.2423
 8607SOL    HW127262   1.830   5.275   8.662  1.5629  2.7478  0.6215
 8607SOL    HW227263   1.712   5.281   8.567  1.2680 -2.9117  0.3109
 8608SOL     OW27264   7.378   5.707  10.077 -0.9331 -0.5679 -0.2628
 8608SOL    HW127265   7.398   5.625  10.032 -3.2903 -0.7992 -0.9725
 8608SOL    HW227266   7.283   5.712  10.079 -0.8758  1.9956  0.0631
 8609SOL     OW27267   1.828   7.017   5.488 -0.1364  0.1086  0.4171
 8609SOL    HW127268   1.909   7.008   5.437  0.0148  0.5906  0.5621
 8609SOL    HW227269   1.759   6.994   5.427 -0.0774  2.1431 -0.5073
 8610SOL     OW27270   1.343   2.991   8.439 -0.3429 -0.8645  0.1667
 8610SOL    HW127271   1.317   2.950   8.522 -0.0028 -1.1081  0.1558
 8610SOL    HW227272   1.432   3.022   8.455  0.0221 -1.6075 -0.3517
 8611SOL     OW27273   1.179   6.191   1.393 -0.1085  0.5717 -0.2067
 8611SOL    HW127274   1.124   6.250   1.341 -0.6716  0.0464 -0.2226
 8611SOL    HW227275   1.268   6.205   1.359 -0.3216  0.9667 -0.6186
 8612SOL     OW27276   7.194   1.204   8.600 -0.0704 -0.3039  0.4158
 8612SOL    HW127277   7.242   1.198   8.518  0.8029  0.3213  0.8604
 8612SOL    HW227278   7.187   1.114   8.631  2.3447 -0.2865  1.1736
 8613SOL     OW27279   0.371   1.966   5.471  0.5451 -1.0057  0.0661
 8613SOL    HW127280   0.344   2.035   5.530  1.2016  0.7235 -1.5656
 8613SOL    HW227281   0.289   1.923   5.445  0.0851 -0.5531  0.7408
 8614SOL     OW27282   7.325   7.741   8.265  0.6039  0.6732  0.0761
 8614SOL    HW127283   7.271   7.768   8.191  1.1095 -0.0704 -0.5826
 8614SOL    HW227284   7.405   7.708   8.225  1.3942  1.3836  1.0164
 8615SOL     OW27285   7.489   4.880   5.352  0.2590  0.1198 -0.5485
 8615SOL    HW127286   7.518   4.885   5.443  1.1971 -0.3661 -0.8109
 8615SOL    HW227287   7.432   4.803   5.350 -0.4523  0.6236 -0.1994
 8616SOL     OW27288   1.394   2.006   2.297 -0.5330 -0.0769  0.4280
 8616SOL    HW127289   1.436   2.080   2.341  0.3267 -0.3701  0.1192
 8616SOL    HW227290   1.442   1.996   2.215 -0.3078 -1.2819  0.6841
 8617SOL     OW27291   1.702   4.613   7.111 -0.8128  0.2299 -0.0509
 8617SOL    HW127292   1.776   4.670   7.133 -0.2841 -0.3553 -0.2956
 8617SOL    HW227293   1.740   4.544   7.057 -1.7916  0.7357 -1.4501
 8618SOL     OW27294   7.916   7.235  12.090  0.3461  0.0802  0.0963
 8618SOL    HW127295   7.871   7.209  12.010  1.1090  1.3160 -0.7697
 8618SOL    HW227296   7.849   7.283  12.140 -0.2029 -0.9111  0.3305
 8619SOL     OW27297   3.452   0.940  10.181 -0.6818  0.0776 -0.3311
 8619SOL    HW127298   3.456   0.846  10.201 -1.3687  0.1775  0.2712
 8619SOL    HW227299   3.543   0.964  10.163 -0.2978 -0.3980  0.9261
 8620SOL     OW27300   0.220   0.048   3.684 -0.4153 -0.5136  0.0728
 8620SOL    HW127301   0.275   0.038   3.763  0.0025  1.8884  0.1660
 8620SOL    HW227302   0.239   0.137   3.654 -0.3534 -1.4549 -2.9452
 8621SOL     OW27303   5.746   6.802   8.229 -0.2216 -0.3303 -0.1874
 8621SOL    HW127304   5.810   6.736   8.258 -0.4921 -0.3547  0.3679
 8621SOL    HW227305   5.784   6.885   8.259 -0.2488 -0.3075 -0.2180
 8622SOL     OW27306   1.366   3.949   1.302 -0.1122 -0.2274 -0.2693
 8622SOL    HW127307   1.450   3.904   1.302  0.6909  0.9563  3.5432
 8622SOL    HW227308   1.385   4.036   1.337 -2.4471  1.3652 -2.5493
 8623SOL     OW27309   5.326   4.262   6.075 -0.0286 -0.3597 -0.2375
 8623SOL    HW127310   5.231   4.261   6.069 -0.0368 -0.1369 -0.1696
 8623SOL    HW227311   5.350   4.173   6.101 -0.3071 -0.0991  0.9993
 8624SOL     OW27312   5.503   3.721   4.001  0.6807  0.0856 -0.2556
 8624SOL    HW127313   5.415   3.702   4.034  0.5954  0.3761 -0.3106
 8624SOL    HW227314   5.507   3.816   3.999  0.9206  0.0701 -0.4590
 8625SOL     OW27315   4.883   3.343   3.088  0.8961  0.6617 -0.1665
 8625SOL    HW127316   4.921   3.345   3.175  0.0585  0.0864  0.2235
 8625SOL    HW227317   4.794   3.376   3.099  0.3685 -0.5580 -0.5709
 8626SOL     OW27318   3.408   5.632  11.223  0.1495 -0.0472  0.0365
 8626SOL    HW127319   3.348   5.563  11.193  0.8671 -0.6220 -0.1018
 8626SOL    HW227320   3.356   5.712  11.218 -0.6241 -0.5382 -0.0367
 8627SOL     OW27321   4.974   5.251   3.569  0.5480 -0.3406  0.2602
 8627SOL    HW127322   4.991   5.219   3.657 -0.4540  0.1391  0.6424
 8627SOL    HW227323   4.971   5.173   3.514  1.6301 -0.6049  0.5595
 8628SOL     OW27324   3.334   0.575   8.811 -0.2842 -0.1482  0.2475
 8628SOL    HW127325   3.419   0.544   8.778 -0.4727 -0.0544 -0.3417
 8628SOL    HW227326   3.273   0.504   8.791 -0.5506  0.2345 -0.3286
 8629SOL     OW27327   3.952   0.320   5.255  0.2523  0.0258 -0.2957
 8629SOL    HW127328   3.871   0.342   5.210  0.0497 -0.5955 -0.2430
 8629SOL    HW227329   3.975   0.399   5.304  0.2275  0.5531 -1.1206
 8630SOL     OW27330   6.934   0.983   6.303  0.0146  0.2981 -0.4583
 8630SOL    HW127331   6.877   0.934   6.245  0.3368 -0.0762 -0.4635
 8630SOL    HW227332   7.009   1.007   6.248  2.1043 -3.1258  0.5750
 8631SOL     OW27333   4.954   6.161   9.609 -0.3053  0.2559 -0.9827
 8631SOL    HW127334   4.938   6.204   9.525 -2.4331 -0.0899 -0.7859
 8631SOL    HW227335   4.917   6.074   9.600  1.0088 -0.4077 -0.2462
 8632SOL     OW27336   6.481   6.962   6.404 -0.1737 -0.2863  0.1628
 8632SOL    HW127337   6.392   6.934   6.381 -0.0648 -0.2762 -0.2885
 8632SOL    HW227338   6.488   7.050   6.369 -0.7130  0.5695  2.0861
 8633SOL     OW27339   6.611   5.560   6.267  0.2858 -0.5655  0.0511
 8633SOL    HW127340   6.539   5.547   6.206 -0.2617  1.2849  0.2231
 8633SOL    HW227341   6.614   5.480   6.319 -1.8197 -0.6170  0.1750
 8634SOL     OW27342   3.554   6.740   7.539 -0.3744  0.6207  0.6239
 8634SOL    HW127343   3.614   6.675   7.575  0.1557  1.0658  0.5611
 8634SOL    HW227344   3.492   6.690   7.485  0.3537  0.2294  0.1434
 8635SOL     OW27345   7.692   0.157  10.271  0.2224 -0.0488  0.4207
 8635SOL    HW127346   7.710   0.150  10.177 -1.6749  0.6916 -0.0287
 8635SOL    HW227347   7.597   0.164  10.277  0.4128  1.6663  2.2851
 8636SOL     OW27348   4.153   1.833   1.468 -0.4416  0.0244 -0.0405
 8636SOL    HW127349   4.069   1.802   1.433 -0.7343  1.6105 -0.8403
 8636SOL    HW227350   4.218   1.797   1.407 -0.8737  1.9123 -1.7439
 8637SOL     OW27351   7.523   1.502   5.356  0.1953  0.7279 -0.5633
 8637SOL    HW127352   7.444   1.473   5.310  0.3783  0.5723 -0.7802
 8637SOL    HW227353   7.541   1.588   5.320  0.4484  0.5249 -0.9216
 8638SOL     OW27354   7.457   7.568  10.384  0.1949 -0.1065  0.0592
 8638SOL    HW127355   7.382   7.515  10.357  0.5146 -1.0327  0.8929
 8638SOL    HW227356   7.452   7.647  10.330 -1.0207 -0.4248 -0.3263
 8639SOL     OW27357   6.723   6.707  10.825  0.1640  0.0368 -0.5826
 8639SOL    HW127358   6.789   6.767  10.790  0.1649  0.3255 -0.1046
 8639SOL    HW227359   6.640   6.743  10.796  0.2205 -0.3772 -1.2600
 8640SOL     OW27360   6.277   4.827  10.882  0.0431  0.4663 -0.0002
 8640SOL    HW127361   6.258   4.830  10.788 -1.4782  1.2522  0.2922
 8640SOL    HW227362   6.248   4.912  10.915 -1.4153 -0.5383  1.4910
 8641SOL     OW27363   3.086   5.453   8.034  0.6062 -0.0736 -0.5979
 8641SOL    HW127364   3.107   5.437   7.942 -4.2067  0.6850 -2.1367
 8641SOL    HW227365   3.088   5.549   8.043  0.5461 -0.1196 -0.0708
 8642SOL     OW27366   1.978   5.315  10.301 -0.1045 -0.3874  0.0605
 8642SOL    HW127367   2.036   5.391  10.310 -1.9864  1.2403 -0.7383
 8642SOL    HW227368   1.991   5.286  10.210 -0.4331 -0.1203 -0.0711
 8643SOL     OW27369   3.705   2.330   2.335 -0.3873  0.2302  0.2928
 8643SOL    HW127370   3.731   2.420   2.352  1.8789 -0.4945  1.0528
 8643SOL    HW227371   3.612   2.327   2.358 -0.9506  2.7118 -1.3532
 8644SOL     OW27372   1.722   1.803  10.655 -0.0086  0.3699 -0.2458
 8644SOL    HW127373   1.640   1.814  10.606 -0.1910 -0.9263 -0.2554
 8644SOL    HW227374   1.790   1.831  10.594 -0.4839  2.5570  0.1416
 8645SOL     OW27375   7.186   2.849   5.329 -0.1299 -0.0743  0.1010
 8645SOL    HW127376   7.213   2.928   5.282 -1.9356 -0.2249 -1.3288
 8645SOL    HW227377   7.132   2.801   5.265 -1.2022 -1.1902  1.7699
 8646SOL     OW27378   2.476   5.156   7.442  0.2882 -0.3694  0.0537
 8646SOL    HW127379   2.524   5.123   7.518  0.1118  0.8953  0.7314
 8646SOL    HW227380   2.542   5.203   7.391  0.1522 -0.2051  0.0318
 8647SOL     OW27381   5.734   0.232   2.884 -0.3081 -0.6035  0.5364
 8647SOL    HW127382   5.733   0.246   2.789  0.3960 -0.7071  0.5069
 8647SOL    HW227383   5.748   0.319   2.921  1.4977 -0.8023  0.4483
 8648SOL     OW27384   7.547   0.435   0.479  0.2611 -0.6303  0.7233
 8648SOL    HW127385   7.550   0.495   0.405  0.5808  0.5239  1.6254
 8648SOL    HW227386   7.462   0.392   0.472 -0.3660  0.5994  0.5335
 8649SOL     OW27387   7.228   3.244  11.589  0.2960  0.1774  0.6786
 8649SOL    HW127388   7.266   3.321  11.630  2.3141 -1.0755  1.2810
 8649SOL    HW227389   7.248   3.254  11.496  0.8344  0.2364  0.7974
 8650SOL     OW27390   7.644   6.720  10.508  0.3439 -0.5030  0.3335
 8650SOL    HW127391   7.660   6.658  10.437  0.3718 -0.3696  0.2226
 8650SOL    HW227392   7.663   6.806  10.470  0.3641 -0.4313  0.5030
 8651SOL     OW27393   2.376   5.606  11.234  0.2842  0.5010 -0.3264
 8651SOL    HW127394   2.307   5.578  11.294  0.4515 -1.3693 -0.9354
 8651SOL    HW227395   2.448   5.633  11.290 -0.4079  1.0829  0.3043
 8652SOL     OW27396   3.338   5.164  11.173 -0.1531 -0.3125  0.0146
 8652SOL    HW127397   3.407   5.214  11.217 -0.2492 -0.5082  0.3878
 8652SOL    HW227398   3.374   5.145  11.086  0.5516 -1.0119  0.4452
 8653SOL     OW27399   6.501   7.003   5.922  0.3201  0.3975 -0.3045
 8653SOL    HW127400   6.575   6.959   5.882 -0.1805 -0.0168 -0.7948
 8653SOL    HW227401   6.460   7.052   5.851  0.7991  1.5901  0.2063
 8654SOL     OW27402   7.244   5.688   4.571 -0.4394 -0.3611  0.5378
 8654SOL    HW127403   7.330   5.680   4.529 -1.2783  0.7256 -1.5406
 8654SOL    HW227404   7.230   5.782   4.581 -1.6224 -0.4853  0.2436
 8655SOL     OW27405   7.006   6.000   8.576  0.4506  0.2404  0.1821
 8655SOL    HW127406   6.931   6.059   8.584  0.5044  0.1169  2.5708
 8655SOL    HW227407   7.082   6.055   8.595  0.7765 -0.0208 -0.3524
 8656SOL     OW27408   7.533   3.655   5.748  0.2562  0.5007 -0.3102
 8656SOL    HW127409   7.461   3.697   5.794  1.4832  2.1291  0.1852
 8656SOL    HW227410   7.585   3.727   5.712  1.1479 -0.6545 -1.4442
 8657SOL     OW27411   2.155   1.623   2.448 -0.4515 -0.0188  0.2768
 8657SOL    HW127412   2.221   1.594   2.385 -1.4036 -1.1277 -0.2411
 8657SOL    HW227413   2.158   1.719   2.443  1.5861 -0.0215  0.7835
 8658SOL     OW27414   6.940   4.664   2.501 -0.1688 -0.1680 -1.0924
 8658SOL    HW127415   6.850   4.634   2.512 -0.1564  0.3040  0.5986
 8658SOL    HW227416   6.932   4.757   2.478 -0.1246 -0.5981 -3.0445
 8659SOL     OW27417   2.625   0.112   2.651  0.1451 -0.3704  0.2893
 8659SOL    HW127418   2.706   0.082   2.692  0.1781  0.7774  1.0831
 8659SOL    HW227419   2.643   0.201   2.622 -1.1218  0.2932  1.3955
 8660SOL     OW27420   4.978   4.469   1.681  0.3367 -0.2704 -0.3797
 8660SOL    HW127421   4.938   4.381   1.682 -0.5882  0.1407 -0.5812
 8660SOL    HW227422   5.072   4.452   1.672  0.0511 -1.1981 -1.8920
 8661SOL     OW27423   1.245   2.651   5.675  1.0339  0.1620 -0.2092
 8661SOL    HW127424   1.301   2.576   5.652 -0.1792 -0.4067 -1.4617
 8661SOL    HW227425   1.232   2.642   5.769  2.2484 -0.2449 -0.0564
 8662SOL     OW27426   5.912   6.146   4.000  0.1559  0.5499  0.4052
 8662SOL    HW127427   5.944   6.057   4.006 -0.9830  0.1707  1.4943
 8662SOL    HW227428   5.979   6.199   4.043  0.9732  0.2877 -0.4994
 8663SOL     OW27429   7.185   6.918   2.066 -0.2796 -0.2159  0.1352
 8663SOL    HW127430   7.091   6.922   2.050 -0.6449 -1.2098  1.7729
 8663SOL    HW227431   7.225   6.952   1.985 -2.0023 -0.9336 -1.0761
 8664SOL     OW27432   6.252   3.234   6.705  0.2059 -0.1359  0.2357
 8664SOL    HW127433   6.229   3.179   6.780  2.1359  1.1814  1.9117
 8664SOL    HW227434   6.233   3.323   6.735  1.0390  0.4212 -0.8344
 8665SOL     OW27435   1.532   6.600  10.554 -0.3528  0.5963  0.6905
 8665SOL    HW127436   1.548   6.589  10.461 -1.2026  0.8396  0.5035
 8665SOL    HW227437   1.605   6.556  10.597  0.9491  1.9188 -0.0944
 8666SOL     OW27438   3.522   7.598   5.391 -0.1334  0.4796  0.0164
 8666SOL    HW127439   3.437   7.567   5.421  1.2304 -1.5677  2.1765
 8666SOL    HW227440   3.544   7.670   5.450  0.0766  0.2785  0.1885
 8667SOL     OW27441   7.278   7.538  12.425 -0.1060 -0.0143  0.6584
 8667SOL    HW127442   7.360   7.543  12.473 -1.1639 -1.0150  2.7006
 8667SOL    HW227443   7.273   7.621  12.378  1.9713  0.1266  0.6086
 8668SOL     OW27444   0.384   4.080   2.158 -0.5010 -0.2861  0.0358
 8668SOL    HW127445   0.434   4.009   2.117 -0.3624  0.4940 -1.2025
 8668SOL    HW227446   0.429   4.159   2.130 -1.1418  0.3343  0.7291
 8669SOL     OW27447   0.523   5.397  12.463  0.3082 -0.2187  0.5611
 8669SOL    HW127448   0.603   5.440  12.493  1.4081 -0.9886 -1.0784
 8669SOL    HW227449   0.481   5.462  12.406  1.7066 -1.0101 -1.5027
 8670SOL     OW27450   0.503   3.834   6.730  0.1461  0.2561  0.3372
 8670SOL    HW127451   0.577   3.891   6.708 -0.1092  0.4394 -0.0593
 8670SOL    HW227452   0.446   3.838   6.654 -1.5246  2.1051  1.5952
 8671SOL     OW27453   4.834   0.359  11.061  0.4365  0.0963 -0.1546
 8671SOL    HW127454   4.745   0.386  11.080  0.2563  0.6710 -1.6424
 8671SOL    HW227455   4.889   0.426  11.100  0.1389  0.5897 -0.5694
 8672SOL     OW27456   1.794   0.855   4.655 -0.6266  0.3307  0.2864
 8672SOL    HW127457   1.856   0.796   4.699 -0.4443  0.1719 -0.1733
 8672SOL    HW227458   1.848   0.907   4.595 -0.7409  1.2122  0.9313
 8673SOL     OW27459   6.838   5.958   9.352  0.5614 -0.1849  0.2456
 8673SOL    HW127460   6.886   5.990   9.276  0.9297 -0.3254  0.4145
 8673SOL    HW227461   6.746   5.958   9.325  0.5361  1.1163  0.2708
 8674SOL     OW27462   3.532   7.611   2.419 -0.0483 -0.3081  0.1394
 8674SOL    HW127463   3.547   7.560   2.499  0.8442  1.1999  1.0080
 8674SOL    HW227464   3.437   7.618   2.412 -0.1485 -0.9096  0.7752
 8675SOL     OW27465   0.915   0.640   6.983 -0.0439 -0.5191  0.1641
 8675SOL    HW127466   0.993   0.588   6.963 -0.8665 -1.5217 -0.5413
 8675SOL    HW227467   0.926   0.720   6.932  1.2560  0.0608  1.2842
 8676SOL     OW27468   1.279   3.466   6.139  0.1921  0.4096  0.4385
 8676SOL    HW127469   1.349   3.514   6.183  1.5663 -2.5050  1.6587
 8676SOL    HW227470   1.305   3.466   6.047  2.0057 -0.7824  0.8932
 8677SOL     OW27471   5.291   2.647   1.377  0.2074  0.1821  0.6254
 8677SOL    HW127472   5.301   2.672   1.285 -0.1928 -0.7382  0.3232
 8677SOL    HW227473   5.340   2.566   1.385  3.8550  2.3098  2.2674
 8678SOL     OW27474   2.340   4.539  10.692 -0.4795 -0.0321  0.0360
 8678SOL    HW127475   2.277   4.541  10.620  0.5799 -0.8633 -0.9545
 8678SOL    HW227476   2.316   4.462  10.744  0.8792 -1.5665 -1.4926
 8679SOL     OW27477   7.087   0.048   4.644 -0.0352 -0.2166 -0.5515
 8679SOL    HW127478   7.096  -0.047   4.650 -3.4985 -0.6310  0.7680
 8679SOL    HW227479   7.046   0.063   4.559 -2.1621 -0.3139  0.3878
 8680SOL     OW27480   7.760   6.434   1.747 -0.3843 -0.1547 -0.1816
 8680SOL    HW127481   7.677   6.480   1.737 -1.3113 -1.8527 -0.8799
 8680SOL    HW227482   7.826   6.503   1.759 -2.0195  1.2032  1.5037
 8681SOL     OW27483   6.018   5.292  11.031 -0.0893 -0.3335  0.2546
 8681SOL    HW127484   6.081   5.260  10.966  0.0674  3.9475 -2.0475
 8681SOL    HW227485   5.937   5.244  11.011 -0.1787  1.0375 -3.6646
 8682SOL     OW27486   7.088   5.673   0.579  0.1793  0.2499  0.0446
 8682SOL    HW127487   6.993   5.662   0.583  0.2470 -0.1609  0.8156
 8682SOL    HW227488   7.102   5.767   0.571 -0.3146  0.2300 -1.2402
 8683SOL     OW27489   4.849   0.321  11.802 -0.5168 -0.2463  0.0180
 8683SOL    HW127490   4.932   0.305  11.757 -0.7576  2.0315 -1.3827
 8683SOL    HW227491   4.874   0.358  11.887 -0.0664  1.4021 -0.8034
 8684SOL     OW27492   1.218   4.283   6.922  0.2663 -0.3254  0.0982
 8684SOL    HW127493   1.264   4.215   6.972  0.7193 -0.1020 -0.0090
 8684SOL    HW227494   1.253   4.275   6.833  1.0249  0.6571  0.2859
 8685SOL     OW27495   2.400   7.634   2.135 -0.2522 -0.2936 -0.6359
 8685SOL    HW127496   2.461   7.618   2.207 -1.8112  0.5824  0.9483
 8685SOL    HW227497   2.361   7.549   2.116 -1.1972 -0.2287  0.8786
 8686SOL     OW27498   3.240   3.835  12.118 -0.0571  0.1751 -0.2270
 8686SOL    HW127499   3.326   3.798  12.141  0.1380  0.4095 -0.5638
 8686SOL    HW227500   3.254   3.873  12.031  0.6749  3.9687  1.3500
 8687SOL     OW27501   3.091   2.911   3.996 -0.0829  0.0661 -0.1672
 8687SOL    HW127502   3.051   2.997   3.983  0.7704  0.4533 -0.3346
 8687SOL    HW227503   3.152   2.924   4.068 -0.8854 -0.7383  0.6833
 8688SOL     OW27504   7.520   2.241   8.389 -0.0631 -0.0205 -0.2541
 8688SOL    HW127505   7.492   2.211   8.303 -0.0642  0.1591 -0.3180
 8688SOL    HW227506   7.495   2.171   8.449 -1.4690  0.5030 -0.1852
 8689SOL     OW27507   7.294   0.844   0.090 -0.8678 -0.3507 -0.0449
 8689SOL    HW127508   7.280   0.899   0.013 -1.3551 -1.0875 -0.4973
 8689SOL    HW227509   7.367   0.788   0.067  1.3649  1.7728  1.3737
 8690SOL     OW27510   3.122   4.708   1.513 -0.0851  0.1156 -0.2647
 8690SOL    HW127511   3.153   4.652   1.442  1.4255  1.3634 -0.6455
 8690SOL    HW227512   3.097   4.647   1.582  0.3339 -1.0583 -1.1046
 8691SOL     OW27513   4.319   0.638   5.169  0.1949 -0.2589  0.4525
 8691SOL    HW127514   4.273   0.720   5.184  1.9031  1.0741 -1.1615
 8691SOL    HW227515   4.375   0.655   5.093  1.1607 -2.6903  0.5265
 8692SOL     OW27516   5.603   0.221   8.504  0.5322 -0.2172 -0.0958
 8692SOL    HW127517   5.625   0.129   8.489 -0.4148 -0.5127  0.2365
 8692SOL    HW227518   5.516   0.230   8.464  0.0076  0.1689  1.1115
 8693SOL     OW27519   1.544   4.308   6.858  0.0562 -0.3136  0.1314
 8693SOL    HW127520   1.555   4.309   6.763 -1.7322  0.8426 -0.1084
 8693SOL    HW227521   1.621   4.356   6.891 -1.0870  2.5507 -1.0322
 8694SOL     OW27522   2.362   4.934   1.491 -0.0728  0.8647 -0.1274
 8694SOL    HW127523   2.426   4.876   1.450 -0.0131 -0.6870  1.9579
 8694SOL    HW227524   2.400   5.021   1.484  0.9399  0.3586 -1.3537
 8695SOL     OW27525   7.548   2.607   0.658  0.2769  0.1542  0.6957
 8695SOL    HW127526   7.573   2.606   0.751 -0.1344 -0.9863  0.8171
 8695SOL    HW227527   7.500   2.688   0.646  2.4372  1.5507  0.8776
 8696SOL     OW27528   0.362   2.554   4.479  0.4337  0.5370 -0.5061
 8696SOL    HW127529   0.414   2.504   4.542  0.6389  1.3484 -0.0000
 8696SOL    HW227530   0.384   2.518   4.394  1.0906  0.2283 -0.2099
 8697SOL     OW27531   4.720   7.539   2.516 -0.0298  0.1055  0.3716
 8697SOL    HW127532   4.768   7.465   2.553 -1.1468 -0.6087  0.4145
 8697SOL    HW227533   4.634   7.535   2.556  0.3678  2.4111  1.6024
 8698SOL     OW27534   0.059   2.532   6.391 -0.7716 -0.0886  0.0691
 8698SOL    HW127535   0.065   2.586   6.470  0.2901  1.0609 -0.7524
 8698SOL    HW227536   0.009   2.455   6.418 -1.1963  0.6900  1.6236
 8699SOL     OW27537   3.658   4.088   4.570 -0.4805 -0.2737  0.1580
 8699SOL    HW127538   3.699   4.141   4.502  1.2612 -1.0887  0.4945
 8699SOL    HW227539   3.584   4.045   4.527 -0.3651  0.4494 -0.7786
 8700SOL     OW27540   2.448   0.942   1.235  0.0920 -0.2197  0.7626
 8700SOL    HW127541   2.491   0.861   1.208 -0.1458 -1.0319  2.6788
 8700SOL    HW227542   2.373   0.951   1.176  0.7378 -0.7975 -0.1639
 8701SOL     OW27543   7.970   7.336   1.638 -0.2945  0.2380 -0.4661
 8701SOL    HW127544   8.024   7.313   1.563  0.8140  0.5602  0.2077
 8701SOL    HW227545   8.021   7.403   1.685 -0.6526 -0.4097  0.9035
 8702SOL     OW27546   7.166   3.176   6.965  0.0895  1.5420 -0.0315
 8702SOL    HW127547   7.126   3.214   6.887  0.4818  1.9500 -0.0391
 8702SOL    HW227548   7.119   3.094   6.979  1.6063  0.2430 -2.1002
 8703SOL     OW27549   0.716   7.423   2.819  0.1775 -0.4111  0.2866
 8703SOL    HW127550   0.768   7.348   2.791 -1.3886 -1.4412  0.0151
 8703SOL    HW227551   0.743   7.440   2.909  3.3910  1.2767 -0.8368
 8704SOL     OW27552   4.693   3.577  11.521 -0.2763 -0.2852 -0.4201
 8704SOL    HW127553   4.778   3.584  11.479 -1.0654  2.7652 -1.8275
 8704SOL    HW227554   4.630   3.577  11.449 -1.5449 -1.9211  0.5977
 8705SOL     OW27555   2.534   6.124   6.776 -0.2003 -0.1629 -0.0546
 8705SOL    HW127556   2.480   6.198   6.806  0.2027 -0.0248  0.3274
 8705SOL    HW227557   2.523   6.057   6.843 -1.8665 -1.1031 -1.1776
 8706SOL     OW27558   3.573   0.009   1.441 -0.7860 -0.2077 -0.6847
 8706SOL    HW127559   3.550   0.073   1.374  1.9520 -0.4950 -2.0497
 8706SOL    HW227560   3.644  -0.042   1.402  2.0462  0.5650  2.9032
 8707SOL     OW27561   5.326   0.703   2.843  0.0406  0.1591  0.5583
 8707SOL    HW127562   5.389   0.740   2.905 -0.4651  1.2623  0.4448
 8707SOL    HW227563   5.357   0.614   2.828  0.4552  0.0331  1.9955
 8708SOL     OW27564   5.845   6.489  10.497  0.4664  0.2817  0.1674
 8708SOL    HW127565   5.848   6.401  10.461  0.6990  0.8523 -1.2596
 8708SOL    HW227566   5.900   6.484  10.575 -0.3799 -1.0762  0.7112
 8709SOL     OW27567   2.082   5.699   8.727 -0.6485 -0.2498 -0.1657
 8709SOL    HW127568   2.122   5.663   8.806  0.6919  2.3363  0.4592
 8709SOL    HW227569   2.129   5.657   8.655 -0.5638 -1.2375  0.4515
 8710SOL     OW27570   1.660   2.093   0.984 -0.0619 -0.2530  0.7185
 8710SOL    HW127571   1.728   2.084   0.917 -0.1093 -0.7780  0.7391
 8710SOL    HW227572   1.583   2.052   0.945 -0.9267  1.9390 -0.0612
 8711SOL     OW27573   4.819   2.302  12.230  0.3111 -0.0099 -0.3610
 8711SOL    HW127574   4.758   2.232  12.208  0.3036 -0.0696 -0.1563
 8711SOL    HW227575   4.905   2.261  12.229  0.4910  0.3639 -1.9182
 8712SOL     OW27576   4.366   3.548  10.084  0.0883 -0.3253 -0.1621
 8712SOL    HW127577   4.456   3.517  10.095  0.6811  1.7621  1.7373
 8712SOL    HW227578   4.370   3.611  10.012  0.3875  0.4476  0.5105
 8713SOL     OW27579   7.495   4.762   0.789 -0.2808 -0.3823 -0.1533
 8713SOL    HW127580   7.470   4.687   0.843 -1.1371  0.2614  0.3618
 8713SOL    HW227581   7.447   4.836   0.826  0.0038  0.2957 -1.0940
 8714SOL     OW27582   4.873   7.926   0.804 -0.0643 -0.2725 -0.3293
 8714SOL    HW127583   4.867   7.835   0.773  1.2877 -1.0745  1.6003
 8714SOL    HW227584   4.885   7.919   0.898  1.7724  1.8195 -0.3112
 8715SOL     OW27585   3.186   6.874   5.188  0.3053 -0.8924 -0.1027
 8715SOL    HW127586   3.192   6.854   5.094  0.3589 -0.3395 -0.2165
 8715SOL    HW227587   3.271   6.848   5.223 -0.1829 -2.4163  0.0529
 8716SOL     OW27588   1.350   2.750   0.963 -0.0281 -0.2841  0.0759
 8716SOL    HW127589   1.330   2.656   0.958 -1.2601 -0.0695  0.6280
 8716SOL    HW227590   1.420   2.757   1.027  0.5487 -0.8801 -0.4675
 8717SOL     OW27591   0.036   0.455  10.480  0.3016  0.4286 -0.2908
 8717SOL    HW127592  -0.051   0.472  10.517  0.4891  2.5756 -0.7056
 8717SOL    HW227593   0.057   0.366  10.509 -1.8711 -0.0195  0.1053
 8718SOL     OW27594   4.658   5.953   5.516  0.0206  0.2043  0.3394
 8718SOL    HW127595   4.683   6.026   5.461  1.9718 -0.4058  0.3387
 8718SOL    HW227596   4.578   5.918   5.476 -0.4305  1.7469 -0.1685
 8719SOL     OW27597   3.842   5.292   1.044 -0.1383 -0.8275  0.5403
 8719SOL    HW127598   3.772   5.230   1.064 -0.3699 -0.5260  0.6647
 8719SOL    HW227599   3.800   5.378   1.048  0.4516 -0.5746  1.6244
 8720SOL     OW27600   7.156   7.706   1.749 -0.3579  0.0110 -0.2051
 8720SOL    HW127601   7.093   7.703   1.822 -0.8963 -0.3793 -0.6753
 8720SOL    HW227602   7.241   7.696   1.791 -0.6548 -0.0864  0.3880
 8721SOL     OW27603   0.323   4.831  11.161  0.0286 -0.1758  0.6488
 8721SOL    HW127604   0.244   4.797  11.203 -1.2148  1.1277 -0.5575
 8721SOL    HW227605   0.293   4.905  11.109  2.1424  0.7246  0.6049
 8722SOL     OW27606   3.393   5.025   9.303 -0.3833  0.0353  0.4337
 8722SOL    HW127607   3.343   4.951   9.338 -3.5917  0.6244 -2.4299
 8722SOL    HW227608   3.428   4.994   9.220 -0.4874  1.2774 -0.0977
 8723SOL     OW27609   1.534   3.219   7.188  0.2663 -0.5908  0.6550
 8723SOL    HW127610   1.457   3.248   7.238 -0.5606  0.6322 -1.2195
 8723SOL    HW227611   1.604   3.279   7.215 -0.1945  0.1190  0.3036
 8724SOL     OW27612   5.952   4.183   7.867  0.1855 -0.1627  0.0728
 8724SOL    HW127613   6.035   4.208   7.908 -1.2572 -0.5801  3.6324
 8724SOL    HW227614   5.885   4.221   7.924 -2.0724 -1.1980 -1.7367
 8725SOL     OW27615   7.813   7.445   9.210  0.0510  0.0550  0.4756
 8725SOL    HW127616   7.904   7.421   9.192  0.1673  0.8346  0.0107
 8725SOL    HW227617   7.780   7.481   9.128 -0.3738  0.7331  0.9307
 8726SOL     OW27618   6.028   0.535   9.313 -0.3622  0.1202  0.1668
 8726SOL    HW127619   5.997   0.624   9.330 -0.2004  0.0575  0.8062
 8726SOL    HW227620   5.987   0.511   9.230  2.1444  1.9966 -1.7666
 8727SOL     OW27621   4.916   6.031   3.011  0.0759  0.4716  0.2679
 8727SOL    HW127622   4.937   5.945   2.975 -0.7061 -0.2165  1.3934
 8727SOL    HW227623   4.916   6.089   2.935 -1.9265 -0.9885 -0.9498
 8728SOL     OW27624   3.549   7.875   0.759  0.3727 -0.3070 -0.0511
 8728SOL    HW127625   3.617   7.941   0.746 -0.1206  0.0419 -1.0152
 8728SOL    HW227626   3.498   7.878   0.678 -0.5117 -0.8838  0.4714
 8729SOL     OW27627   7.533   7.289   9.209 -0.5200 -0.2354  0.2176
 8729SOL    HW127628   7.473   7.260   9.140  0.7296 -2.0907 -0.1526
 8729SOL    HW227629   7.537   7.384   9.197 -0.4053 -0.4675 -2.2527
 8730SOL     OW27630   2.046   1.239   1.035 -0.1510 -0.2052  0.1059
 8730SOL    HW127631   1.955   1.266   1.048  0.1388  0.2124  1.4150
 8730SOL    HW227632   2.097   1.306   1.080  0.8178 -0.4345 -0.6162
 8731SOL     OW27633   2.931   0.145   1.639  0.1452  0.2165  0.0691
 8731SOL    HW127634   2.884   0.072   1.601 -0.4853  0.0800  1.0610
 8731SOL    HW227635   2.916   0.218   1.579 -1.1689  0.1199  0.2492
 8732SOL     OW27636   2.746   1.097   3.459 -0.0105 -0.9913  0.1636
 8732SOL    HW127637   2.782   1.071   3.544  0.4358 -1.5761 -0.1964
 8732SOL    HW227638   2.729   1.190   3.468 -0.6407 -1.1813  1.1384
 8733SOL     OW27639   2.340   5.085  11.899 -0.2119 -0.3178  0.1001
 8733SOL    HW127640   2.399   5.017  11.931 -0.4054 -2.1491 -2.9876
 8733SOL    HW227641   2.258   5.070  11.945  0.5178 -0.3771  1.4346
 8734SOL     OW27642   0.742   6.381   2.571 -0.2772  0.0148  0.1911
 8734SOL    HW127643   0.721   6.292   2.545  0.2410  0.3918 -1.6957
 8734SOL    HW227644   0.708   6.436   2.500  0.5046  1.2059  0.6888
 8735SOL     OW27645   7.606   2.862  10.092 -0.1881  0.6890  0.0417
 8735SOL    HW127646   7.661   2.825  10.161  0.1476 -0.4338 -0.8069
 8735SOL    HW227647   7.576   2.945  10.128  0.4823  0.4154  1.2941
 8736SOL     OW27648   1.268   0.331   2.165  0.0257 -0.2741  0.2356
 8736SOL    HW127649   1.227   0.329   2.251 -0.7719 -0.1741 -0.1353
 8736SOL    HW227650   1.261   0.422   2.137 -0.9042 -0.5398 -0.4794
 8737SOL     OW27651   4.587   6.679  10.367 -0.4407 -0.1784  0.2991
 8737SOL    HW127652   4.496   6.673  10.341  0.0169  0.7903 -1.7356
 8737SOL    HW227653   4.632   6.611  10.317  0.2378  0.7341 -0.3832
 8738SOL     OW27654   0.208   4.170   6.198  0.7851 -0.1809 -0.0347
 8738SOL    HW127655   0.149   4.136   6.130 -1.0215  1.3886  0.6532
 8738SOL    HW227656   0.236   4.093   6.246 -0.6653 -1.0112 -0.4586
 8739SOL     OW27657   0.543   3.343   5.098 -0.5363 -0.3406  0.0069
 8739SOL    HW127658   0.526   3.386   5.182  0.3855 -1.5566  0.8498
 8739SOL    HW227659   0.546   3.250   5.119  1.4662 -0.5607 -1.0401
 8740SOL     OW27660   2.041   3.997   0.340  0.0636  0.3195  0.0457
 8740SOL    HW127661   2.054   3.950   0.422 -0.4563  0.5905  0.2882
 8740SOL    HW227662   1.980   3.942   0.290 -0.1772  0.5021  0.1366
 8741SOL     OW27663   2.876   4.791  12.393  0.0368 -0.8553  0.7546
 8741SOL    HW127664   2.864   4.857  12.462 -1.7144 -1.8700  1.4826
 8741SOL    HW227665   2.821   4.822  12.321  1.5423 -0.0138 -0.0845
 8742SOL     OW27666   7.910   4.303  11.690 -0.5387  0.0421 -0.4257
 8742SOL    HW127667   7.850   4.368  11.728  0.2546 -0.0233  0.9646
 8742SOL    HW227668   7.996   4.344  11.693 -0.1813 -0.6876 -0.4744
 8743SOL     OW27669   7.012   2.283   1.017  0.2694  0.1541 -0.4800
 8743SOL    HW127670   6.980   2.195   1.037  2.6282 -1.0788 -1.6951
 8743SOL    HW227671   7.014   2.327   1.102  0.5701 -1.5327  0.4403
 8744SOL     OW27672   7.123   5.493   0.351  0.2215  0.0531  0.0862
 8744SOL    HW127673   7.112   5.571   0.405  0.3752  0.3619 -0.3245
 8744SOL    HW227674   7.156   5.526   0.268 -1.4160 -0.2500 -0.7236
 8745SOL     OW27675   2.088   3.634  10.157 -0.1154  0.1735  0.1529
 8745SOL    HW127676   2.047   3.593  10.080 -0.2810 -0.8303  0.7547
 8745SOL    HW227677   2.023   3.697  10.188 -0.1867  0.3417 -0.3231
 8746SOL     OW27678   5.218   1.050  11.713 -0.1620 -0.3227  0.3907
 8746SOL    HW127679   5.232   1.052  11.618  0.1593 -1.4447  0.4026
 8746SOL    HW227680   5.130   1.015  11.724 -0.7507  1.1135  0.4890
 8747SOL     OW27681   1.389   0.114   2.995  0.0114  0.4110  0.4765
 8747SOL    HW127682   1.294   0.122   2.990 -0.2587 -2.0884  0.4183
 8747SOL    HW227683   1.408   0.025   2.965  2.4035  0.8905  0.3165
 8748SOL     OW27684   4.500   3.872  10.053 -0.5074 -0.1227 -0.1769
 8748SOL    HW127685   4.520   3.822   9.974  0.3578  0.4701 -0.3530
 8748SOL    HW227686   4.474   3.959  10.021  0.8478  0.4540  0.1866
 8749SOL     OW27687   4.968   7.155   2.120 -0.4563  0.1132  0.4185
 8749SOL    HW127688   5.017   7.234   2.099  0.7233 -0.9090 -0.8867
 8749SOL    HW227689   5.013   7.119   2.197  1.1087 -0.9702 -0.9424
 8750SOL     OW27690   4.023   0.854   5.399  0.1742  0.0097  0.3708
 8750SOL    HW127691   4.018   0.922   5.332 -1.5610 -1.5681 -1.2204
 8750SOL    HW227692   3.975   0.890   5.474 -2.4229 -0.0817 -1.1207
 8751SOL     OW27693   1.664   3.162  11.729 -0.2988 -0.4626 -0.6598
 8751SOL    HW127694   1.684   3.179  11.821  1.2432 -0.2388 -1.0148
 8751SOL    HW227695   1.668   3.067  11.721  0.0024 -0.4584 -0.5805
 8752SOL     OW27696   1.323   1.652   5.721 -0.2899  0.6108  0.2333
 8752SOL    HW127697   1.263   1.724   5.741 -0.4633 -0.4277  4.4415
 8752SOL    HW227698   1.300   1.584   5.784  2.0658 -1.8377 -1.3370
 8753SOL     OW27699   1.610   5.540   5.593 -0.6016 -0.9512  0.0393
 8753SOL    HW127700   1.586   5.633   5.593 -4.5259 -1.7973 -0.8089
 8753SOL    HW227701   1.705   5.540   5.578  0.1848  2.9268  3.1436
 8754SOL     OW27702   3.724   2.332   5.382  0.3027  0.2126  0.0349
 8754SOL    HW127703   3.801   2.388   5.393  0.6870  0.0578 -1.6486
 8754SOL    HW227704   3.651   2.394   5.376 -0.0091  0.3188  3.2791
 8755SOL     OW27705   0.351   7.916   5.845  0.3387 -0.3331  0.5640
 8755SOL    HW127706   0.301   7.918   5.764 -0.3455  0.5825  0.9922
 8755SOL    HW227707   0.396   8.000   5.848  0.4094 -0.3867  1.0969
 8756SOL     OW27708   3.236   6.357   4.089 -0.2615  0.8394  0.0730
 8756SOL    HW127709   3.190   6.374   4.171 -0.9350  0.2030 -0.1669
 8756SOL    HW227710   3.197   6.277   4.055  0.4185  0.7700 -0.5807
 8757SOL     OW27711   3.219   6.952   1.519 -0.0332  0.2613  0.0324
 8757SOL    HW127712   3.242   7.006   1.443 -0.3652  1.3932  0.7007
 8757SOL    HW227713   3.170   7.012   1.576 -2.1935 -1.2901 -0.0929
 8758SOL     OW27714   6.607   0.244   3.998 -0.0255  1.1406 -0.7858
 8758SOL    HW127715   6.654   0.194   3.931 -1.9186  0.3857 -1.6200
 8758SOL    HW227716   6.653   0.226   4.079  1.6075  1.1138 -1.6751
 8759SOL     OW27717   4.896   4.213   0.159  0.0608  0.1031  0.0606
 8759SOL    HW127718   4.848   4.161   0.224  0.3718 -0.7312 -0.3525
 8759SOL    HW227719   4.937   4.147   0.103  0.3882  0.8134 -0.5404
 8760SOL     OW27720   7.934   7.304   2.276  0.1405  0.6177  0.3695
 8760SOL    HW127721   7.853   7.316   2.327 -0.5369 -1.4204 -0.1373
 8760SOL    HW227722   7.916   7.347   2.193 -1.7911 -2.4775 -0.9929
 8761SOL     OW27723   1.442   3.051  11.116  0.3399  0.0867 -0.1352
 8761SOL    HW127724   1.447   3.131  11.065 -0.7190  1.0345  1.1800
 8761SOL    HW227725   1.518   3.000  11.088  2.2253  2.4200  0.4337
 8762SOL     OW27726   6.973   7.085   0.688 -0.3707 -0.1224  0.2723
 8762SOL    HW127727   7.040   7.102   0.754  1.3502  1.5314 -1.7629
 8762SOL    HW227728   6.898   7.138   0.717  0.0741 -0.0226  1.2861
 8763SOL     OW27729   3.623   5.534   2.436 -0.5276 -0.2856 -0.2363
 8763SOL    HW127730   3.558   5.473   2.471  0.3124 -0.4630  1.0532
 8763SOL    HW227731   3.656   5.490   2.357  0.4211 -1.7792  0.9242
 8764SOL     OW27732   0.028   2.947  10.833 -0.4813  0.1876 -0.6882
 8764SOL    HW127733   0.087   2.879  10.866  1.5007  1.1894 -1.9748
 8764SOL    HW227734   0.008   3.000  10.910  1.0957  0.3823 -0.3745
 8765SOL     OW27735   7.099   2.386   4.009  0.0054 -0.1032  0.0176
 8765SOL    HW127736   7.194   2.393   4.014  0.1981 -0.8967 -1.7935
 8765SOL    HW227737   7.081   2.292   4.009 -0.4904 -0.1013 -2.7229
 8766SOL     OW27738   2.632   0.587  10.351 -0.3224  0.8606  0.6018
 8766SOL    HW127739   2.647   0.588  10.257 -0.2677  2.7513  0.5896
 8766SOL    HW227740   2.577   0.510  10.366  1.0899 -0.4631 -0.6994
 8767SOL     OW27741   6.908   7.985   5.713 -0.6002  0.3110  0.0203
 8767SOL    HW127742   6.950   7.900   5.718 -1.1256 -0.0564 -1.3008
 8767SOL    HW227743   6.976   8.044   5.680 -0.4940  0.1948  0.0315
 8768SOL     OW27744   2.503   5.221   8.249  0.3104  0.9840  0.2971
 8768SOL    HW127745   2.514   5.127   8.264  0.3340  1.0494  0.6962
 8768SOL    HW227746   2.569   5.242   8.182  0.4676  0.7603  0.3795
 8769SOL     OW27747   3.450   1.639  10.196  0.1067 -0.0012  0.5245
 8769SOL    HW127748   3.361   1.675  10.186 -0.0895 -0.6864 -0.3718
 8769SOL    HW227749   3.478   1.668  10.283  0.1999  2.7990 -0.3335
 8770SOL     OW27750   4.419   6.287   1.395  0.3480  0.1001 -0.0353
 8770SOL    HW127751   4.402   6.359   1.335 -0.3430  1.2869  1.5199
 8770SOL    HW227752   4.454   6.329   1.474 -0.9935 -1.1243  1.2748
 8771SOL     OW27753   4.009   7.390   9.748 -0.0926  0.6881  0.1099
 8771SOL    HW127754   4.082   7.352   9.699 -0.2511  0.3146  0.1580
 8771SOL    HW227755   3.942   7.322   9.748 -0.8974  1.4460 -0.9239
 8772SOL     OW27756   7.557   2.137   3.752  0.1579 -0.0952  0.0645
 8772SOL    HW127757   7.487   2.105   3.809 -0.0263  0.0818 -0.0607
 8772SOL    HW227758   7.519   2.137   3.664 -0.0344  0.9921  0.1294
 8773SOL     OW27759   0.936   2.337  12.255  0.3002 -0.0060 -0.5287
 8773SOL    HW127760   0.929   2.254  12.209 -0.3440  0.7736 -1.8875
 8773SOL    HW227761   0.930   2.403  12.187  1.6386  1.1670  0.4162
 8774SOL     OW27762   5.338   1.880   3.144 -0.0374  0.7258  0.2684
 8774SOL    HW127763   5.318   1.801   3.095  1.8438  0.8943 -0.8609
 8774SOL    HW227764   5.264   1.938   3.127 -1.0633 -0.4809  0.4812
 8775SOL     OW27765   1.739   3.408  11.918  0.1591  0.1044 -0.0062
 8775SOL    HW127766   1.815   3.351  11.928 -0.4376 -0.6340  0.4268
 8775SOL    HW227767   1.768   3.492  11.953 -0.2181 -1.0163  3.4142
 8776SOL     OW27768   1.998   2.858   0.688 -0.2028 -0.3384  0.0061
 8776SOL    HW127769   1.952   2.859   0.772 -0.4983 -0.1301 -0.1541
 8776SOL    HW227770   1.934   2.823   0.626  0.2659 -1.2133  0.0015
 8777SOL     OW27771   1.521   0.026  12.169  0.4042 -0.2460 -0.0260
 8777SOL    HW127772   1.437   0.050  12.131  1.0490  2.0236 -0.1090
 8777SOL    HW227773   1.526  -0.069  12.156 -2.0252 -0.4236 -0.1976
 8778SOL     OW27774   3.208   1.364   7.586  0.5209 -0.4333 -0.3368
 8778SOL    HW127775   3.202   1.303   7.513  0.5817 -0.5836 -0.2179
 8778SOL    HW227776   3.147   1.329   7.652  1.3591 -0.9680  0.1636
 8779SOL     OW27777   2.383   5.105   7.000  0.6008 -0.4772  0.2010
 8779SOL    HW127778   2.314   5.113   7.067  0.0705  1.7776 -0.5241
 8779SOL    HW227779   2.352   5.036   6.942 -1.0849  0.4510 -0.0737
 8780SOL     OW27780   5.121   0.167   2.855  0.3979 -0.1015 -0.4315
 8780SOL    HW127781   5.165   0.248   2.882  0.2467 -0.3494  0.6328
 8780SOL    HW227782   5.157   0.100   2.914 -0.2889 -0.5921 -0.5560
 8781SOL     OW27783   2.869   6.383  10.565 -0.1723  0.3233  0.6243
 8781SOL    HW127784   2.794   6.355  10.513  0.4217 -2.4598  1.0835
 8781SOL    HW227785   2.880   6.312  10.629  3.3582  0.1692  0.0076
 8782SOL     OW27786   5.616   1.766   5.702  0.1034 -0.0790  0.3025
 8782SOL    HW127787   5.552   1.835   5.684  0.1426 -0.1557 -0.1300
 8782SOL    HW227788   5.700   1.812   5.707  0.0290  0.0111  0.7950
 8783SOL     OW27789   3.255   5.622   7.311 -0.4382  0.1378  0.2695
 8783SOL    HW127790   3.206   5.622   7.393 -1.9244 -0.9501 -0.5776
 8783SOL    HW227791   3.287   5.712   7.302  0.5981  0.0698  2.4932
 8784SOL     OW27792   5.804   0.221   0.664  0.0605 -0.2469 -0.0763
 8784SOL    HW127793   5.737   0.167   0.622 -1.8691  1.2335  0.9322
 8784SOL    HW227794   5.885   0.172   0.653 -1.3781 -2.7126 -0.2853
 8785SOL     OW27795   5.434   0.106  10.528  0.0554 -0.0023  0.5390
 8785SOL    HW127796   5.517   0.101  10.575  0.0749  0.4430  0.5618
 8785SOL    HW227797   5.405   0.197  10.541 -0.7188 -0.3135  1.0153
 8786SOL     OW27798   4.191   7.936  11.892 -0.1775 -0.2426 -0.3543
 8786SOL    HW127799   4.239   7.858  11.920 -1.4027 -0.4520  1.3749
 8786SOL    HW227800   4.115   7.939  11.950 -0.1069  2.3159 -0.2667
 8787SOL     OW27801   2.896   4.535   5.254  0.3731 -0.5713 -0.5581
 8787SOL    HW127802   2.931   4.496   5.173  0.1897 -1.4546 -0.2294
 8787SOL    HW227803   2.950   4.612   5.270  1.9997 -1.7352 -0.2128
 8788SOL     OW27804   1.387   6.624   6.068 -0.4135  0.9826  0.2116
 8788SOL    HW127805   1.480   6.608   6.054 -0.3257  1.3128  0.4006
 8788SOL    HW227806   1.367   6.701   6.014 -0.4388  1.2744  0.6304
 8789SOL     OW27807   2.374   7.373   4.545 -0.0466  0.0821  0.1569
 8789SOL    HW127808   2.394   7.386   4.453  0.7786  0.7327  0.4190
 8789SOL    HW227809   2.418   7.291   4.567 -0.0798  0.0278  0.0222
 8790SOL     OW27810   2.413   4.103   5.807  0.0026 -0.6499 -0.6783
 8790SOL    HW127811   2.471   4.073   5.737 -0.1165  1.3862 -1.7184
 8790SOL    HW227812   2.472   4.133   5.876  0.1376 -0.8229 -0.7164
 8791SOL     OW27813   0.235   1.930  12.479  0.6246 -0.1420 -0.2382
 8791SOL    HW127814   0.223   2.024  12.466  0.7407 -0.1994 -0.7791
 8791SOL    HW227815   0.304   1.924  12.545 -0.3655  0.1592  0.8378
 8792SOL     OW27816   5.932   2.303   6.128  0.1794  0.1512 -0.2767
 8792SOL    HW127817   6.023   2.281   6.111  0.4226  0.3143  0.7534
 8792SOL    HW227818   5.882   2.237   6.080  0.8551 -0.6617  0.1113
 8793SOL     OW27819   6.079   6.716  11.015  0.9142  0.1231 -0.9040
 8793SOL    HW127820   6.106   6.644  11.072  1.8850  1.1290 -0.0395
 8793SOL    HW227821   6.079   6.678  10.927 -1.8147 -1.7978 -0.1958
 8794SOL     OW27822   5.156   6.527   9.874 -0.0838  0.0762  0.3379
 8794SOL    HW127823   5.137   6.441   9.838 -0.4832  0.7978 -1.2558
 8794SOL    HW227824   5.099   6.587   9.825  3.4465  1.8740 -2.0453
 8795SOL     OW27825   0.965   1.635   0.507 -0.9783  0.4986 -0.4930
 8795SOL    HW127826   0.892   1.687   0.474 -1.2437  0.5886  0.2137
 8795SOL    HW227827   1.023   1.624   0.432  0.4640  4.1303 -0.0890
 8796SOL     OW27828   7.087   5.281   8.176 -0.3218  0.8395 -0.6508
 8796SOL    HW127829   7.034   5.361   8.170 -0.1780  0.9011 -1.1141
 8796SOL    HW227830   7.022   5.210   8.177 -0.4314  0.9387 -0.6710
 8797SOL     OW27831   1.035   3.016   6.355 -0.0039 -0.7009 -0.8384
 8797SOL    HW127832   1.093   3.036   6.281 -0.5213  1.5620 -0.6878
 8797SOL    HW227833   0.954   2.986   6.313 -0.4261  0.9251 -1.2633
 8798SOL     OW27834   0.907   5.340   2.651 -0.1968 -0.3304 -0.5002
 8798SOL    HW127835   0.854   5.382   2.584 -1.3657  0.2178  0.7144
 8798SOL    HW227836   0.883   5.248   2.647  0.3061 -0.4314 -1.3263
 8799SOL     OW27837   6.662   5.682  10.769  0.3440 -0.4209  0.0029
 8799SOL    HW127838   6.570   5.700  10.792 -0.1888 -0.1427 -2.1286
 8799SOL    HW227839   6.686   5.608  10.824 -0.8699  0.0509  1.2373
 8800SOL     OW27840   5.330   1.065   9.202  0.2254  0.3428 -0.6100
 8800SOL    HW127841   5.314   1.138   9.141  1.8130  1.1442 -0.1187
 8800SOL    HW227842   5.425   1.061   9.210  0.1779 -1.7852 -0.5721
 8801SOL     OW27843   2.102   3.752   3.662  0.6364 -0.4206  0.3803
 8801SOL    HW127844   2.094   3.706   3.745  1.0693  0.2265  0.7889
 8801SOL    HW227845   2.118   3.843   3.687  2.2259 -0.4573 -0.3978
 8802SOL     OW27846   6.690   5.458   5.962 -0.0972 -0.0039 -0.3084
 8802SOL    HW127847   6.702   5.477   5.869 -2.0606  0.6248 -0.4889
 8802SOL    HW227848   6.598   5.480   5.979  0.5101  0.9973  2.0578
 8803SOL     OW27849   3.691   1.865  11.566 -0.2247  0.0783  0.1765
 8803SOL    HW127850   3.669   1.811  11.490  0.1300 -0.3164  0.3488
 8803SOL    HW227851   3.615   1.921  11.579  0.0955  0.8660 -1.0986
 8804SOL     OW27852   1.170   1.735  11.781  0.2545  0.1370 -0.0502
 8804SOL    HW127853   1.200   1.792  11.711 -1.8572  1.3135 -0.0828
 8804SOL    HW227854   1.142   1.655  11.736  1.1300 -0.0649 -0.2549
 8805SOL     OW27855   0.869   2.178   4.585  0.8969 -0.4432  0.5494
 8805SOL    HW127856   0.896   2.163   4.494  0.3073  1.3687  0.0222
 8805SOL    HW227857   0.776   2.155   4.587  0.4536  1.2027  0.1993
 8806SOL     OW27858   0.050   0.888   5.842 -0.0115  0.2092  0.1367
 8806SOL    HW127859   0.052   0.957   5.776  1.0193 -1.1336 -1.2984
 8806SOL    HW227860   0.107   0.920   5.912 -1.4466  1.8277  0.6433
 8807SOL     OW27861   3.601   1.275   0.069  0.8642  0.5552 -0.2657
 8807SOL    HW127862   3.614   1.304  -0.022  3.4079  3.1161  0.7502
 8807SOL    HW227863   3.678   1.222   0.089  1.0612  1.2138  0.7975
 8808SOL     OW27864   2.491   2.743  10.838  0.2133 -0.2165  0.1762
 8808SOL    HW127865   2.398   2.765  10.849  0.0940 -0.2448 -0.6980
 8808SOL    HW227866   2.505   2.745  10.743  1.5943  1.7048  0.3830
 8809SOL     OW27867   6.993   3.278  12.072 -0.0521  0.0132  0.2886
 8809SOL    HW127868   6.925   3.290  12.139 -0.6016 -0.9911 -0.0829
 8809SOL    HW227869   7.073   3.265  12.122 -0.4001 -0.3740  0.7509
 8810SOL     OW27870   1.528   0.495  12.096  0.2701 -0.3002  0.3071
 8810SOL    HW127871   1.603   0.485  12.155  0.0775 -1.8177  0.3358
 8810SOL    HW227872   1.552   0.444  12.018 -1.2985 -2.1357  0.9314
 8811SOL     OW27873   6.534   3.876   5.531 -0.4022  0.2140  0.3128
 8811SOL    HW127874   6.601   3.856   5.465 -0.2590  0.4075  0.4004
 8811SOL    HW227875   6.468   3.808   5.518  0.0703 -0.3022  0.5832
 8812SOL     OW27876   7.724   3.751   0.488  0.6251 -0.2022  0.0461
 8812SOL    HW127877   7.762   3.705   0.413  0.0435 -1.1271  0.2909
 8812SOL    HW227878   7.637   3.711   0.498  0.6130  0.0628  1.0740
 8813SOL     OW27879   5.353   5.981  11.181  0.5147  0.0319  0.3116
 8813SOL    HW127880   5.351   6.076  11.169 -1.4402 -0.0627 -0.4519
 8813SOL    HW227881   5.297   5.965  11.256 -1.5123 -0.6581 -1.2389
 8814SOL     OW27882   3.534   1.777   6.287  0.5656 -0.5622 -0.4447
 8814SOL    HW127883   3.501   1.813   6.369  1.7232 -1.7317  0.5857
 8814SOL    HW227884   3.467   1.715   6.259 -0.5990  1.0123 -1.2932
 8815SOL     OW27885   7.600   3.912  10.963  0.1629 -0.4103 -0.3466
 8815SOL    HW127886   7.687   3.915  11.003  0.4284  1.4111 -0.9511
 8815SOL    HW227887   7.606   3.973  10.889 -1.4726 -0.6613 -0.7162
 8816SOL     OW27888   0.030   5.319   0.555 -0.0339  0.0257  0.0087
 8816SOL    HW127889   0.081   5.238   0.545 -0.9678 -0.9108  2.1418
 8816SOL    HW227890  -0.035   5.315   0.485 -0.8718 -1.7753  0.8055
 8817SOL     OW27891   6.363   2.676   9.540 -0.1738 -0.6371  0.0581
 8817SOL    HW127892   6.289   2.617   9.557 -1.2711  0.2430 -1.3456
 8817SOL    HW227893   6.351   2.702   9.448 -0.0771  2.1780  0.7524
 8818SOL     OW27894   6.220   7.315  12.014  0.2210  0.9473  0.3493
 8818SOL    HW127895   6.164   7.241  12.036 -0.0534  1.1200  0.2348
 8818SOL    HW227896   6.288   7.277  11.957  0.5050  0.6465  0.8801
 8819SOL     OW27897   0.526   2.402   4.619 -0.8542 -0.3453 -0.0736
 8819SOL    HW127898   0.530   2.306   4.617 -2.2047 -0.4520  0.8109
 8819SOL    HW227899   0.617   2.430   4.605 -0.3480 -1.7613  0.1697
 8820SOL     OW27900   6.687   0.637  10.788 -0.6927 -0.0345 -0.1346
 8820SOL    HW127901   6.689   0.543  10.769 -0.3176  0.1517 -1.0127
 8820SOL    HW227902   6.709   0.680  10.706 -1.6109  0.8558  0.0563
 8821SOL     OW27903   1.939   7.168   3.829  0.3185 -0.2026 -0.1019
 8821SOL    HW127904   1.855   7.210   3.849  0.2322 -0.1545 -0.5720
 8821SOL    HW227905   1.926   7.127   3.744  0.4216 -1.1341  0.3107
 8822SOL     OW27906   7.440   3.888   8.279 -0.1535 -0.3975 -0.5432
 8822SOL    HW127907   7.501   3.827   8.237  0.5105 -0.1331  0.0179
 8822SOL    HW227908   7.438   3.861   8.371 -1.7739 -1.1227 -0.7563
 8823SOL     OW27909   2.449   4.679   5.729 -0.5539 -0.2788  0.5353
 8823SOL    HW127910   2.460   4.593   5.689 -1.5646 -2.2204  4.0504
 8823SOL    HW227911   2.539   4.709   5.745 -0.1885 -1.4208  0.7080
 8824SOL     OW27912   6.252   7.886   7.721  0.1291 -0.1898  0.1017
 8824SOL    HW127913   6.212   7.953   7.776  1.3481 -0.6455  1.6259
 8824SOL    HW227914   6.278   7.932   7.641 -0.0132  0.9160  0.6798
 8825SOL     OW27915   5.118   5.781  10.168  0.1617  0.0977  0.2626
 8825SOL    HW127916   5.133   5.732  10.249  1.7747  0.6798  0.3569
 8825SOL    HW227917   5.201   5.775  10.121  0.1179  1.9779 -0.1145
 8826SOL     OW27918   1.944   0.812   3.995  0.1795  0.0933 -0.5170
 8826SOL    HW127919   1.858   0.847   3.973  0.4754  0.6080 -0.8983
 8826SOL    HW227920   1.955   0.737   3.937 -0.3722 -0.5248  0.1569
 8827SOL     OW27921   6.077   3.897   4.322 -0.1046 -0.0666 -0.3548
 8827SOL    HW127922   6.139   3.921   4.253 -1.3037  1.8082 -0.8458
 8827SOL    HW227923   6.003   3.859   4.275  1.0806 -3.5985  0.3042
 8828SOL     OW27924   3.718   5.583   6.984  0.5531 -0.3565  0.5917
 8828SOL    HW127925   3.699   5.504   7.035  1.3349 -1.8201 -1.2531
 8828SOL    HW227926   3.780   5.632   7.038  1.4941 -1.9375  1.0282
 8829SOL     OW27927   3.683   6.471  12.027 -0.1295  0.4100 -0.0330
 8829SOL    HW127928   3.617   6.421  12.075  0.4232  2.2734  2.9771
 8829SOL    HW227929   3.634   6.540  11.984 -0.4445 -0.1068 -0.5176
 8830SOL     OW27930   2.968   2.406   4.989 -0.1073  0.0089  0.6198
 8830SOL    HW127931   3.003   2.494   4.972  1.8655 -1.0878 -1.6654
 8830SOL    HW227932   2.889   2.401   4.936 -0.4751  0.5503  1.1146
 8831SOL     OW27933   0.460   6.456   5.501  0.0921  0.3395 -0.3085
 8831SOL    HW127934   0.419   6.397   5.438  1.4842  0.1390 -1.0627
 8831SOL    HW227935   0.400   6.531   5.506 -0.2238  0.1990 -1.6059
 8832SOL     OW27936   1.487   5.720   1.297 -0.0111 -0.3585 -0.2270
 8832SOL    HW127937   1.510   5.746   1.386  0.1449 -0.5332 -0.2155
 8832SOL    HW227938   1.406   5.669   1.307 -0.8954  0.9649 -0.3541
 8833SOL     OW27939   7.151   6.098   9.991  0.2541  0.4682 -0.1340
 8833SOL    HW127940   7.185   6.139   9.911  0.4481 -0.3138 -0.4614
 8833SOL    HW227941   7.057   6.090   9.975  0.3264  0.0930 -0.3909
 8834SOL     OW27942   5.699   4.859   2.299  0.0567 -0.2936  0.4724
 8834SOL    HW127943   5.726   4.888   2.212  0.7290 -0.0142  0.7637
 8834SOL    HW227944   5.610   4.827   2.287  0.8987 -2.3597 -0.7687
 8835SOL     OW27945   0.848   3.963   1.366 -0.1545  0.0799  0.7410
 8835SOL    HW127946   0.929   3.919   1.340  0.3058 -0.1116  2.3916
 8835SOL    HW227947   0.796   3.896   1.408  0.1066  0.8410  2.3432
 8836SOL     OW27948   1.320   1.433   5.879  0.3634 -0.2659  0.0594
 8836SOL    HW127949   1.240   1.385   5.900  2.0060 -2.6269  1.3567
 8836SOL    HW227950   1.380   1.413   5.951  1.8843  2.1673 -0.3915
 8837SOL     OW27951   7.777   7.381   9.473  0.6536  0.0988 -0.0536
 8837SOL    HW127952   7.784   7.402   9.380  0.4561  0.1869 -0.0495
 8837SOL    HW227953   7.685   7.356   9.485  0.2140  1.7962  0.4669
 8838SOL     OW27954   2.708   3.411  10.466 -0.3584 -0.3082 -0.2277
 8838SOL    HW127955   2.685   3.359  10.543 -4.5882  1.9682  0.3697
 8838SOL    HW227956   2.682   3.357  10.392 -0.0613 -0.9660  0.1461
 8839SOL     OW27957   6.144   0.339   6.967  0.8128 -0.6896 -0.3198
 8839SOL    HW127958   6.189   0.351   7.050  2.0802 -1.8624 -0.8070
 8839SOL    HW227959   6.067   0.286   6.988  0.2119  0.4023  0.3396
 8840SOL     OW27960   3.138   2.001   0.934  0.2583  0.0671 -0.4012
 8840SOL    HW127961   3.115   1.958   1.016  1.7249 -2.1994 -1.0781
 8840SOL    HW227962   3.174   2.086   0.961  0.9424 -0.7213  1.3260
 8841SOL     OW27963   3.184   6.971   0.796 -0.0831 -0.2341 -0.0540
 8841SOL    HW127964   3.191   7.009   0.709 -2.5970  0.5011 -0.0154
 8841SOL    HW227965   3.146   7.041   0.850  0.0291 -1.1489  1.2798
 8842SOL     OW27966   2.892   1.772   4.469 -0.0982  0.2012  0.1662
 8842SOL    HW127967   2.897   1.682   4.438 -1.3997  0.6954 -1.6779
 8842SOL    HW227968   2.844   1.767   4.552 -1.5128 -0.6914 -0.6656
 8843SOL     OW27969   4.634   6.687   4.008  0.0577  0.3138 -0.0583
 8843SOL    HW127970   4.611   6.594   4.011  1.4438 -0.0241  0.6749
 8843SOL    HW227971   4.618   6.712   3.917 -0.3260 -0.6411 -0.2681
 8844SOL     OW27972   2.728   6.722   2.046 -0.1549  0.1376  0.2824
 8844SOL    HW127973   2.721   6.767   1.962  0.9148  1.5380  0.9208
 8844SOL    HW227974   2.772   6.784   2.104  0.4208 -1.3400  1.4921
 8845SOL     OW27975   7.625   0.962   9.325 -0.0880  0.4573  0.1470
 8845SOL    HW127976   7.558   0.940   9.389 -1.1674  0.9633 -0.7867
 8845SOL    HW227977   7.622   1.058   9.318 -1.9756  0.3232 -2.6657
 8846SOL     OW27978   4.848   6.267   9.356 -0.0710 -0.8855 -0.0681
 8846SOL    HW127979   4.755   6.284   9.343 -0.0726 -0.9218 -0.1056
 8846SOL    HW227980   4.884   6.351   9.383 -0.0126 -0.7269 -0.6224
 8847SOL     OW27981   2.272   4.264   7.530  0.0651  0.2887  0.1160
 8847SOL    HW127982   2.237   4.348   7.500  0.7013  0.9431  1.1394
 8847SOL    HW227983   2.292   4.216   7.450 -2.3859  0.1934 -0.5294
 8848SOL     OW27984   7.294   4.106   0.679 -0.6259  0.3018 -0.2142
 8848SOL    HW127985   7.281   4.016   0.708  0.7182  0.3483  0.6416
 8848SOL    HW227986   7.248   4.160   0.743 -1.0494  0.2426 -0.4688
 8849SOL     OW27987   5.681   4.854   7.643  0.4475  0.1376 -0.1531
 8849SOL    HW127988   5.731   4.916   7.591  1.3546 -0.8565 -0.5073
 8849SOL    HW227989   5.648   4.790   7.580  1.1325 -0.7962  0.3998
 8850SOL     OW27990   5.931   0.148   8.795  0.2295  0.3148 -0.5305
 8850SOL    HW127991   5.942   0.154   8.890 -0.5098  0.5858 -0.4561
 8850SOL    HW227992   5.853   0.200   8.777 -1.6590 -2.4658 -0.8972
 8851SOL     OW27993   1.407   6.295   8.156 -0.6759 -0.5544 -0.0083
 8851SOL    HW127994   1.354   6.310   8.077 -1.3694  1.4972  0.7746
 8851SOL    HW227995   1.396   6.202   8.175  1.3624 -1.7288 -3.5806
 8852SOL     OW27996   2.127   6.814   6.311  0.0280 -0.7305 -0.1126
 8852SOL    HW127997   2.174   6.742   6.353  0.0908 -1.0369 -0.7020
 8852SOL    HW227998   2.056   6.772   6.263 -1.3058 -0.2219  1.3145
 8853SOL     OW27999   4.509   4.172  11.716  0.7432 -0.3314  0.3078
 8853SOL    HW128000   4.586   4.228  11.710  1.1946 -0.7730  1.7033
 8853SOL    HW228001   4.517   4.129  11.801 -2.1262  1.2366  1.4946
 8854SOL     OW28002   1.233   2.582   3.174 -0.2665 -0.3175 -0.0914
 8854SOL    HW128003   1.148   2.592   3.216 -0.5227 -0.9327 -0.4455
 8854SOL    HW228004   1.288   2.649   3.215 -1.0418  0.4056 -0.2014
 8855SOL     OW28005   7.531   7.702   0.264 -0.0332 -0.3591 -0.0507
 8855SOL    HW128006   7.484   7.784   0.245  0.6036  0.0129 -0.0357
 8855SOL    HW228007   7.588   7.724   0.337 -0.3084 -0.9886  0.3530
 8856SOL     OW28008   1.641   7.804   0.732  0.3355  0.0087 -0.1872
 8856SOL    HW128009   1.562   7.831   0.778  1.0764 -0.1823  1.2468
 8856SOL    HW228010   1.612   7.735   0.673 -0.3496 -1.1376  1.4185
 8857SOL     OW28011   5.747   1.034   8.629 -0.0526 -0.2247  0.0223
 8857SOL    HW128012   5.801   1.052   8.552 -3.4478 -0.6305 -2.6877
 8857SOL    HW228013   5.690   1.111   8.637  0.0942 -0.2782  2.0679
 8858SOL     OW28014   2.216   5.498   2.103  0.5276  0.0811 -0.4020
 8858SOL    HW128015   2.184   5.424   2.051 -0.3784  0.2400 -0.0887
 8858SOL    HW228016   2.149   5.512   2.170  2.2576 -0.9143  1.6476
 8859SOL     OW28017   6.427   3.096   0.233 -0.1112  0.2442 -0.5611
 8859SOL    HW128018   6.433   3.121   0.325  1.4556  0.1814 -0.6163
 8859SOL    HW228019   6.517   3.099   0.201 -0.5696 -0.1540 -1.9877
 8860SOL     OW28020   6.119   0.683   8.772  0.1371  0.0807  0.1023
 8860SOL    HW128021   6.123   0.606   8.715  0.9282 -0.9911  1.5665
 8860SOL    HW228022   6.069   0.747   8.721  0.5542 -0.9299 -1.6746
 8861SOL     OW28023   4.414   4.845   8.703 -0.1104 -0.2118 -0.0892
 8861SOL    HW128024   4.327   4.879   8.723  0.0177 -0.2098  0.4934
 8861SOL    HW228025   4.427   4.865   8.611 -2.3907 -3.7755 -1.4303
 8862SOL     OW28026   5.944   0.057   2.627 -0.7502 -0.3156 -0.0333
 8862SOL    HW128027   5.968   0.083   2.716  1.2702 -1.8598 -0.0748
 8862SOL    HW228028   5.984   0.123   2.571  0.8875 -1.1667  0.0730
 8863SOL     OW28029   1.393   5.709   9.924 -0.6839  0.2141 -0.3639
 8863SOL    HW128030   1.342   5.701  10.004  0.6872 -0.4214  0.4789
 8863SOL    HW228031   1.347   5.654   9.861 -0.5565 -1.0928  0.6336
 8864SOL     OW28032   3.300   6.501   1.778 -0.4643 -0.2726 -0.3152
 8864SOL    HW128033   3.297   6.562   1.705  0.0408  0.8888  0.5958
 8864SOL    HW228034   3.215   6.458   1.777 -0.0609 -1.0812 -2.2279
 8865SOL     OW28035   4.230   7.195  12.182  0.4593  0.2470  0.0910
 8865SOL    HW128036   4.160   7.191  12.117  1.4631 -1.3778 -0.9487
 8865SOL    HW228037   4.190   7.239  12.257 -2.0543 -1.6374 -0.0045
 8866SOL     OW28038   7.470   7.556   9.261 -0.1038 -0.1780  0.3377
 8866SOL    HW128039   7.484   7.601   9.345  0.5641 -1.1879  0.7977
 8866SOL    HW228040   7.507   7.615   9.196 -0.6717  0.6421  0.7423
 8867SOL     OW28041   4.359   6.522   5.606 -0.2595 -0.2031 -0.2002
 8867SOL    HW128042   4.440   6.571   5.620 -0.7444  0.3330  0.8289
 8867SOL    HW228043   4.337   6.486   5.692 -3.0180  2.6681  0.5106
 8868SOL     OW28044   3.069   0.504   1.225 -0.4295 -0.0030 -0.1156
 8868SOL    HW128045   3.076   0.592   1.263 -0.6893  0.3164 -0.7950
 8868SOL    HW228046   3.160   0.475   1.214 -0.3016  0.7044 -1.0734
 8869SOL     OW28047   0.143   0.640  12.306 -0.1763 -0.8618 -0.2053
 8869SOL    HW128048   0.194   0.663  12.228 -1.7876 -2.6041 -1.8629
 8869SOL    HW228049   0.112   0.725  12.339 -0.9091 -0.1483 -2.5074
 8870SOL     OW28050   4.533   0.384   0.533 -0.4922  0.2774  0.2376
 8870SOL    HW128051   4.564   0.354   0.619 -1.3809 -0.5221  0.2905
 8870SOL    HW228052   4.511   0.304   0.486 -0.4075  0.7349 -0.5948
 8871SOL     OW28053   4.480   6.107   2.017  0.4268  0.1266  0.2625
 8871SOL    HW128054   4.532   6.126   1.939  3.1574  1.2854  2.2393
 8871SOL    HW228055   4.453   6.016   2.005 -1.8188  1.0272 -3.3197
 8872SOL     OW28056   7.335   3.277   4.299  0.4185 -0.0446 -0.4004
 8872SOL    HW128057   7.370   3.325   4.373 -0.4051  0.4452 -0.3192
 8872SOL    HW228058   7.348   3.185   4.321 -1.1713  0.0397  1.0495
 8873SOL     OW28059   2.000   6.946  11.882  0.2105 -0.1087 -0.3789
 8873SOL    HW128060   1.907   6.967  11.886  0.3052  0.1326  1.2442
 8873SOL    HW228061   2.013   6.880  11.949  1.3406  0.4463 -0.0196
 8874SOL     OW28062   0.485   0.480   3.148 -0.3853  0.2966  0.5035
 8874SOL    HW128063   0.482   0.406   3.088 -1.3508 -0.7238  1.7574
 8874SOL    HW228064   0.577   0.507   3.148 -0.4678  0.8015 -1.9225
 8875SOL     OW28065   4.717   6.414   3.003 -0.1612 -0.8968 -0.2738
 8875SOL    HW128066   4.688   6.325   2.982 -0.3031 -0.8144 -0.4329
 8875SOL    HW228067   4.654   6.471   2.958  1.5760 -0.6754 -2.6123
 8876SOL     OW28068   7.827   0.554   5.899 -0.0176  0.3703  0.3403
 8876SOL    HW128069   7.906   0.577   5.949 -0.3877  0.7954  0.7460
 8876SOL    HW228070   7.779   0.494   5.957  0.2163 -0.2332 -0.0881
 8877SOL     OW28071   3.975   1.141  10.610  0.1121 -0.3295  0.2409
 8877SOL    HW128072   3.902   1.194  10.642  0.4029 -0.2897  0.8541
 8877SOL    HW228073   3.933   1.073  10.558 -0.2880  0.3046 -0.2898
 8878SOL     OW28074   7.128   7.205   6.854 -0.0596 -0.2579 -0.4420
 8878SOL    HW128075   7.100   7.295   6.870 -0.7771 -0.3313 -1.2111
 8878SOL    HW228076   7.149   7.203   6.761 -1.3274 -1.1942 -0.7428
 8879SOL     OW28077   1.139   0.224   3.360  0.0384 -0.0559 -0.2928
 8879SOL    HW128078   1.100   0.309   3.342 -1.5187 -0.9205 -1.1848
 8879SOL    HW228079   1.232   0.236   3.342 -0.4860  0.8646 -2.7696
 8880SOL     OW28080   6.684   1.312   0.155  0.1911  0.5195 -0.3061
 8880SOL    HW128081   6.654   1.222   0.142  1.6959 -0.1052  0.2754
 8880SOL    HW228082   6.686   1.323   0.250 -0.2061  1.2596 -0.3765
 8881SOL     OW28083   4.590   3.069   2.303 -0.2833 -0.2426 -0.7774
 8881SOL    HW128084   4.631   2.983   2.302  1.5510  0.5880 -0.5461
 8881SOL    HW228085   4.659   3.129   2.276 -0.6926  1.4855  1.6720
 8882SOL     OW28086   3.927   5.503  11.532  0.1175  0.1318  0.4299
 8882SOL    HW128087   3.948   5.571  11.468 -0.3778  0.2754  0.4099
 8882SOL    HW228088   3.928   5.422  11.481  3.3963 -0.2816  0.9752
 8883SOL     OW28089   7.831   6.890  11.770 -0.1969  0.8077  0.2674
 8883SOL    HW128090   7.775   6.842  11.831 -0.5035 -1.2319 -1.5239
 8883SOL    HW228091   7.773   6.912  11.697  0.7469  0.9100 -0.4678
 8884SOL     OW28092   3.700   3.781   4.262  0.0340 -0.1074  0.1165
 8884SOL    HW128093   3.688   3.797   4.169  1.8820 -0.1783 -0.1737
 8884SOL    HW228094   3.724   3.867   4.298  0.3011 -0.2761  0.3429
 8885SOL     OW28095   7.318   7.399   2.803 -0.7269  0.5901 -0.4350
 8885SOL    HW128096   7.348   7.358   2.884 -2.6448  1.9459  1.0502
 8885SOL    HW228097   7.243   7.345   2.776 -1.6645  1.5750  0.1282
 8886SOL     OW28098   4.085   1.909   6.837 -0.1503 -0.3911 -0.4013
 8886SOL    HW128099   4.005   1.902   6.888  0.5797  1.3202  1.0714
 8886SOL    HW228100   4.056   1.942   6.752 -0.8778  2.0569  0.7216
 8887SOL     OW28101   7.826   3.441   2.580  0.4266 -0.2915 -0.3754
 8887SOL    HW128102   7.765   3.371   2.605 -0.0839 -0.2451 -1.4287
 8887SOL    HW228103   7.846   3.486   2.662 -1.2469 -0.0887 -0.0427
 8888SOL     OW28104   4.448   3.532   7.600  0.8123 -0.0040  0.8039
 8888SOL    HW128105   4.466   3.602   7.664  1.6675 -0.3477  0.9525
 8888SOL    HW228106   4.529   3.481   7.597  0.6056 -0.3004 -0.1774
 8889SOL     OW28107   7.695   0.945  11.507 -0.1016  0.2092  0.0448
 8889SOL    HW128108   7.679   0.961  11.599  2.1135  1.8073  0.2237
 8889SOL    HW228109   7.641   1.010  11.461 -1.8399 -1.1122  0.0978
 8890SOL     OW28110   7.090   6.313   9.074  0.6087  0.2572 -0.1263
 8890SOL    HW128111   7.147   6.353   9.008 -0.1857  1.5297 -0.0544
 8890SOL    HW228112   7.122   6.347   9.157 -1.0461  2.0704 -0.1665
 8891SOL     OW28113   2.342   4.681   3.574 -0.3538  0.8854 -0.3892
 8891SOL    HW128114   2.396   4.607   3.545 -0.8814  0.1257  0.5249
 8891SOL    HW228115   2.394   4.758   3.551  0.1724  0.2518 -1.4351
 8892SOL     OW28116   2.123   0.178  10.244  0.0573  0.4207 -0.5810
 8892SOL    HW128117   2.189   0.123  10.285  1.1761  2.2660  0.2606
 8892SOL    HW228118   2.044   0.165  10.297 -0.2099 -1.5595 -1.4031
 8893SOL     OW28119   6.629   7.515  10.702  0.1850  0.2765 -0.6014
 8893SOL    HW128120   6.668   7.456  10.767  1.0323  0.5172 -0.8793
 8893SOL    HW228121   6.618   7.598  10.749 -0.0685  0.1934 -0.5081
 8894SOL     OW28122   4.097   2.176  11.656 -0.1057  0.0226 -0.0790
 8894SOL    HW128123   4.109   2.097  11.708 -1.2533  0.3514  0.7296
 8894SOL    HW228124   4.184   2.217  11.654  0.0299 -0.1482  1.3457
 8895SOL     OW28125   2.223   5.215   6.557 -0.1207  0.3611 -0.2510
 8895SOL    HW128126   2.259   5.242   6.642 -1.4387  0.5086  0.2753
 8895SOL    HW228127   2.260   5.128   6.542  0.3543  0.4510  0.3328
 8896SOL     OW28128   3.157   7.939   2.273  0.1326  0.4953 -0.3804
 8896SOL    HW128129   3.080   7.995   2.264 -2.0337 -1.9899  1.2713
 8896SOL    HW228130   3.200   7.944   2.188 -2.1378  1.5986 -1.5503
 8897SOL     OW28131   3.298   7.569   0.407  0.0230 -0.1345  0.4527
 8897SOL    HW128132   3.236   7.501   0.382  0.1176  0.3753 -1.2918
 8897SOL    HW228133   3.289   7.636   0.339  0.0153  1.5700  2.0394
 8898SOL     OW28134   0.214   0.460   1.760 -0.1431  0.1412  0.2290
 8898SOL    HW128135   0.146   0.393   1.766 -0.2787 -0.0722 -2.4534
 8898SOL    HW228136   0.176   0.528   1.703  0.6703  1.6488  1.4042
 8899SOL     OW28137   5.888   0.669   8.431  0.6991 -0.1171 -0.5970
 8899SOL    HW128138   5.808   0.646   8.384 -1.0847 -0.5704  2.3478
 8899SOL    HW228139   5.926   0.585   8.456 -0.0445  0.0041  1.1654
 8900SOL     OW28140   7.210   7.702   2.715 -0.2602 -0.3891  0.1487
 8900SOL    HW128141   7.287   7.670   2.762  0.4618  0.0378 -0.7054
 8900SOL    HW228142   7.215   7.797   2.724 -1.8183 -0.4014  1.7947
 8901SOL     OW28143   6.133   6.803   7.457 -0.1987 -0.1298 -0.3796
 8901SOL    HW128144   6.115   6.735   7.392  1.2986 -0.5955 -0.3569
 8901SOL    HW228145   6.165   6.755   7.533  2.6334  0.6324 -0.9822
 8902SOL     OW28146   2.821   3.772   3.919  0.8340  0.3867 -1.0378
 8902SOL    HW128147   2.815   3.856   3.965 -0.7406  0.4507 -1.2987
 8902SOL    HW228148   2.823   3.796   3.826  2.3417  0.1892 -1.0802
 8903SOL     OW28149   6.204   2.597   9.835  0.3305  0.3876  0.4558
 8903SOL    HW128150   6.178   2.571   9.747 -0.9705 -2.2901  1.5122
 8903SOL    HW228151   6.172   2.687   9.844  1.0261  0.9332 -1.9413
 8904SOL     OW28152   1.980   2.725  10.599  0.0559  0.1954  0.6560
 8904SOL    HW128153   1.928   2.658  10.555 -2.1700  1.6260  0.9154
 8904SOL    HW228154   1.988   2.795  10.535 -1.6058  1.5274  1.8273
 8905SOL     OW28155   5.674   1.671   1.147 -0.1027  0.0083 -0.1665
 8905SOL    HW128156   5.644   1.760   1.168  2.4314  1.3313 -1.6847
 8905SOL    HW228157   5.719   1.642   1.226  1.3043  1.1667 -0.5129
 8906SOL     OW28158   3.506   1.194   0.315  0.2840  0.6521  0.6987
 8906SOL    HW128159   3.583   1.192   0.372  0.1526 -0.2183  0.8623
 8906SOL    HW228160   3.534   1.248   0.240  1.0779  0.3040  0.7278
 8907SOL     OW28161   7.026   2.473   0.195  0.2714  0.4004  0.0838
 8907SOL    HW128162   7.094   2.438   0.139  0.3542  0.9138 -0.1435
 8907SOL    HW228163   7.053   2.450   0.284  0.5553  0.2925 -0.0303
 8908SOL     OW28164   1.430   3.209   9.578  0.3192 -0.6567  0.3577
 8908SOL    HW128165   1.423   3.261   9.658 -2.8567 -0.5206  0.1098
 8908SOL    HW228166   1.351   3.230   9.528  0.7528 -2.9381 -1.4669
 8909SOL     OW28167   2.148   0.353  12.025  0.3425  0.0007 -0.3750
 8909SOL    HW128168   2.220   0.320  11.971 -0.3193 -2.3376  0.0525
 8909SOL    HW228169   2.121   0.277  12.077 -2.1830  0.9123 -0.2463
 8910SOL     OW28170   2.370   7.352   6.996  0.0740  0.0798 -0.0182
 8910SOL    HW128171   2.299   7.416   7.005  0.6087  0.5976  0.5588
 8910SOL    HW228172   2.364   7.297   7.074  0.1209 -0.0665 -0.1166
 8911SOL     OW28173   7.189   3.416   7.146  0.2034  0.3773 -0.0300
 8911SOL    HW128174   7.208   3.477   7.074  1.8287  0.4756  0.4239
 8911SOL    HW228175   7.185   3.330   7.105 -0.9076  0.6557 -0.5118
 8912SOL     OW28176   1.803   4.114   9.554  0.7538  0.0973 -0.1929
 8912SOL    HW128177   1.849   4.062   9.620  0.1312 -1.1277 -0.6905
 8912SOL    HW228178   1.843   4.201   9.560  1.0085 -0.0996  1.4842
 8913SOL     OW28179   5.548   0.039  10.138 -0.1699 -0.4366  0.0439
 8913SOL    HW128180   5.557  -0.019  10.214  0.3027  0.7503  0.9281
 8913SOL    HW228181   5.470   0.091  10.156 -1.5632 -1.8433 -1.5207
 8914SOL     OW28182   0.400   0.015   5.058  0.3872  0.7346  0.2840
 8914SOL    HW128183   0.387   0.105   5.029  0.8625 -0.0606 -2.7677
 8914SOL    HW228184   0.464  -0.021   4.997 -1.3757 -2.2954  0.0154
 8915SOL     OW28185   7.039   5.140   4.796 -0.4616  0.1108 -0.0532
 8915SOL    HW128186   6.949   5.116   4.816  0.1601 -0.4715  2.4397
 8915SOL    HW228187   7.076   5.168   4.880  2.1278 -1.2354 -0.6136
 8916SOL     OW28188   7.215   4.578  10.288  0.3853 -0.2109 -0.3208
 8916SOL    HW128189   7.302   4.615  10.307 -0.8490  2.3294  0.9076
 8916SOL    HW228190   7.155   4.631  10.340 -1.6733 -4.0750  1.6780
 8917SOL     OW28191   1.453   2.994   5.241  0.0328  0.2455  0.4099
 8917SOL    HW128192   1.379   2.994   5.302  0.7680 -3.0206  1.5015
 8917SOL    HW228193   1.414   2.977   5.156 -0.5406 -1.8090  1.0283
 8918SOL     OW28194   5.902   4.935   4.205 -0.7130 -0.5225 -0.1996
 8918SOL    HW128195   5.893   4.872   4.133 -0.6452  0.1187 -0.7844
 8918SOL    HW228196   5.847   5.009   4.179 -0.6800 -0.2785  0.4066
 8919SOL     OW28197   0.691   7.557   1.790  0.1137  0.6492  0.0376
 8919SOL    HW128198   0.755   7.513   1.846  1.6326  2.2898 -0.3159
 8919SOL    HW228199   0.699   7.514   1.705  1.1658  1.2105 -0.1525
 8920SOL     OW28200   1.165   5.689   2.192  0.5728  0.1354  0.1366
 8920SOL    HW128201   1.187   5.628   2.263  1.1303  2.1367  1.8161
 8920SOL    HW228202   1.204   5.651   2.114 -0.7777 -2.6027  0.6540
 8921SOL     OW28203   5.931   6.994   2.492  0.4469  0.1494  0.2943
 8921SOL    HW128204   5.844   6.970   2.460  0.4234  0.2030  0.3165
 8921SOL    HW228205   5.914   7.055   2.564  0.5335  2.7423 -1.7235
 8922SOL     OW28206   6.269   1.745   2.722  0.3151  0.3081  0.2532
 8922SOL    HW128207   6.320   1.739   2.803 -0.1320  0.4893  0.5570
 8922SOL    HW228208   6.304   1.822   2.677  1.7691 -0.7929 -0.5980
 8923SOL     OW28209   1.761   4.505   4.718  0.3628 -0.3693 -0.3729
 8923SOL    HW128210   1.680   4.457   4.698 -0.4575  0.9750 -0.4185
 8923SOL    HW228211   1.757   4.583   4.663 -0.1635  1.6106  2.2518
 8924SOL     OW28212   2.265   6.577   5.833 -0.7819 -0.2832  0.8959
 8924SOL    HW128213   2.349   6.531   5.834  0.6408  1.9763 -1.7066
 8924SOL    HW228214   2.202   6.511   5.805  0.4469 -1.5443  0.9737
 8925SOL     OW28215   2.516   3.289   3.059  0.2454 -0.6270 -0.2215
 8925SOL    HW128216   2.591   3.300   3.000  0.0664 -1.3956 -0.6032
 8925SOL    HW228217   2.511   3.195   3.074 -0.3500 -0.5330  0.1880
 8926SOL     OW28218   4.409   1.007   6.991 -0.6755  0.3795 -0.3923
 8926SOL    HW128219   4.331   0.957   6.966 -1.6271  1.9998 -0.8043
 8926SOL    HW228220   4.482   0.955   6.957 -1.5853 -0.9687 -0.3670
 8927SOL     OW28221   3.551   1.202   9.234 -0.2223 -0.3375 -0.2748
 8927SOL    HW128222   3.626   1.243   9.189 -0.9369  0.3541 -0.8743
 8927SOL    HW228223   3.476   1.225   9.179 -0.7846 -1.6426 -0.0833
 8928SOL     OW28224   5.388   2.080   9.415  0.5559 -0.2510 -0.8281
 8928SOL    HW128225   5.438   2.060   9.494  1.1122  0.0884 -1.0867
 8928SOL    HW228226   5.297   2.068   9.441  0.6139  1.5918  0.4023
 8929SOL     OW28227   3.381   5.629   1.049 -0.2996 -0.1933  0.2386
 8929SOL    HW128228   3.301   5.577   1.044  0.0450 -0.7197  0.0849
 8929SOL    HW228229   3.366   5.689   1.123 -0.7902 -0.3571  0.2742
 8930SOL     OW28230   5.668   2.947   3.718 -0.7790  0.2244  0.0282
 8930SOL    HW128231   5.723   2.924   3.793 -0.5616  0.3854 -0.0811
 8930SOL    HW228232   5.705   2.896   3.646  0.1595  1.4410 -0.3838
 8931SOL     OW28233   5.364   5.292   2.156 -0.3341 -0.1285 -0.3418
 8931SOL    HW128234   5.352   5.354   2.229  1.4439 -1.1153  0.8757
 8931SOL    HW228235   5.455   5.303   2.130 -0.7058 -0.4188 -1.8826
 8932SOL     OW28236   2.873   4.416   9.450 -0.0456  0.1427  0.0206
 8932SOL    HW128237   2.965   4.419   9.426 -0.2511 -0.7485 -0.9993
 8932SOL    HW228238   2.865   4.474   9.525  1.4013 -0.0198  0.3280
 8933SOL     OW28239   7.031   0.797   7.665  0.2011 -0.4354  0.3503
 8933SOL    HW128240   7.123   0.814   7.644 -0.4966  1.1027 -1.7686
 8933SOL    HW228241   7.033   0.763   7.754  2.7963 -0.2461  0.4425
 8934SOL     OW28242   1.920   6.488   2.911  0.5347  0.0256 -0.1549
 8934SOL    HW128243   1.840   6.447   2.945 -0.2706  1.4793 -0.2402
 8934SOL    HW228244   1.939   6.559   2.972  1.0144  0.5113 -0.8574
 8935SOL     OW28245   4.385   3.637   4.746  0.5706 -0.5711  0.3310
 8935SOL    HW128246   4.454   3.688   4.789  0.5393 -0.4459  0.2317
 8935SOL    HW228247   4.431   3.559   4.713  0.7636 -0.2401 -0.1861
 8936SOL     OW28248   6.806   2.946   3.890 -0.2147 -0.0546  0.2364
 8936SOL    HW128249   6.824   3.001   3.966 -0.0944  3.8606 -2.3519
 8936SOL    HW228250   6.713   2.959   3.872 -0.1267 -0.5184 -0.5765
 8937SOL     OW28251   4.010   1.581   2.492 -0.6979  0.4659  0.1370
 8937SOL    HW128252   4.066   1.533   2.430 -1.7292  0.5840 -0.9121
 8937SOL    HW228253   3.949   1.629   2.437  0.0823  2.7872  1.1361
 8938SOL     OW28254   7.890   2.303   7.859 -0.0178 -0.5174 -0.0365
 8938SOL    HW128255   7.973   2.318   7.905  0.4615  0.0847 -1.0673
 8938SOL    HW228256   7.848   2.389   7.858  0.8936 -0.0248 -2.4378
 8939SOL     OW28257   7.653   3.661   0.967  0.0101  0.6722 -0.1942
 8939SOL    HW128258   7.712   3.713   1.022  0.4839  1.9857 -1.8525
 8939SOL    HW228259   7.712   3.611   0.910 -0.4699 -0.5859  0.3730
 8940SOL     OW28260   0.944   6.200   1.671 -0.5478  0.0426 -0.1347
 8940SOL    HW128261   0.931   6.171   1.581  0.2900 -1.3468  0.1568
 8940SOL    HW228262   1.037   6.186   1.688 -1.1204 -2.1126  1.7001
 8941SOL     OW28263   0.853   5.038   1.770 -0.1015  0.4749  0.1654
 8941SOL    HW128264   0.800   5.100   1.820  1.1008  2.0817 -0.4869
 8941SOL    HW228265   0.808   4.954   1.781 -1.7054  1.4192  1.1670
 8942SOL     OW28266   2.594   6.143   7.982  0.4291  0.4854  0.0313
 8942SOL    HW128267   2.607   6.237   7.997 -0.4290  0.6189 -0.0144
 8942SOL    HW228268   2.520   6.120   8.039 -0.3517  0.1662 -1.0918
 8943SOL     OW28269   2.722   1.371   3.442  0.1358 -0.0541  0.3616
 8943SOL    HW128270   2.700   1.425   3.367 -2.8887  0.6510  1.6211
 8943SOL    HW228271   2.678   1.413   3.516  0.0125 -2.6579  1.8953
 8944SOL     OW28272   1.950   6.311   5.362  0.4802 -0.2152 -0.0991
 8944SOL    HW128273   1.997   6.384   5.402 -0.1469  0.0876  0.0866
 8944SOL    HW228274   1.928   6.342   5.274  0.2480 -0.1913 -0.0333
 8945SOL     OW28275   4.555   0.496   5.980  0.3237 -0.3857  0.1175
 8945SOL    HW128276   4.595   0.475   6.064  1.4343  1.7684  0.1895
 8945SOL    HW228277   4.530   0.411   5.944  1.6657 -1.5262  1.7119
 8946SOL     OW28278   0.049   2.283   9.680 -0.1349  0.1243 -0.3281
 8946SOL    HW128279  -0.011   2.246   9.745  0.0629 -0.1570 -0.3072
 8946SOL    HW228280   0.107   2.340   9.731 -1.5344  1.8853 -0.5696
 8947SOL     OW28281   5.263   3.674   6.398  0.2027  0.1958 -0.0112
 8947SOL    HW128282   5.238   3.582   6.409 -0.9363  0.4166 -0.5877
 8947SOL    HW228283   5.271   3.708   6.487  3.9163 -1.2373  0.3831
 8948SOL     OW28284   7.133   4.456   1.041  0.4301 -0.3322 -0.2221
 8948SOL    HW128285   7.197   4.519   1.076 -0.4998  1.0660 -0.9522
 8948SOL    HW228286   7.053   4.475   1.089  0.3046 -1.4458  0.0254
 8949SOL     OW28287   7.611   3.621   4.477 -0.4040 -0.4494 -0.0466
 8949SOL    HW128288   7.535   3.663   4.518  1.0435  0.5182  1.7777
 8949SOL    HW228289   7.624   3.541   4.528  0.9240  0.3599  0.9605
 8950SOL     OW28290   1.311   6.692   1.312  0.2154 -0.0332  0.5959
 8950SOL    HW128291   1.328   6.786   1.321  0.2613 -0.0885  1.1608
 8950SOL    HW228292   1.291   6.679   1.219  0.5859  0.4741  0.4419
 8951SOL     OW28293   2.971   1.064   3.167 -0.4071 -0.1606  0.1515
 8951SOL    HW128294   2.889   1.018   3.187 -0.1584 -1.2389 -1.1742
 8951SOL    HW228295   3.038   1.013   3.212 -0.1383 -1.0826 -1.2592
 8952SOL     OW28296   2.546   5.657  11.678  0.4830 -0.4927 -0.6938
 8952SOL    HW128297   2.622   5.688  11.728 -1.0128 -0.4641  1.7036
 8952SOL    HW228298   2.497   5.736  11.658 -0.3770 -0.7501  0.3325
 8953SOL     OW28299   7.027   1.137   7.734  0.2727 -0.2403 -0.1993
 8953SOL    HW128300   7.110   1.093   7.752  0.5337  1.0242  2.1069
 8953SOL    HW228301   6.960   1.078   7.769  0.3772 -0.2317  0.0154
 8954SOL     OW28302   1.865   6.082   4.785 -0.4136 -0.0059  0.4230
 8954SOL    HW128303   1.792   6.038   4.740 -1.0507  1.7864 -0.3989
 8954SOL    HW228304   1.824   6.154   4.832  0.8391  1.3402 -0.4551
 8955SOL     OW28305   5.582   3.595   4.735  0.1462  0.0566  0.5038
 8955SOL    HW128306   5.640   3.569   4.807 -1.6687 -0.5407  1.8144
 8955SOL    HW228307   5.494   3.591   4.772 -0.8412  0.0200 -1.6883
 8956SOL     OW28308   7.826   5.811   8.205  0.1080 -0.3469  0.0719
 8956SOL    HW128309   7.916   5.841   8.220 -0.4302  1.0105  0.7528
 8956SOL    HW228310   7.780   5.890   8.176 -0.8803 -1.0247 -0.2176
 8957SOL     OW28311   5.998   0.053   1.836  0.6579 -0.0217 -0.4553
 8957SOL    HW128312   5.942   0.003   1.776 -0.2869 -0.1704  0.5158
 8957SOL    HW228313   6.057  -0.013   1.873 -0.2040 -0.3343  0.3919
 8958SOL     OW28314   0.551   3.414   8.856 -0.0100  0.3894  0.6271
 8958SOL    HW128315   0.573   3.432   8.948  0.6518 -0.6625  0.7047
 8958SOL    HW228316   0.581   3.324   8.843 -1.0443  0.1751 -0.3360
 8959SOL     OW28317   0.473   4.675   1.275 -0.2690  0.3048 -0.0671
 8959SOL    HW128318   0.495   4.599   1.222 -0.8034  0.7555 -0.9456
 8959SOL    HW228319   0.475   4.749   1.214  2.2652  1.3777  1.1278
 8960SOL     OW28320   2.834   5.701   3.488 -0.6529  0.1788  0.3658
 8960SOL    HW128321   2.738   5.706   3.494 -0.7978  0.1719 -1.5343
 8960SOL    HW228322   2.855   5.614   3.521 -1.5799 -0.8793 -1.6804
 8961SOL     OW28323   0.860   5.739   0.255 -0.2559  0.4067 -0.0186
 8961SOL    HW128324   0.896   5.706   0.338  0.8850  0.1017 -0.6206
 8961SOL    HW228325   0.799   5.808   0.282 -0.9497 -0.6222  1.1385
 8962SOL     OW28326   0.995   4.603   3.551  0.3249 -0.3017 -0.2375
 8962SOL    HW128327   0.955   4.533   3.603  0.6071 -0.7970 -0.6785
 8962SOL    HW228328   1.061   4.641   3.609  1.8758 -2.0099 -0.7984
 8963SOL     OW28329   5.423   7.040   1.968  0.0066  0.0989 -0.6569
 8963SOL    HW128330   5.411   7.123   2.015  2.8709  0.0415  0.3304
 8963SOL    HW228331   5.358   6.981   2.007 -1.0880  1.4247 -0.3551
 8964SOL     OW28332   5.907   0.954   0.085 -0.2100  0.2984 -0.1822
 8964SOL    HW128333   5.821   0.980   0.117 -0.1376  1.4836 -0.9161
 8964SOL    HW228334   5.920   0.866   0.122 -2.1442 -0.3379 -0.8546
 8965SOL     OW28335   0.344   3.703  12.205  0.0777  0.4639  0.3016
 8965SOL    HW128336   0.306   3.789  12.191 -0.4109  0.1359 -0.4396
 8965SOL    HW228337   0.270   3.646  12.224  0.3488  0.1187  0.3360
 8966SOL     OW28338   2.478   4.658   3.302  0.2306 -0.7082  0.2225
 8966SOL    HW128339   2.524   4.606   3.367  0.1207 -2.6775 -1.2003
 8966SOL    HW228340   2.403   4.605   3.277 -1.5444  1.4057  0.7553
 8967SOL     OW28341   4.555   6.912   4.618  0.2058 -0.4794  0.2754
 8967SOL    HW128342   4.496   6.886   4.688 -0.5788  0.2530 -0.1016
 8967SOL    HW228343   4.568   7.006   4.631  0.3400 -0.4065 -0.3519
 8968SOL     OW28344   4.174   0.778   4.286 -0.3458  0.5901  0.1047
 8968SOL    HW128345   4.194   0.744   4.373 -2.1229 -0.2275  0.2314
 8968SOL    HW228346   4.248   0.835   4.265  0.8654 -0.4032  1.4842
 8969SOL     OW28347   0.333   4.845   4.493  0.2115  0.1025 -0.1379
 8969SOL    HW128348   0.265   4.778   4.505 -0.5945  0.9030 -0.1745
 8969SOL    HW228349   0.342   4.853   4.398 -0.4616  0.8011 -0.1501
 8970SOL     OW28350   5.798   7.479   0.573  0.1440 -0.3606  0.1434
 8970SOL    HW128351   5.894   7.474   0.566  0.2927  1.5415  0.2729
 8970SOL    HW228352   5.781   7.568   0.604 -1.5827 -1.2970  2.1033
 8971SOL     OW28353   3.975   0.070   2.969 -0.4467  0.2306  0.3485
 8971SOL    HW128354   3.936   0.129   3.034 -0.7688 -1.2573  1.5655
 8971SOL    HW228355   4.008  -0.004   3.020  0.5174 -0.3568 -1.0637
 8972SOL     OW28356   7.671   4.132   8.460 -0.8177 -0.2657 -0.4400
 8972SOL    HW128357   7.625   4.090   8.533  1.0801  0.0903  1.0241
 8972SOL    HW228358   7.733   4.065   8.429  0.2358  0.4648  0.0427
 8973SOL     OW28359   2.845   7.167  11.771 -0.1749  0.0226  0.6550
 8973SOL    HW128360   2.806   7.109  11.705  0.2720  0.8495 -0.3606
 8973SOL    HW228361   2.770   7.216  11.806 -0.4977 -0.8523  1.2287
 8974SOL     OW28362   3.089   6.825   7.624 -0.2886 -0.1552  0.6227
 8974SOL    HW128363   3.072   6.796   7.534 -0.7476  0.4523  0.5071
 8974SOL    HW228364   3.033   6.902   7.635  1.9390  1.6443  0.3767
 8975SOL     OW28365   5.003   5.894   2.696 -0.2658 -0.4348 -0.5712
 8975SOL    HW128366   4.934   5.959   2.707  1.6359  1.7586 -0.9740
 8975SOL    HW228367   4.991   5.833   2.769 -1.1427  1.2890  0.7790
 8976SOL     OW28368   1.238   3.163   0.826 -0.1326 -0.2490 -0.5582
 8976SOL    HW128369   1.145   3.181   0.810 -0.0561 -0.4968 -1.3517
 8976SOL    HW228370   1.264   3.226   0.894 -0.4631  0.9976 -1.5493
 8977SOL     OW28371   6.867   7.258   8.640 -0.3142 -0.3591  0.3898
 8977SOL    HW128372   6.791   7.306   8.604 -0.6878 -0.6057  0.8389
 8977SOL    HW228373   6.940   7.284   8.584  0.1778  3.1237  2.3711
 8978SOL     OW28374   7.117   7.886  10.699 -0.0851 -0.0910 -0.4200
 8978SOL    HW128375   7.071   7.964  10.731 -0.9015 -0.2752 -1.1108
 8978SOL    HW228376   7.102   7.886  10.605  1.0588 -0.3519 -0.6139
 8979SOL     OW28377   1.865   6.575   0.344  0.1679 -0.7122  0.3022
 8979SOL    HW128378   1.878   6.666   0.317  0.4841 -0.9013 -0.1912
 8979SOL    HW228379   1.834   6.530   0.265  0.7346 -1.1863  0.3398
 8980SOL     OW28380   2.613   2.053   2.399  0.3109 -0.2868  0.4942
 8980SOL    HW128381   2.597   2.093   2.314 -1.5184 -1.1219  0.3813
 8980SOL    HW228382   2.578   2.116   2.462  0.2516 -0.3424  0.5173
 8981SOL     OW28383   2.902   7.641   0.017 -0.1675 -0.3614  0.4983
 8981SOL    HW128384   2.870   7.591  -0.058  0.2984  1.6426 -1.1312
 8981SOL    HW228385   2.836   7.708   0.031 -0.5552 -1.0643  2.3451
 8982SOL     OW28386   0.808   4.162   5.486  0.9678 -0.1352  0.0568
 8982SOL    HW128387   0.734   4.124   5.534  0.6099  0.0230 -0.3686
 8982SOL    HW228388   0.833   4.096   5.422  0.9882 -0.0581 -0.0157
 8983SOL     OW28389   2.094   2.089   2.301  0.3182  0.1616  0.2483
 8983SOL    HW128390   2.044   2.128   2.372 -0.2641 -0.1436  0.0125
 8983SOL    HW228391   2.185   2.093   2.330  0.2618  1.5194  0.3113
 8984SOL     OW28392   2.955   3.250   1.808  0.0556  0.2441 -0.5020
 8984SOL    HW128393   2.980   3.202   1.887 -1.9324 -1.3766 -0.7869
 8984SOL    HW228394   3.012   3.215   1.739 -0.6862 -1.0404 -0.4944
 8985SOL     OW28395   5.824   5.347   9.612  0.4002 -0.6452 -0.5076
 8985SOL    HW128396   5.915   5.332   9.587  0.1257 -2.3124 -0.5920
 8985SOL    HW228397   5.791   5.261   9.636 -0.8839  0.0886  0.4990
 8986SOL     OW28398   0.305   4.690   2.052  0.2856  0.1214 -0.3722
 8986SOL    HW128399   0.371   4.631   2.015 -0.4311 -0.6059 -0.5264
 8986SOL    HW228400   0.235   4.692   1.986 -0.3981 -0.1093  0.3390
 8987SOL     OW28401   7.649   1.772   1.200  0.1952  0.0224 -0.4420
 8987SOL    HW128402   7.704   1.715   1.146  0.4509 -0.5967  0.4466
 8987SOL    HW228403   7.690   1.770   1.287 -1.7925 -1.3312  0.5527
 8988SOL     OW28404   4.850   7.183   3.753 -0.0296  0.5938 -0.1044
 8988SOL    HW128405   4.886   7.234   3.680 -1.4932  0.0425 -1.2541
 8988SOL    HW228406   4.767   7.150   3.720  0.0074 -0.9880  1.2764
 8989SOL     OW28407   7.346   0.489   8.447  0.1291 -0.2935 -0.0903
 8989SOL    HW128408   7.359   0.493   8.352 -1.9940  1.9554 -0.4003
 8989SOL    HW228409   7.435   0.486   8.483  1.0121 -0.3209 -2.1283
 8990SOL     OW28410   3.218   4.859   0.647  0.9907  0.6393  0.3025
 8990SOL    HW128411   3.284   4.895   0.588  0.4504 -1.2588 -1.5513
 8990SOL    HW228412   3.136   4.899   0.618  0.6398 -0.7325 -0.6480
 8991SOL     OW28413   6.229   0.885   2.887  0.0802  0.2869  0.0595
 8991SOL    HW128414   6.245   0.878   2.793  0.8027 -0.1199  0.2028
 8991SOL    HW228415   6.214   0.795   2.915 -3.0765  0.6570 -0.1347
 8992SOL     OW28416   6.849   5.386   4.300  0.1040 -0.0359  0.3893
 8992SOL    HW128417   6.817   5.311   4.251  2.5743 -0.9742  0.0868
 8992SOL    HW228418   6.815   5.373   4.388  0.5105 -1.5458  0.3507
 8993SOL     OW28419   3.441   6.492  10.750 -0.1279  0.0327 -0.3516
 8993SOL    HW128420   3.500   6.417  10.757  0.5338  0.5834  0.1194
 8993SOL    HW228421   3.458   6.543  10.829 -1.8928 -0.2514  0.2510
 8994SOL     OW28422   1.233   1.611   9.796  0.2312  0.3834 -0.8754
 8994SOL    HW128423   1.176   1.560   9.853 -1.1669  0.6106 -2.0150
 8994SOL    HW228424   1.240   1.559   9.716 -2.3425  2.4182 -2.6305
 8995SOL     OW28425   1.366   0.575   9.171  0.1052 -0.4571 -0.1099
 8995SOL    HW128426   1.309   0.529   9.109 -0.2558 -0.3305  0.1284
 8995SOL    HW228427   1.453   0.574   9.129 -0.2382  0.0844 -0.8657
 8996SOL     OW28428   1.338   0.914   7.129  0.0296 -0.5558  0.2656
 8996SOL    HW128429   1.398   0.910   7.055 -0.3975 -1.3558 -0.0566
 8996SOL    HW228430   1.395   0.915   7.206  0.4647 -0.6989 -0.0494
 8997SOL     OW28431   7.354   4.999  12.215  0.2596  0.2605  0.1077
 8997SOL    HW128432   7.425   4.935  12.226  0.8744  1.0052  0.5861
 8997SOL    HW228433   7.302   4.991  12.295 -1.2680 -1.5265 -0.9816
 8998SOL     OW28434   4.567   3.122   9.382  0.4975 -0.2002 -0.3169
 8998SOL    HW128435   4.477   3.111   9.351 -0.1014  0.2503  1.1878
 8998SOL    HW228436   4.619   3.065   9.325 -0.6727 -0.1565 -1.4700
 8999SOL     OW28437   1.339   5.191   1.876  0.3399 -0.6710 -0.0136
 8999SOL    HW128438   1.348   5.159   1.966  1.1991  2.7899  1.2954
 8999SOL    HW228439   1.253   5.232   1.874  0.9555  0.6564 -0.2178
 9000SOL     OW28440   7.452   4.542   5.047 -0.2828  0.5834  0.6617
 9000SOL    HW128441   7.535   4.564   5.005 -0.1282  0.2515  0.7939
 9000SOL    HW228442   7.402   4.623   5.044 -1.1806  0.0371 -2.2312
 9001SOL     OW28443   6.542   6.539   7.169 -0.1431  0.5895  0.1008
 9001SOL    HW128444   6.466   6.508   7.120  1.0171 -2.4102 -0.0026
 9001SOL    HW228445   6.527   6.510   7.259  1.2883 -1.0715 -0.1356
 9002SOL     OW28446   3.207   6.896   3.497  0.3059  0.6947  0.0020
 9002SOL    HW128447   3.279   6.833   3.499 -1.0652 -0.9804 -0.7324
 9002SOL    HW228448   3.199   6.920   3.405  1.3604  2.6932  0.3686
 9003SOL     OW28449   1.263   5.367  11.616 -0.0740  0.3377 -0.2469
 9003SOL    HW128450   1.175   5.369  11.579  0.4552 -1.1451 -1.7268
 9003SOL    HW228451   1.255   5.316  11.696 -1.0042  2.5247  1.1531
 9004SOL     OW28452   0.416   6.264   3.851 -0.1252 -0.3367 -0.3131
 9004SOL    HW128453   0.394   6.305   3.767  1.6345  0.8689 -0.2408
 9004SOL    HW228454   0.438   6.173   3.828  1.5901  0.2890 -1.4186
 9005SOL     OW28455   5.122   4.913   5.308 -0.1142 -0.0330 -0.5640
 9005SOL    HW128456   5.032   4.909   5.340  0.6449  1.6050  2.1660
 9005SOL    HW228457   5.134   5.005   5.282  1.4745  0.5456  1.8536
 9006SOL     OW28458   6.156   6.998   2.326 -0.2098 -0.0025  0.3146
 9006SOL    HW128459   6.099   7.036   2.392 -1.9681 -2.2290  0.2179
 9006SOL    HW228460   6.149   7.057   2.251 -0.3091  1.1194  1.1849
 9007SOL     OW28461   6.714   7.104   9.957  0.1598  0.0296  0.5350
 9007SOL    HW128462   6.778   7.122  10.027 -0.0406 -1.8418  1.2477
 9007SOL    HW228463   6.758   7.042   9.900 -1.1530 -1.6860  1.3149
 9008SOL     OW28464   7.445   4.928   4.423  0.0847  0.0479 -0.1094
 9008SOL    HW128465   7.443   4.995   4.490  0.6041  0.1356 -0.1788
 9008SOL    HW228466   7.537   4.901   4.418 -0.0414 -0.3449 -0.3988
 9009SOL     OW28467   5.067   2.619   3.854 -0.1971 -0.3951  0.5849
 9009SOL    HW128468   5.105   2.705   3.870  1.2137 -1.0661  1.0958
 9009SOL    HW228469   5.128   2.558   3.896  1.0656 -1.9532 -3.0268
 9010SOL     OW28470   7.857   4.792   3.836 -0.0069 -0.2186 -0.5335
 9010SOL    HW128471   7.851   4.862   3.901  1.2013  0.0583 -0.7098
 9010SOL    HW228472   7.790   4.814   3.771 -0.5974 -0.0048  0.1305
 9011SOL     OW28473   2.303   3.732   9.270 -0.3902 -0.4222  0.0478
 9011SOL    HW128474   2.255   3.815   9.267 -1.0860 -0.8446 -2.2078
 9011SOL    HW228475   2.291   3.694   9.183  3.4823 -0.8987 -0.4354
 9012SOL     OW28476   2.821   5.509   8.069 -0.1291  0.8266  0.0761
 9012SOL    HW128477   2.825   5.586   8.012 -1.7288  1.1537  0.3484
 9012SOL    HW228478   2.912   5.489   8.088  0.3801  1.7394 -1.2168
 9013SOL     OW28479   2.034   0.605   4.485  0.2509  0.0860 -0.4972
 9013SOL    HW128480   1.992   0.649   4.411 -1.1313 -1.5108 -0.7091
 9013SOL    HW228481   2.047   0.675   4.549 -3.1176  0.7026 -0.2641
 9014SOL     OW28482   6.616   3.124   7.260  0.4409  0.0426 -0.5204
 9014SOL    HW128483   6.647   3.034   7.274  0.4994  0.2320  0.6479
 9014SOL    HW228484   6.610   3.161   7.347 -1.6312  0.5036 -0.8038
 9015SOL     OW28485   5.708   2.328   1.148  0.5359 -0.4985  1.0394
 9015SOL    HW128486   5.664   2.254   1.190  0.4309 -1.0688 -0.0378
 9015SOL    HW228487   5.747   2.377   1.221 -0.2704 -1.0310  1.8553
 9016SOL     OW28488   2.601   1.525  12.384 -0.6377  0.6186 -0.0340
 9016SOL    HW128489   2.648   1.486  12.458 -0.5237  0.0409 -0.3974
 9016SOL    HW228490   2.512   1.490  12.391 -0.3646 -0.2759 -0.7407
 9017SOL     OW28491   5.306   7.027   0.588  0.1527  0.1215  0.0686
 9017SOL    HW128492   5.358   7.060   0.661 -1.2367  0.1467  1.0825
 9017SOL    HW228493   5.319   7.092   0.519  0.4983  0.7556  0.7109
 9018SOL     OW28494   1.845   5.323  11.563  0.1494 -0.9360 -0.6064
 9018SOL    HW128495   1.907   5.250  11.570  1.3195 -0.0727 -1.6188
 9018SOL    HW228496   1.898   5.398  11.536 -0.6676  0.8114  2.1695
 9019SOL     OW28497   5.524   7.709   9.769 -0.7466 -0.2736 -0.7233
 9019SOL    HW128498   5.570   7.792   9.784 -2.0101  0.3842 -0.2771
 9019SOL    HW228499   5.481   7.691   9.853 -0.4379 -1.4238 -0.8031
 9020SOL     OW28500   7.556   4.637   6.959 -0.9370 -0.0876 -0.1110
 9020SOL    HW128501   7.500   4.562   6.940 -0.6904 -0.4843  0.6751
 9020SOL    HW228502   7.569   4.679   6.875 -2.7803  0.2864 -0.2421
 9021SOL     OW28503   3.761   3.015   8.004  0.1416  0.2123  0.2224
 9021SOL    HW128504   3.677   3.035   7.964  1.2561  2.8762 -1.0238
 9021SOL    HW228505   3.791   3.098   8.042  1.6095 -0.9781  1.8661
 9022SOL     OW28506   4.822   1.531   4.023 -0.2101  0.3046 -0.2548
 9022SOL    HW128507   4.794   1.558   4.110 -1.8479  0.6509 -0.8604
 9022SOL    HW228508   4.880   1.601   3.993  1.1935 -0.3039  0.9235
 9023SOL     OW28509   7.351   7.686   7.453 -0.2538  0.3072  0.5126
 9023SOL    HW128510   7.288   7.634   7.403 -0.5028  0.2608  0.8687
 9023SOL    HW228511   7.335   7.776   7.425 -0.0226  0.2269  0.1125
 9024SOL     OW28512   0.312   7.789  10.928  0.5727 -0.6135 -0.1319
 9024SOL    HW128513   0.301   7.814  10.837  0.3348  0.9237  0.2993
 9024SOL    HW228514   0.395   7.741  10.930  1.7822  1.3327 -0.7859
 9025SOL     OW28515   1.958   0.785   2.335 -0.4964  0.2911 -0.3911
 9025SOL    HW128516   1.933   0.729   2.261  0.4914 -0.8446  0.0828
 9025SOL    HW228517   1.925   0.872   2.312 -1.2198 -0.2764 -1.6224
 9026SOL     OW28518   5.280   3.443  12.229 -0.8348 -0.5465  0.1970
 9026SOL    HW128519   5.261   3.426  12.137 -0.9415 -3.8197  0.6950
 9026SOL    HW228520   5.345   3.514  12.228  0.5102 -1.6820 -2.5191
 9027SOL     OW28521   3.268   4.681   1.795  0.5275  0.4408  0.4431
 9027SOL    HW128522   3.244   4.714   1.882 -0.1533  1.1485 -0.0004
 9027SOL    HW228523   3.225   4.596   1.789  0.0744  0.6583  0.5696
 9028SOL     OW28524   2.187   7.792   6.072 -0.1768  0.0876 -0.0671
 9028SOL    HW128525   2.154   7.826   5.989  1.1791  0.5048 -0.4635
 9028SOL    HW228526   2.195   7.697   6.057  0.1068  0.1672 -0.4424
 9029SOL     OW28527   3.655   0.666   0.306  0.1456  0.6941  0.0954
 9029SOL    HW128528   3.709   0.603   0.354 -0.8607  0.2906  0.7255
 9029SOL    HW228529   3.701   0.678   0.223  1.0173  0.0991  0.4712
 9030SOL     OW28530   2.201   4.302   1.127  0.1819 -0.4958 -0.0551
 9030SOL    HW128531   2.227   4.296   1.035  1.1663 -0.2430  0.1968
 9030SOL    HW228532   2.176   4.393   1.140  0.5258 -0.4155  0.0501
 9031SOL     OW28533   4.839   1.950   5.232 -0.2750  0.0359  0.1336
 9031SOL    HW128534   4.767   1.963   5.170 -0.0709 -2.4802 -0.7336
 9031SOL    HW228535   4.892   2.029   5.223 -1.7560  0.9916 -0.7857
 9032SOL     OW28536   7.445   3.089   5.410  0.3359  0.6970  0.1639
 9032SOL    HW128537   7.511   3.070   5.343 -1.6703  1.3706 -2.1240
 9032SOL    HW228538   7.467   3.029   5.482  2.1351 -0.6216 -1.3689
 9033SOL     OW28539   6.290   4.735   7.779  0.7083 -0.2740 -0.0027
 9033SOL    HW128540   6.268   4.822   7.746  0.7314  0.5052  1.9384
 9033SOL    HW228541   6.314   4.749   7.870 -1.8364 -2.6258  1.1652
 9034SOL     OW28542   0.189   6.701   9.451 -0.3278 -0.0552 -0.1503
 9034SOL    HW128543   0.225   6.620   9.415  0.9293  0.2025  0.4514
 9034SOL    HW228544   0.215   6.769   9.389 -0.0792  0.0832  0.1020
 9035SOL     OW28545   0.064   1.005   4.379 -0.2438  0.4553  0.2088
 9035SOL    HW128546   0.087   1.051   4.299 -1.7991  0.4361 -0.2738
 9035SOL    HW228547   0.087   0.914   4.362  0.1339  0.5757  0.0720
 9036SOL     OW28548   1.200   3.309   4.186  0.4176 -0.2738 -0.3788
 9036SOL    HW128549   1.264   3.306   4.114  0.9554 -1.7584  0.1263
 9036SOL    HW228550   1.245   3.267   4.260 -0.9412 -0.8720  0.1393
 9037SOL     OW28551   6.723   4.492   4.487 -0.0589 -0.2948  0.2061
 9037SOL    HW128552   6.683   4.409   4.460 -3.3814  1.2838 -0.2874
 9037SOL    HW228553   6.727   4.488   4.582 -1.7188 -0.4716  0.2996
 9038SOL     OW28554   7.309   0.639  10.007  0.0164  0.0050  0.5460
 9038SOL    HW128555   7.391   0.631  10.056 -0.4847  1.0277  1.6114
 9038SOL    HW228556   7.321   0.716   9.952 -0.5938  0.8322  1.5248
 9039SOL     OW28557   0.740   5.458   2.440 -0.3254  0.3043 -0.1281
 9039SOL    HW128558   0.754   5.552   2.448 -1.3877  0.4528  0.1470
 9039SOL    HW228559   0.689   5.447   2.360 -1.9534  0.1784  0.8866
 9040SOL     OW28560   5.176   1.496  10.258 -0.2183  0.5371 -0.2793
 9040SOL    HW128561   5.184   1.453  10.173  1.7520  1.5674 -0.6713
 9040SOL    HW228562   5.128   1.433  10.312  0.8087 -1.2926 -1.3885
 9041SOL     OW28563   0.479   6.518   4.789  0.4513 -0.6741 -0.3340
 9041SOL    HW128564   0.513   6.597   4.747  0.7994 -0.6600 -0.0278
 9041SOL    HW228565   0.556   6.463   4.803  0.4661 -0.3727  0.9469
 9042SOL     OW28566   3.556   2.094  10.024 -0.1300 -0.1809  0.1611
 9042SOL    HW128567   3.527   2.185  10.014  1.4460  0.1390 -2.4588
 9042SOL    HW228568   3.481   2.042   9.994 -0.1507  0.3744 -0.7848
 9043SOL     OW28569   4.715   1.092   5.499  0.0184  0.5850  0.2475
 9043SOL    HW128570   4.777   1.153   5.458 -0.6749 -0.0074 -1.7588
 9043SOL    HW228571   4.641   1.147   5.525  0.1462  0.8567  0.0447
 9044SOL     OW28572   3.970   3.156   1.882 -0.7859  0.0300 -0.2609
 9044SOL    HW128573   3.890   3.158   1.935 -1.4486 -1.3035 -1.1471
 9044SOL    HW228574   4.009   3.243   1.894 -2.8844  1.0816 -0.5836
 9045SOL     OW28575   7.114   7.498   3.268 -0.4554  0.4909  0.1117
 9045SOL    HW128576   7.074   7.417   3.300 -0.7605  1.0914  1.3278
 9045SOL    HW228577   7.040   7.554   3.245 -0.2436  0.3462 -0.9774
 9046SOL     OW28578   1.049   0.123   7.825 -0.2908 -0.0566 -0.0940
 9046SOL    HW128579   1.080   0.118   7.915 -0.5597 -1.5105 -0.0476
 9046SOL    HW228580   0.970   0.069   7.824 -1.2564  1.3242 -0.8301
 9047SOL     OW28581   2.517   2.798   9.909  0.1664  0.0919 -0.1379
 9047SOL    HW128582   2.550   2.759   9.828  0.2178  1.3698 -0.7506
 9047SOL    HW228583   2.572   2.875   9.923 -0.2927  0.2704  0.7263
 9048SOL     OW28584   0.686   6.686   5.488 -0.5682 -0.0863  0.0361
 9048SOL    HW128585   0.711   6.596   5.510  0.7692  0.4264  0.7193
 9048SOL    HW228586   0.768   6.736   5.494 -1.0475  0.9724 -1.4865
 9049SOL     OW28587   2.757   1.144   4.514 -0.1837  0.1772 -0.2433
 9049SOL    HW128588   2.773   1.064   4.465  2.3813  0.1415  0.5274
 9049SOL    HW228589   2.755   1.116   4.606 -2.0448  0.6547 -0.0822
 9050SOL     OW28590   4.312   3.255   3.399 -0.4879 -0.5582  0.5800
 9050SOL    HW128591   4.229   3.236   3.443  0.2283 -0.7094  1.8969
 9050SOL    HW228592   4.321   3.350   3.406  0.3467 -0.7244  2.1407
 9051SOL     OW28593   3.800   4.788   2.585 -0.7283 -0.3163  0.2509
 9051SOL    HW128594   3.839   4.755   2.504 -0.7798 -0.3332  0.2327
 9051SOL    HW228595   3.719   4.738   2.595 -0.7988 -0.2067  0.2326
 9052SOL     OW28596   5.481   6.752   5.033  0.0068  0.2410  0.1374
 9052SOL    HW128597   5.554   6.790   5.081  0.4310  0.1281 -0.4112
 9052SOL    HW228598   5.502   6.768   4.941  0.3567 -1.5993 -0.1262
 9053SOL     OW28599   2.035   7.535   8.045 -0.0833 -0.0950 -0.0392
 9053SOL    HW128600   1.991   7.497   8.121 -2.3086  0.6276 -0.8939
 9053SOL    HW228601   1.967   7.586   8.001  0.7760 -1.4857 -3.2376
 9054SOL     OW28602   4.879   4.801   5.404 -0.3679 -0.2424 -0.4237
 9054SOL    HW128603   4.891   4.706   5.401  0.1644 -0.3403  2.2020
 9054SOL    HW228604   4.792   4.813   5.442  0.0829  0.2742  0.4824
 9055SOL     OW28605   6.020   5.095   7.770  0.1131 -0.1877  0.5413
 9055SOL    HW128606   6.007   5.035   7.844 -0.4870 -1.1192 -0.2918
 9055SOL    HW228607   6.112   5.085   7.746 -0.0756 -1.0504  0.1764
 9056SOL     OW28608   7.587   2.987   5.922 -0.3080 -0.3058  0.1927
 9056SOL    HW128609   7.546   2.928   5.858 -0.7775 -0.1316  0.3321
 9056SOL    HW228610   7.671   2.945   5.942  0.6071  0.4572 -1.7899
 9057SOL     OW28611   0.116   6.484   5.896 -0.1064  0.0996  0.2330
 9057SOL    HW128612   0.138   6.552   5.834  0.0068 -0.5094 -0.4041
 9057SOL    HW228613   0.031   6.450   5.866 -0.2144  0.0256  0.6051
 9058SOL     OW28614   3.345   4.540   7.022  0.0567 -0.2174  0.1424
 9058SOL    HW128615   3.372   4.454   7.056  0.6097  0.0694  0.4479
 9058SOL    HW228616   3.356   4.600   7.096 -1.9671 -0.1613  0.4476
 9059SOL     OW28617   5.461   7.168   0.762  0.2813  0.0542  0.1824
 9059SOL    HW128618   5.484   7.220   0.684 -0.0519  0.0285  0.0658
 9059SOL    HW228619   5.517   7.203   0.831  0.7497 -0.0756 -0.1226
 9060SOL     OW28620   2.459   7.638  10.532 -0.2277 -0.4630  0.1949
 9060SOL    HW128621   2.471   7.576  10.460  0.6992 -1.5133  1.2177
 9060SOL    HW228622   2.373   7.676  10.516  0.6191  0.6423 -2.4284
 9061SOL     OW28623   0.741   5.756   4.624 -0.5171  0.8861 -0.4340
 9061SOL    HW128624   0.774   5.670   4.598 -1.6694  0.1562  0.3922
 9061SOL    HW228625   0.801   5.818   4.585 -1.0913 -0.1768 -3.2137
 9062SOL     OW28626   0.479   4.362  10.804  0.3091  0.4465  0.0452
 9062SOL    HW128627   0.487   4.451  10.770  0.5044  0.3587 -0.1371
 9062SOL    HW228628   0.503   4.306  10.731 -2.0581  0.1657 -0.5802
 9063SOL     OW28629   4.683   2.674   7.553 -0.2495 -0.0382  0.1120
 9063SOL    HW128630   4.679   2.763   7.517 -0.7319  0.2870  0.9325
 9063SOL    HW228631   4.661   2.617   7.480  2.4486  0.3156 -1.1019
 9064SOL     OW28632   5.187   6.073  10.851  0.3957 -0.0439  0.1471
 9064SOL    HW128633   5.244   6.148  10.835  1.9272 -1.1523  0.1272
 9064SOL    HW228634   5.109   6.110  10.893  1.8577  1.3329  1.7940
 9065SOL     OW28635   2.122   6.538   5.418  0.3436  0.2127  0.1921
 9065SOL    HW128636   2.169   6.610   5.377 -2.0981  2.2420  0.7135
 9065SOL    HW228637   2.191   6.478   5.448  2.3481  0.8326 -2.7825
 9066SOL     OW28638   5.419   4.790   9.832  0.2542 -0.4564  0.1677
 9066SOL    HW128639   5.399   4.697   9.827 -1.2949 -0.1678  0.4989
 9066SOL    HW228640   5.466   4.809   9.750 -0.0629 -1.3758 -0.2419
 9067SOL     OW28641   5.378   0.022   0.412  0.5885 -0.7623 -0.3772
 9067SOL    HW128642   5.286   0.035   0.389  0.8137  0.7049 -0.5397
 9067SOL    HW228643   5.376  -0.045   0.481 -0.6131 -0.6574 -0.2867
 9068SOL     OW28644   6.597   7.286  12.100  0.0121 -0.4209 -0.1322
 9068SOL    HW128645   6.532   7.337  12.148 -0.0406  0.1863 -0.8238
 9068SOL    HW228646   6.600   7.328  12.014  1.4269 -0.3530 -0.0625
 9069SOL     OW28647   4.118   1.057   4.478 -0.4584 -0.3500  0.8007
 9069SOL    HW128648   4.209   1.085   4.487  0.2062 -2.5398  1.7506
 9069SOL    HW228649   4.111   1.026   4.388 -0.8570  1.5700  0.1282
 9070SOL     OW28650   3.349   0.938   4.334 -0.0835 -0.0554  0.5760
 9070SOL    HW128651   3.292   1.000   4.288 -0.1153 -0.3870  0.1556
 9070SOL    HW228652   3.435   0.952   4.296 -0.0570 -0.1487  0.6007
 9071SOL     OW28653   3.193   1.684   7.507 -0.0521 -0.2457  0.0769
 9071SOL    HW128654   3.226   1.598   7.482  1.4319 -0.1226  1.4953
 9071SOL    HW228655   3.233   1.744   7.444  0.0666 -0.4343 -0.0284
 9072SOL     OW28656   1.524   2.552  11.188  0.2664  0.1436  0.7346
 9072SOL    HW128657   1.456   2.604  11.145  1.2134 -0.4836 -1.6780
 9072SOL    HW228658   1.504   2.560  11.281 -2.7470  0.4846  0.1784
 9073SOL     OW28659   5.741   1.457   1.346 -0.0786  0.3006  0.0367
 9073SOL    HW128660   5.649   1.433   1.354  0.3780 -1.1312  1.7131
 9073SOL    HW228661   5.749   1.541   1.391 -0.4927  0.2596  0.1864
 9074SOL     OW28662   7.072   6.103  11.931 -0.0077  0.4506 -0.5694
 9074SOL    HW128663   7.075   6.167  11.859 -1.2985  1.0442 -0.1201
 9074SOL    HW228664   7.060   6.156  12.010  1.6907 -0.1737  0.1624
 9075SOL     OW28665   5.979   0.837   1.908  0.1609  0.3505  0.8715
 9075SOL    HW128666   6.063   0.875   1.933  0.3237  0.5542  0.0432
 9075SOL    HW228667   5.914   0.889   1.956  0.5634 -1.1022  3.1315
 9076SOL     OW28668   0.294   7.086   3.537 -0.5834 -0.4447  0.0118
 9076SOL    HW128669   0.264   7.140   3.464  0.3638 -0.9854 -0.8153
 9076SOL    HW228670   0.213   7.049   3.574 -1.0878 -0.1451 -0.7534
 9077SOL     OW28671   1.086   0.644  12.356  0.1413 -0.5677 -0.2179
 9077SOL    HW128672   1.156   0.618  12.416 -0.0077  0.0410  0.2288
 9077SOL    HW228673   1.005   0.621  12.402  0.0288 -0.2794 -0.2720
 9078SOL     OW28674   0.941   4.140   8.566 -0.5283  0.0876 -0.2927
 9078SOL    HW128675   0.960   4.050   8.592 -1.5086 -0.3410 -1.0121
 9078SOL    HW228676   1.019   4.189   8.592  0.0867 -0.9895 -0.0373
 9079SOL     OW28677   1.380   3.440   9.165  0.2056  0.0455 -0.2740
 9079SOL    HW128678   1.333   3.519   9.194  1.6579  1.2061 -0.9434
 9079SOL    HW228679   1.424   3.409   9.244  0.5568  0.5815 -0.2569
 9080SOL     OW28680   2.887   6.772   8.365 -0.3011 -0.0172 -0.3654
 9080SOL    HW128681   2.930   6.695   8.328  0.1110  0.1719 -0.2865
 9080SOL    HW228682   2.808   6.738   8.405 -0.7767 -0.2187 -1.4468
 9081SOL     OW28683   7.970   0.774   4.099  0.3474 -0.0459  0.0314
 9081SOL    HW128684   7.922   0.703   4.142  1.2321 -1.0603 -0.5831
 9081SOL    HW228685   7.912   0.849   4.103 -0.4203 -0.6754  1.1480
 9082SOL     OW28686   7.501   7.807   4.129  0.4013  0.3664  0.1747
 9082SOL    HW128687   7.443   7.842   4.061 -0.3459 -0.5256  0.3306
 9082SOL    HW228688   7.505   7.713   4.111 -0.2111  0.0336  1.6571
 9083SOL     OW28689   6.348   1.610   6.447  0.1873 -0.4321 -0.0781
 9083SOL    HW128690   6.302   1.617   6.363 -1.2601  0.6290  0.7471
 9083SOL    HW228691   6.385   1.697   6.461  0.9453 -0.7831  0.1030
 9084SOL     OW28692   4.068   2.247   5.300  0.0329  0.3828 -0.2498
 9084SOL    HW128693   4.042   2.219   5.212 -2.5502 -0.0042  0.5547
 9084SOL    HW228694   4.071   2.166   5.351 -0.0336  0.7802  0.3938
 9085SOL     OW28695   3.805   2.000  10.084  0.1969 -0.2361 -0.2684
 9085SOL    HW128696   3.779   1.932  10.146 -1.6341 -2.4928 -3.2071
 9085SOL    HW228697   3.723   2.040  10.056  0.9175  0.5734 -1.3321
 9086SOL     OW28698   5.867   2.303   6.413  0.1031 -0.7771 -0.5440
 9086SOL    HW128699   5.902   2.293   6.325 -0.2837  1.0780 -0.9489
 9086SOL    HW228700   5.911   2.381   6.448 -2.8753  1.1534 -0.7763
 9087SOL     OW28701   4.049   3.107   2.343 -0.2923 -0.1161 -0.1076
 9087SOL    HW128702   4.101   3.117   2.423 -0.6785 -0.3680  0.1847
 9087SOL    HW228703   4.097   3.043   2.291 -0.0907 -0.0273 -0.0342
 9088SOL     OW28704   4.844   5.522  10.208  0.1205 -0.0367  0.8442
 9088SOL    HW128705   4.852   5.490  10.118  1.2838  0.1469  0.8763
 9088SOL    HW228706   4.912   5.476  10.257 -0.1035  0.3227  1.5110
 9089SOL     OW28707   1.267   0.241   6.710  0.0523  0.1908  0.6242
 9089SOL    HW128708   1.305   0.296   6.642 -1.4431  1.3620  0.6801
 9089SOL    HW228709   1.257   0.155   6.669 -1.8023  1.1411 -1.0452
 9090SOL     OW28710   0.122   7.167   6.465  0.0944  0.2115  0.1443
 9090SOL    HW128711   0.175   7.091   6.442 -1.9521 -1.1583 -0.2715
 9090SOL    HW228712   0.074   7.140   6.543  0.1949  1.5310  0.6874
 9091SOL     OW28713   6.338   6.104   4.398 -0.1682 -0.3698  0.0549
 9091SOL    HW128714   6.250   6.083   4.429  0.2793 -3.8170 -0.5328
 9091SOL    HW228715   6.381   6.143   4.474 -1.0228 -2.5566  1.7898
 9092SOL     OW28716   6.110   4.214   2.690  0.4938  0.0252  0.1980
 9092SOL    HW128717   6.198   4.249   2.676  0.6875 -0.4264  0.2991
 9092SOL    HW228718   6.115   4.122   2.663  0.1614 -0.1184  0.6103
 9093SOL     OW28719   0.379   6.473   6.034 -0.2248  0.0984 -0.0922
 9093SOL    HW128720   0.321   6.495   6.107 -0.3696 -1.5167  0.3166
 9093SOL    HW228721   0.320   6.450   5.962 -0.0929 -0.7032  0.0533
 9094SOL     OW28722   1.656   3.510  11.688 -0.3148 -0.2648 -0.1457
 9094SOL    HW128723   1.668   3.471  11.774 -1.2383  2.3188  1.2687
 9094SOL    HW228724   1.561   3.508  11.674 -0.1312 -1.3615 -1.5247
 9095SOL     OW28725   7.465   6.996  11.727  0.4328  0.0672 -0.2767
 9095SOL    HW128726   7.551   6.955  11.718  1.1353  1.6004 -0.9194
 9095SOL    HW228727   7.430   7.001  11.638 -1.2845 -2.3665  0.1545
 9096SOL     OW28728   5.805   2.767   1.621 -0.0606  0.1435  0.0713
 9096SOL    HW128729   5.878   2.777   1.682 -0.6994  1.6819  0.6356
 9096SOL    HW228730   5.837   2.704   1.556  1.1547 -0.4424  1.1854
 9097SOL     OW28731   6.097   4.151  11.723 -0.2000  0.5050 -0.0410
 9097SOL    HW128732   6.178   4.111  11.690  0.2682  0.9168  0.5826
 9097SOL    HW228733   6.078   4.221  11.661 -0.0655  0.4243 -0.1757
 9098SOL     OW28734   2.641   3.932  11.074  0.0739 -0.3239  0.3928
 9098SOL    HW128735   2.604   4.007  11.028 -0.1943  0.7922  2.3008
 9098SOL    HW228736   2.592   3.928  11.156  2.2147 -0.5594  1.7502
 9099SOL     OW28737   0.487   6.969   2.854 -0.7790 -0.2824  0.5424
 9099SOL    HW128738   0.518   6.883   2.881  1.4606  0.3976  0.3372
 9099SOL    HW228739   0.483   7.020   2.934 -0.0204  0.0111  0.4023
 9100SOL     OW28740   4.085   3.410   0.551  0.4007  0.1851 -0.1629
 9100SOL    HW128741   4.103   3.316   0.550 -0.9463 -0.1998  2.4779
 9100SOL    HW228742   4.023   3.423   0.479 -3.5418 -2.0653  2.4413
 9101SOL     OW28743   3.138   7.198   9.673  0.4044 -0.4000 -0.1729
 9101SOL    HW128744   3.109   7.286   9.648  0.5793 -0.6187 -1.1952
 9101SOL    HW228745   3.215   7.212   9.728 -1.2276  0.1771  2.1180
 9102SOL     OW28746   5.395   6.281   8.023 -0.2589 -0.1282 -0.0337
 9102SOL    HW128747   5.396   6.238   8.109 -0.9368  1.6171  0.8929
 9102SOL    HW228748   5.336   6.227   7.971 -1.3986 -0.1513  1.2144
 9103SOL     OW28749   7.043   3.757   1.343  0.0839 -0.0467 -0.5051
 9103SOL    HW128750   7.060   3.696   1.272 -0.4470 -1.0356  0.1967
 9103SOL    HW228751   7.028   3.702   1.420 -0.8286  0.9359  0.0593
 9104SOL     OW28752   6.591   6.534   5.121 -0.1451  0.6990  0.4988
 9104SOL    HW128753   6.517   6.586   5.089 -0.3545  0.6763  0.9378
 9104SOL    HW228754   6.659   6.545   5.054 -1.0719 -0.5465 -0.6979
 9105SOL     OW28755   1.865   0.334   4.153 -0.0159 -0.0057  0.2488
 9105SOL    HW128756   1.892   0.289   4.232 -0.8501 -3.0870 -1.0825
 9105SOL    HW228757   1.776   0.364   4.170  0.4437  0.9672  1.0425
 9106SOL     OW28758   0.124   7.106  12.263 -0.2193 -0.5996  0.4547
 9106SOL    HW128759   0.134   7.189  12.309  0.2938 -1.3567  1.7567
 9106SOL    HW228760   0.086   7.130  12.178  1.2777  1.1033  0.2165
 9107SOL     OW28761   6.579   0.152   1.018 -0.0938 -0.0719 -0.2736
 9107SOL    HW128762   6.636   0.203   0.960 -0.5396 -1.8007 -2.3728
 9107SOL    HW228763   6.618   0.065   1.020 -1.3968 -0.6690  0.1115
 9108SOL     OW28764   1.032   7.505   9.336 -0.4715  0.4022  0.2167
 9108SOL    HW128765   1.052   7.573   9.400  0.5000 -0.0669  0.4263
 9108SOL    HW228766   1.110   7.499   9.282  0.0107 -1.4698  1.0489
 9109SOL     OW28767   6.310   3.270   3.309  0.4216 -0.0690 -0.3488
 9109SOL    HW128768   6.403   3.290   3.303  0.3987  1.0218  1.9214
 9109SOL    HW228769   6.268   3.354   3.323 -1.0049 -0.4869 -1.7722
 9110SOL     OW28770   1.732   3.175   8.022  0.0872 -0.0645 -0.1888
 9110SOL    HW128771   1.814   3.151   8.064 -0.8187 -0.5965  1.3442
 9110SOL    HW228772   1.667   3.173   8.092 -1.2933  0.0953 -1.4074
 9111SOL     OW28773   4.738   3.426   2.557 -0.1823 -0.2063  0.5439
 9111SOL    HW128774   4.645   3.405   2.552 -0.5993  1.4422  0.8107
 9111SOL    HW228775   4.751   3.453   2.648  0.2090  0.9985  0.1541
 9112SOL     OW28776   0.687   2.689   0.616  0.4575  0.3410 -0.1002
 9112SOL    HW128777   0.673   2.742   0.538 -1.0381 -0.4387 -0.4096
 9112SOL    HW228778   0.765   2.726   0.657  0.5919  1.5053 -1.3331
 9113SOL     OW28779   2.883   2.353   3.770  0.3167  0.0773 -0.2733
 9113SOL    HW128780   2.836   2.435   3.762 -1.5814 -1.0768 -2.0215
 9113SOL    HW228781   2.975   2.377   3.764 -0.1730  2.0875 -0.3510
 9114SOL     OW28782   7.533   5.572   6.935  0.4332  0.0551 -0.2785
 9114SOL    HW128783   7.449   5.605   6.904  0.9260  0.8564 -0.7938
 9114SOL    HW228784   7.546   5.490   6.887  1.5671  1.6721 -2.8906
 9115SOL     OW28785   1.790   1.077   1.699 -0.4589  0.3157 -0.2454
 9115SOL    HW128786   1.845   1.034   1.765 -1.1245 -0.0414  0.0917
 9115SOL    HW228787   1.811   1.170   1.707  0.1699  0.1745 -0.1986
 9116SOL     OW28788   2.447   0.956   9.032 -0.5429 -0.0823 -0.5040
 9116SOL    HW128789   2.460   0.889   8.965  0.5221 -0.0071 -0.3938
 9116SOL    HW228790   2.433   0.907   9.113 -1.5242 -0.1723 -0.7278
 9117SOL     OW28791   0.367   6.443  12.059  0.2870  0.4411 -0.4985
 9117SOL    HW128792   0.456   6.411  12.044 -0.3346 -1.5502 -0.2015
 9117SOL    HW228793   0.323   6.433  11.975 -0.6826 -2.2557  0.2262
 9118SOL     OW28794   0.530   1.057   9.440  0.0134 -0.6911  0.4035
 9118SOL    HW128795   0.570   1.119   9.500 -0.6104 -0.7317  0.8764
 9118SOL    HW228796   0.485   1.111   9.375  0.1368 -0.6489  0.3528
 9119SOL     OW28797   6.498   7.622   0.063 -0.0252  0.2579 -0.3229
 9119SOL    HW128798   6.518   7.563  -0.009  0.0799  1.0308 -0.9452
 9119SOL    HW228799   6.570   7.686   0.062  0.0418  0.2105  0.5441
 9120SOL     OW28800   7.589   5.140   5.219  0.2261  0.6458 -0.3419
 9120SOL    HW128801   7.539   5.060   5.235  1.3922  0.1107  0.7277
 9120SOL    HW228802   7.550   5.205   5.278  1.9650 -0.2825  1.9742
 9121SOL     OW28803   4.731   7.249   7.171  0.2374  0.4998 -0.1642
 9121SOL    HW128804   4.664   7.238   7.103  2.3000  0.5573 -2.3184
 9121SOL    HW228805   4.682   7.277   7.248 -2.3927 -0.9396 -1.1834
 9122SOL     OW28806   2.980   5.157  10.085 -0.0952 -0.1245 -0.2853
 9122SOL    HW128807   2.912   5.090  10.091 -0.4527  0.3229  1.0601
 9122SOL    HW228808   2.963   5.201  10.002 -0.3852 -1.1211 -0.7734
 9123SOL     OW28809   4.920   7.490   1.917  0.3349  0.0070 -0.4938
 9123SOL    HW128810   4.946   7.563   1.974  1.4753 -1.8959  1.5789
 9123SOL    HW228811   4.981   7.494   1.844 -0.5448  1.9478 -1.1842
 9124SOL     OW28812   7.289   5.437   3.986 -1.1764  0.2049 -0.3301
 9124SOL    HW128813   7.213   5.458   4.040 -1.7073  0.1115 -1.0313
 9124SOL    HW228814   7.294   5.341   3.990 -0.1571  0.2780  0.9624
 9125SOL     OW28815   1.328   2.733   9.297  0.2364 -0.3601 -0.0620
 9125SOL    HW128816   1.281   2.817   9.301  0.3956 -0.3366  2.4700
 9125SOL    HW228817   1.285   2.678   9.362 -0.9750 -2.9394 -2.8193
 9126SOL     OW28818   6.031   3.584   2.067  0.1108 -0.3221 -0.1610
 9126SOL    HW128819   6.041   3.572   1.972 -1.6290  0.8721 -0.5445
 9126SOL    HW228820   5.937   3.572   2.083  0.3756 -0.5321  1.4339
 9127SOL     OW28821   4.609   2.740  11.756  0.1905  0.4594 -0.2140
 9127SOL    HW128822   4.635   2.811  11.815 -1.2366  0.8073  0.0393
 9127SOL    HW228823   4.623   2.775  11.668  0.1282  0.8160 -0.0832
 9128SOL     OW28824   5.680   4.155   4.311 -0.0107 -0.0491 -0.1478
 9128SOL    HW128825   5.761   4.203   4.293  0.4026 -0.5394  0.3819
 9128SOL    HW228826   5.664   4.169   4.404 -0.4034 -0.1568 -0.1987
 9129SOL     OW28827   0.679   1.877   1.012 -0.0902  0.2936  0.2344
 9129SOL    HW128828   0.672   1.791   0.972  1.5893 -1.4670  3.3493
 9129SOL    HW228829   0.768   1.907   0.992  0.1473  0.1958  1.0964
 9130SOL     OW28830   5.248   1.416   7.303  0.0700 -0.3725  0.2154
 9130SOL    HW128831   5.219   1.438   7.392 -0.9946 -1.4006  0.1386
 9130SOL    HW228832   5.187   1.462   7.246  0.7546  0.2875 -0.0070
 9131SOL     OW28833   6.002   7.744  12.429 -0.1125 -0.3197  0.5383
 9131SOL    HW128834   6.079   7.796  12.453 -0.3821  0.5409 -0.3532
 9131SOL    HW228835   6.032   7.653  12.430  1.1840  0.0549 -0.6424
 9132SOL     OW28836   6.709   4.303   0.457 -0.5959 -0.3602  0.4808
 9132SOL    HW128837   6.724   4.355   0.537 -1.4303 -0.7486  0.9011
 9132SOL    HW228838   6.622   4.264   0.470 -1.7380  1.2879 -1.5490
 9133SOL     OW28839   3.213   0.273   4.055  0.4556  0.2326 -0.6995
 9133SOL    HW128840   3.222   0.369   4.059 -0.3991  0.2818  2.1032
 9133SOL    HW228841   3.177   0.257   3.968 -0.2614  2.5640 -0.9236
 9134SOL     OW28842   7.272   3.249   8.053 -0.1034 -0.0042  0.2080
 9134SOL    HW128843   7.282   3.159   8.023  0.4722  0.1486 -0.0615
 9134SOL    HW228844   7.268   3.243   8.148 -3.3337 -0.6494  0.1450
 9135SOL     OW28845   4.699   1.093   7.351  0.1697 -0.2683  0.7462
 9135SOL    HW128846   4.716   0.999   7.348 -1.4263 -0.6015  1.0235
 9135SOL    HW228847   4.686   1.113   7.444  0.0299  0.1285  0.6468
 9136SOL     OW28848   2.876   4.622  10.880  0.2289  0.0412  0.2926
 9136SOL    HW128849   2.925   4.664  10.951 -0.0810 -0.0446  0.5596
 9136SOL    HW228850   2.897   4.674  10.803 -0.2963  0.8174  0.6506
 9137SOL     OW28851   4.902   2.803  11.441 -0.4833 -0.0188  0.5155
 9137SOL    HW128852   4.910   2.716  11.402 -0.0785  0.0353  0.4787
 9137SOL    HW228853   4.946   2.795  11.526  2.4403  0.9881 -0.7788
 9138SOL     OW28854   6.708   6.232   6.741 -0.2075 -0.0715  0.0486
 9138SOL    HW128855   6.766   6.307   6.728 -0.4779  0.4966  1.7952
 9138SOL    HW228856   6.657   6.254   6.819  0.4564 -2.4895  1.2829
 9139SOL     OW28857   6.782   3.087   1.054 -0.5088  0.0676 -0.4843
 9139SOL    HW128858   6.700   3.114   1.096 -0.1861 -0.5429  0.5791
 9139SOL    HW228859   6.826   3.034   1.120  1.1702  1.1340 -0.6796
 9140SOL     OW28860   5.443   6.271   9.453 -0.0745  0.2128 -0.4492
 9140SOL    HW128861   5.352   6.252   9.476 -0.2107  1.6233  0.2910
 9140SOL    HW228862   5.440   6.357   9.412  1.0528  0.7982  0.6395
 9141SOL     OW28863   3.314   6.184  10.304 -0.1921 -0.7123 -0.0632
 9141SOL    HW128864   3.300   6.138  10.222  1.0698  0.1827 -0.8247
 9141SOL    HW228865   3.267   6.267  10.294 -1.9004 -1.5001  1.0331
 9142SOL     OW28866   1.813   4.926   8.987 -0.0554  0.0939  0.3460
 9142SOL    HW128867   1.878   4.937   8.918  0.1014 -0.4965  0.3964
 9142SOL    HW228868   1.735   4.895   8.941  0.4703 -1.7074  0.5799
 9143SOL     OW28869   5.434   2.354   3.935 -0.2634 -0.0229  0.1468
 9143SOL    HW128870   5.460   2.444   3.950  0.6052 -0.0679 -0.9542
 9143SOL    HW228871   5.418   2.348   3.840  1.0380 -1.3263 -0.0399
 9144SOL     OW28872   2.985   5.409  10.770  0.2048 -0.3568 -0.0452
 9144SOL    HW128873   3.061   5.451  10.810  0.1097  0.4633 -0.7020
 9144SOL    HW228874   3.022   5.347  10.708  0.3403 -0.5069  0.1850
 9145SOL     OW28875   6.817   6.310   0.724  0.4054  0.5956  0.5237
 9145SOL    HW128876   6.817   6.336   0.816  1.9354  2.0217  0.1814
 9145SOL    HW228877   6.819   6.215   0.725 -1.6420  0.5157  1.9121
 9146SOL     OW28878   5.295   4.923   1.857  0.2909  0.4967  0.3117
 9146SOL    HW128879   5.282   4.956   1.767  2.0279  0.5848  0.0586
 9146SOL    HW228880   5.213   4.943   1.901 -0.4172  0.9315 -1.1164
 9147SOL     OW28881   7.700   6.185   0.448 -1.0461  0.2554  0.0441
 9147SOL    HW128882   7.654   6.129   0.386 -0.8256  0.4828 -0.3293
 9147SOL    HW228883   7.778   6.215   0.401 -0.2780 -0.4645  0.8091
 9148SOL     OW28884   6.731   4.934  10.289 -0.2729  1.2238 -0.1022
 9148SOL    HW128885   6.806   4.934  10.230 -0.1911  1.1374  0.0002
 9148SOL    HW228886   6.673   4.867  10.254 -0.3117  1.3076 -0.1963
 9149SOL     OW28887   3.671   2.114   9.058 -0.0774 -0.3369  0.6756
 9149SOL    HW128888   3.717   2.048   9.006 -1.1132  0.5675 -1.5513
 9149SOL    HW228889   3.732   2.188   9.060 -1.2229  0.8672 -2.2872
 9150SOL     OW28890   5.288   4.488   6.246  0.8295 -0.3102  0.4443
 9150SOL    HW128891   5.197   4.488   6.215  0.8072 -0.6858  0.5095
 9150SOL    HW228892   5.322   4.403   6.220  1.4327  0.1669 -0.3695
 9151SOL     OW28893   3.367   0.317   2.656  0.0588  0.1453 -0.6062
 9151SOL    HW128894   3.368   0.296   2.749 -0.5686  1.2146 -0.3373
 9151SOL    HW228895   3.447   0.368   2.642 -1.4827  2.9852  0.1452
 9152SOL     OW28896   1.147   2.358   9.638  0.0502 -0.2285 -0.2819
 9152SOL    HW128897   1.170   2.288   9.576 -1.2100 -1.2495  0.3390
 9152SOL    HW228898   1.145   2.315   9.723 -0.3882  0.6533  0.1652
 9153SOL     OW28899   6.313   4.686   9.579  0.1985  0.6382 -0.2335
 9153SOL    HW128900   6.341   4.596   9.594  1.1941  0.9317 -0.2512
 9153SOL    HW228901   6.391   4.730   9.544  0.6685  2.2215  2.4471
 9154SOL     OW28902   7.264   2.914   3.719 -0.2331  0.1887 -0.2488
 9154SOL    HW128903   7.256   2.925   3.813 -0.8742 -1.0236 -0.1426
 9154SOL    HW228904   7.248   2.821   3.704 -2.5299  0.7202 -1.7559
 9155SOL     OW28905   6.060   2.052  11.813 -0.2771 -0.2007  0.5917
 9155SOL    HW128906   6.081   1.964  11.845  0.0503 -1.1692 -2.0397
 9155SOL    HW228907   6.144   2.095  11.802 -0.0925 -0.9927 -1.7119
 9156SOL     OW28908   3.157   7.813  12.307  1.0513 -0.9296 -0.3124
 9156SOL    HW128909   3.243   7.805  12.267  1.1668 -2.3163  0.1578
 9156SOL    HW228910   3.142   7.729  12.351  0.3098 -0.0225  1.3049
 9157SOL     OW28911   5.908   1.188   1.850 -0.4877 -0.3391  0.3067
 9157SOL    HW128912   5.948   1.262   1.805 -0.1584 -0.3924  0.5014
 9157SOL    HW228913   5.947   1.190   1.938 -0.8958 -0.4103  0.4930
 9158SOL     OW28914   4.842   1.942   0.493 -0.1557 -0.3731  0.2046
 9158SOL    HW128915   4.933   1.913   0.501  0.1945  0.6081 -0.1313
 9158SOL    HW228916   4.820   1.931   0.401  1.0542  3.3725 -0.6908
 9159SOL     OW28917   0.031   5.514   2.364 -0.1858  0.2371 -0.5069
 9159SOL    HW128918   0.016   5.544   2.275 -1.6706  1.3637  0.0580
 9159SOL    HW228919   0.089   5.580   2.402 -0.7157  0.5741 -0.2541
 9160SOL     OW28920   2.029   7.861  11.162 -0.1056  0.6644  0.2085
 9160SOL    HW128921   2.063   7.833  11.077 -2.4185 -1.1472 -0.2338
 9160SOL    HW228922   2.042   7.784  11.219 -1.6114  0.6204  0.5327
 9161SOL     OW28923   2.707   5.499   8.320 -0.4619 -0.1982  0.9053
 9161SOL    HW128924   2.739   5.509   8.230  0.3631  1.0577  1.3146
 9161SOL    HW228925   2.636   5.563   8.327 -1.8516 -1.6432  0.5897
 9162SOL     OW28926   3.201   0.471   5.368 -0.5821  0.1801 -0.2134
 9162SOL    HW128927   3.202   0.563   5.341  1.0890  0.1906 -0.2195
 9162SOL    HW228928   3.289   0.439   5.347  0.6487 -0.0499  4.3126
 9163SOL     OW28929   3.780   0.001   9.673  0.0527 -0.5500 -0.2741
 9163SOL    HW128930   3.819   0.032   9.591 -0.3950 -1.5272 -0.8815
 9163SOL    HW228931   3.689   0.032   9.670 -0.1588 -1.1737 -0.4874
 9164SOL     OW28932   4.247   0.243   9.961 -0.3291  0.1524 -0.0217
 9164SOL    HW128933   4.236   0.161  10.010 -0.6960 -0.5648 -1.2686
 9164SOL    HW228934   4.215   0.311  10.022  0.2134 -0.5843  1.1168
 9165SOL     OW28935   2.258   1.656   8.310  0.2880 -0.8143  0.2991
 9165SOL    HW128936   2.344   1.640   8.271  0.5770 -0.8813  0.9392
 9165SOL    HW228937   2.277   1.677   8.401 -0.2546  0.9860  0.0275
 9166SOL     OW28938   5.123   6.012   5.594  0.3428  0.7140 -0.3156
 9166SOL    HW128939   5.062   5.969   5.654  0.3649 -0.1784 -0.9029
 9166SOL    HW228940   5.122   5.956   5.516  1.0657  1.3055 -0.7604
 9167SOL     OW28941   2.065   5.840   7.376  0.0587 -0.3286 -0.8219
 9167SOL    HW128942   2.053   5.863   7.468 -0.1290  1.3096 -1.2221
 9167SOL    HW228943   2.147   5.882   7.351 -0.5048  0.3143 -1.6976
 9168SOL     OW28944   6.834   1.930   9.838 -0.0767 -0.9592  0.4557
 9168SOL    HW128945   6.771   1.883   9.892  0.8230 -2.2576  0.4262
 9168SOL    HW228946   6.916   1.926   9.887  0.9652 -2.8510 -1.2613
 9169SOL     OW28947   5.699   1.799   7.791  0.0274 -1.1393 -0.1407
 9169SOL    HW128948   5.710   1.704   7.782  0.1091 -0.9530 -2.5845
 9169SOL    HW228949   5.731   1.835   7.709  0.0471  1.0463  0.7541
 9170SOL     OW28950   3.102   2.549  10.213 -0.1791 -0.0395  0.3862
 9170SOL    HW128951   3.055   2.538  10.130  2.7473  3.3348 -2.0644
 9170SOL    HW228952   3.041   2.599  10.268 -1.8382 -1.5381  0.0204
 9171SOL     OW28953   6.254   1.638   6.200 -0.0685  0.1405  0.0213
 9171SOL    HW128954   6.238   1.730   6.176  0.9113  0.4969  0.6767
 9171SOL    HW228955   6.214   1.588   6.129  1.6949  1.1260 -1.7655
 9172SOL     OW28956   1.782   3.533   6.922  0.3684  0.2225  0.7328
 9172SOL    HW128957   1.797   3.449   6.966  1.2112 -0.7179 -1.2423
 9172SOL    HW228958   1.687   3.538   6.911  0.3092 -0.4554  0.9213
 9173SOL     OW28959   3.454   0.854   3.574 -0.2089  0.0487  0.1483
 9173SOL    HW128960   3.531   0.847   3.630 -1.6344 -1.6906  2.1143
 9173SOL    HW228961   3.456   0.943   3.540  2.3584  0.2067  0.5368
 9174SOL     OW28962   7.671   3.274   2.779 -0.2727 -0.2622 -0.3645
 9174SOL    HW128963   7.599   3.219   2.808 -0.9914  0.8588  0.0554
 9174SOL    HW228964   7.669   3.350   2.838  1.7810 -0.5712  0.2099
 9175SOL     OW28965   3.429   4.921   3.603 -0.0405 -0.2830  0.2511
 9175SOL    HW128966   3.453   4.991   3.663 -0.8186 -0.1569  0.4264
 9175SOL    HW228967   3.512   4.881   3.578  0.3485  0.1901  0.7693
 9176SOL     OW28968   3.956   5.705   3.734  0.4955  0.1021  0.5296
 9176SOL    HW128969   3.981   5.613   3.733  0.5813  0.1270 -0.3434
 9176SOL    HW228970   3.930   5.722   3.824 -0.2225 -0.9587  0.5339
 9177SOL     OW28971   6.413   7.189   2.468 -0.4817 -0.0272 -0.1571
 9177SOL    HW128972   6.468   7.149   2.536 -0.8419  1.1270  0.8366
 9177SOL    HW228973   6.333   7.214   2.513 -1.1471 -0.1228 -1.2338
 9178SOL     OW28974   2.284   6.925   0.871 -0.4243  0.7237 -0.1614
 9178SOL    HW128975   2.368   6.890   0.842 -0.5532 -0.4009  0.7433
 9178SOL    HW228976   2.259   6.987   0.803 -0.1146 -0.8567 -1.7807
 9179SOL     OW28977   1.984   5.922   4.497 -0.3417 -0.1464 -0.5643
 9179SOL    HW128978   1.895   5.934   4.465 -1.1247 -3.9973 -0.3357
 9179SOL    HW228979   2.036   5.904   4.419  0.0990  1.2496 -0.6130
 9180SOL     OW28980   6.605   4.329  10.219 -0.5854 -0.2507 -0.0797
 9180SOL    HW128981   6.541   4.398  10.237  0.4704  0.6353  0.3696
 9180SOL    HW228982   6.591   4.265  10.289 -0.2628  0.4705  0.6658
 9181SOL     OW28983   1.155   2.141   6.422  0.2632 -0.3972 -0.3451
 9181SOL    HW128984   1.204   2.139   6.340  1.7423 -1.9235  0.5066
 9181SOL    HW228985   1.088   2.073   6.411  0.0516 -0.1601 -0.5229
 9182SOL     OW28986   1.495   2.691   0.694 -0.3410  0.0572  0.1844
 9182SOL    HW128987   1.463   2.638   0.767  0.4899  0.9074  1.1961
 9182SOL    HW228988   1.454   2.776   0.706 -2.1443 -0.4342 -1.7723
 9183SOL     OW28989   0.333   5.849   8.761 -0.5199 -0.1683 -0.1836
 9183SOL    HW128990   0.417   5.894   8.751 -1.5136  1.4389 -1.8876
 9183SOL    HW228991   0.351   5.759   8.737  0.8119  0.0387 -0.0333
 9184SOL     OW28992   6.683   6.348   2.589 -0.3377  0.1707  0.3538
 9184SOL    HW128993   6.610   6.290   2.613 -0.7166 -0.4393 -1.9976
 9184SOL    HW228994   6.705   6.323   2.499  2.0744  1.0967  0.6037
 9185SOL     OW28995   0.151   0.198   3.131  0.6703  0.0948  0.0938
 9185SOL    HW128996   0.201   0.271   3.169  1.4331 -0.3256 -0.0805
 9185SOL    HW228997   0.211   0.124   3.133 -0.4377 -0.8234  1.2505
 9186SOL     OW28998   1.200   3.400   2.150 -0.3682 -0.3039  0.2748
 9186SOL    HW128999   1.156   3.373   2.070  0.9733  0.0056 -0.6000
 9186SOL    HW229000   1.223   3.318   2.194  1.3846 -0.6079 -1.0859
 9187SOL     OW29001   1.294   0.304   0.024  0.5938 -0.8135  0.1717
 9187SOL    HW129002   1.361   0.243  -0.007 -0.4125 -1.6245 -0.4703
 9187SOL    HW229003   1.281   0.365  -0.048  1.2814 -0.0830  0.6466
 9188SOL     OW29004   0.711   6.225   6.872  0.4047 -0.0332  0.0988
 9188SOL    HW129005   0.629   6.223   6.920 -0.0644 -2.1043 -0.7100
 9188SOL    HW229006   0.691   6.185   6.787  2.1141 -0.0441 -0.3450
 9189SOL     OW29007   7.111   2.091   9.387  0.1975 -0.7777  0.0032
 9189SOL    HW129008   7.030   2.070   9.434  0.7903  0.6485  1.7470
 9189SOL    HW229009   7.176   2.030   9.422  0.1006 -1.3752 -0.8115
 9190SOL     OW29010   3.193   0.369   8.721 -0.7914  0.3770  0.4609
 9190SOL    HW129011   3.114   0.415   8.691  0.3081  2.3743  0.4501
 9190SOL    HW229012   3.230   0.331   8.642 -0.6507  1.2094  0.1201
 9191SOL     OW29013   7.945   7.913  11.005 -0.1869  0.5697 -0.6153
 9191SOL    HW129014   7.928   7.995  11.050 -0.5297  0.2563 -0.1643
 9191SOL    HW229015   7.864   7.895  10.957 -0.6095 -0.1750  0.3515
 9192SOL     OW29016   0.837   7.009   7.255  0.0517 -0.3496  0.0631
 9192SOL    HW129017   0.805   6.965   7.176 -0.7556 -0.5923  0.5072
 9192SOL    HW229018   0.900   7.074   7.223  0.6933 -1.3124 -0.6614
 9193SOL     OW29019   2.955   0.378   1.898 -0.2916 -0.2791  0.0378
 9193SOL    HW129020   3.040   0.363   1.939 -1.5739 -0.4649  2.8987
 9193SOL    HW229021   2.915   0.291   1.894 -0.7609 -0.0520 -0.2844
 9194SOL     OW29022   2.713   5.214   9.623  0.3529 -0.3025 -0.3321
 9194SOL    HW129023   2.704   5.268   9.544  1.5664 -1.1023 -1.0601
 9194SOL    HW229024   2.724   5.125   9.589  1.6704 -0.5587  0.6993
 9195SOL     OW29025   0.704   3.683   2.198 -0.5471  0.3763  0.5295
 9195SOL    HW129026   0.684   3.618   2.131  1.0442 -0.1528  0.5397
 9195SOL    HW229027   0.665   3.764   2.165  0.3986  0.1887 -1.1622
 9196SOL     OW29028   4.417   4.168  12.272  0.5536  0.5419  0.2652
 9196SOL    HW129029   4.497   4.146  12.320 -0.2392 -0.8020  1.0429
 9196SOL    HW229030   4.358   4.202  12.339  0.3102  1.0673 -0.2168
 9197SOL     OW29031   1.780   2.470   4.063 -0.5625 -0.6297 -0.1099
 9197SOL    HW129032   1.751   2.492   4.151  0.8917 -1.1096  0.5279
 9197SOL    HW229033   1.753   2.379   4.051  0.9039 -1.1877  0.6165
 9198SOL     OW29034   1.559   3.944   2.618  0.3359  1.3734  0.3170
 9198SOL    HW129035   1.509   4.024   2.607 -1.2806  0.4595  0.7357
 9198SOL    HW229036   1.538   3.891   2.541  0.6920  0.9825  0.4834
 9199SOL     OW29037   7.663   3.336   1.114  0.0400 -0.0494  0.0377
 9199SOL    HW129038   7.728   3.322   1.045 -0.3785 -1.2282 -0.1301
 9199SOL    HW229039   7.715   3.354   1.192  0.5263  0.6694 -0.4288
 9200SOL     OW29040   6.743   3.628   2.831  0.2345 -0.2621 -0.2912
 9200SOL    HW129041   6.669   3.658   2.883  0.8904 -0.7139  0.9263
 9200SOL    HW229042   6.739   3.681   2.751  0.4421  1.9998  1.0951
 9201SOL     OW29043   6.306   3.659   0.295  0.0231 -0.0687 -0.2906
 9201SOL    HW129044   6.227   3.685   0.343  0.7358  1.4068  0.1721
 9201SOL    HW229045   6.350   3.742   0.275  1.3781 -0.8423 -0.6753
 9202SOL     OW29046   2.712   2.939   4.656 -0.2401 -0.5400  0.2999
 9202SOL    HW129047   2.710   2.846   4.634 -1.2598 -0.6315  0.7385
 9202SOL    HW229048   2.637   2.952   4.713 -1.4328  0.9802 -1.5003
 9203SOL     OW29049   7.209   4.973   1.286 -0.3170  0.1391 -0.4037
 9203SOL    HW129050   7.221   4.963   1.192 -0.0035  2.5457 -0.6777
 9203SOL    HW229051   7.291   5.012   1.317 -0.5745 -0.2344  0.8007
 9204SOL     OW29052   4.781   6.374   0.316 -0.2761 -0.1734  0.2604
 9204SOL    HW129053   4.800   6.294   0.363  0.8932 -0.1251 -0.0998
 9204SOL    HW229054   4.737   6.345   0.236  1.0286 -0.5399 -0.3357
 9205SOL     OW29055   2.540   4.160   1.169  0.4320  0.0048 -0.0183
 9205SOL    HW129056   2.534   4.255   1.185 -0.3954  0.5001 -2.7374
 9205SOL    HW229057   2.619   4.133   1.216  1.1361  2.2028  0.1895
 9206SOL     OW29058   4.406   7.622   7.034  0.4572 -0.0274  0.1017
 9206SOL    HW129059   4.383   7.714   7.043 -0.4402 -0.1422 -0.7246
 9206SOL    HW229060   4.437   7.596   7.120 -1.3279  0.5112  0.9632
 9207SOL     OW29061   7.758   0.675   0.781  0.4795 -0.2016  0.0563
 9207SOL    HW129062   7.675   0.630   0.796  0.3057  0.0448 -0.1628
 9207SOL    HW229063   7.755   0.704   0.690  0.2968  0.8328  0.3760
 9208SOL     OW29064   0.851   4.933   3.909  0.2074 -0.2392  0.3490
 9208SOL    HW129065   0.806   5.017   3.909  0.7419  0.0660  1.3963
 9208SOL    HW229066   0.823   4.891   3.828 -0.2466  0.8416 -0.0739
 9209SOL     OW29067   7.405   1.551   4.209  0.1710 -0.0141 -0.2434
 9209SOL    HW129068   7.493   1.549   4.172 -0.3569 -1.1465 -1.5011
 9209SOL    HW229069   7.347   1.545   4.134 -0.9922  0.3714  0.5981
 9210SOL     OW29070   4.153   7.881   7.771 -0.0593 -0.1868 -0.1343
 9210SOL    HW129071   4.058   7.883   7.782 -0.0725  1.9949 -0.0980
 9210SOL    HW229072   4.177   7.789   7.774 -1.9296 -0.6746  2.0385
 9211SOL     OW29073   1.725   7.669  10.814 -0.5645 -0.2895 -0.3180
 9211SOL    HW129074   1.800   7.689  10.759 -0.2798  0.1349  0.2105
 9211SOL    HW229075   1.725   7.738  10.880 -0.1498 -1.4531  0.9565
 9212SOL     OW29076   0.651   5.769  10.604  0.1565  0.1113  0.2917
 9212SOL    HW129077   0.639   5.755  10.698  2.2979 -0.2861  0.5668
 9212SOL    HW229078   0.675   5.683  10.571 -1.1723  0.1221 -0.7546
 9213SOL     OW29079   3.254   6.301   4.747 -0.1766 -0.3723 -0.4258
 9213SOL    HW129080   3.204   6.220   4.739 -0.2177 -0.3048 -0.9415
 9213SOL    HW229081   3.265   6.331   4.656  2.6148 -1.4777 -0.5439
 9214SOL     OW29082   7.579   3.239   5.702  0.2223  0.3608  0.4109
 9214SOL    HW129083   7.599   3.283   5.784  2.8678 -0.4807  0.2823
 9214SOL    HW229084   7.551   3.310   5.644  2.1620  1.6049  0.8906
 9215SOL     OW29085   6.670   1.443   6.874  0.1852  0.1061  0.3598
 9215SOL    HW129086   6.597   1.493   6.836 -1.0034 -0.3077  1.9698
 9215SOL    HW229087   6.693   1.379   6.806 -1.0124  0.2042 -0.1760
 9216SOL     OW29088   4.216   4.336   9.529 -0.5131 -0.2809 -0.2532
 9216SOL    HW129089   4.171   4.417   9.508 -1.5140 -0.7137  0.1636
 9216SOL    HW229090   4.235   4.296   9.444  0.5640  0.6783 -0.4825
 9217SOL     OW29091   1.898   3.335  10.381 -0.3246  0.3478 -0.1151
 9217SOL    HW129092   1.928   3.423  10.404 -0.3017  0.2184  0.3526
 9217SOL    HW229093   1.815   3.325  10.426  0.0683 -0.1802  0.5216
 9218SOL     OW29094   7.441   0.952  10.089 -0.1362  0.0205  0.5585
 9218SOL    HW129095   7.498   0.958  10.012 -1.6298 -0.8848 -0.7024
 9218SOL    HW229096   7.477   0.880  10.140 -0.6717 -1.2297 -0.7466
 9219SOL     OW29097   6.988   3.512   4.172 -0.0110 -0.6946 -0.0671
 9219SOL    HW129098   6.980   3.422   4.203 -0.7498 -0.4377  0.5018
 9219SOL    HW229099   7.073   3.542   4.205 -0.7332 -0.4575  1.6677
 9220SOL     OW29100   2.711   6.313  12.262 -0.0394  0.3976  0.6383
 9220SOL    HW129101   2.731   6.324  12.170  3.6412 -4.3266  0.4902
 9220SOL    HW229102   2.774   6.368  12.308 -0.4847  1.1603  0.3433
 9221SOL     OW29103   2.162   7.038   2.269  0.2479 -0.0744  0.4704
 9221SOL    HW129104   2.112   7.102   2.319  1.2224  0.1414  1.2070
 9221SOL    HW229105   2.158   7.070   2.179 -1.0039 -0.1195  0.5007
 9222SOL     OW29106   1.088   2.808   0.982 -0.1490  0.3436  0.0447
 9222SOL    HW129107   1.179   2.790   0.960  0.2293 -0.4113  2.0407
 9222SOL    HW229108   1.069   2.751   1.056 -2.0812  0.9158  0.0496
 9223SOL     OW29109   4.586   7.793  10.058  0.3341 -0.1894 -0.3622
 9223SOL    HW129110   4.532   7.804   9.980 -0.6287  0.8659  0.4166
 9223SOL    HW229111   4.628   7.708  10.047 -1.6499 -1.1423 -0.8880
 9224SOL     OW29112   4.296   6.986   6.690 -0.3504 -0.8461  0.3010
 9224SOL    HW129113   4.205   6.986   6.721 -0.6535  2.0967 -0.2440
 9224SOL    HW229114   4.336   6.911   6.733 -2.8793 -1.9285  1.0035
 9225SOL     OW29115   2.100   7.007   8.984  0.6649 -0.2202 -0.6583
 9225SOL    HW129116   2.115   6.939   8.918 -0.8084  0.0707 -1.3362
 9225SOL    HW229117   2.009   6.993   9.012  1.0083  0.1915  0.7036
 9226SOL     OW29118   0.918   2.530   2.402 -0.0262  0.4917 -0.5736
 9226SOL    HW129119   0.932   2.435   2.398 -0.2163  0.4490 -0.2248
 9226SOL    HW229120   0.967   2.564   2.327 -0.0826  0.1027 -0.7891
 9227SOL     OW29121   6.062   0.852   8.355  0.1626  0.1930  0.5235
 9227SOL    HW129122   6.147   0.853   8.400  0.0324  1.7033  0.7951
 9227SOL    HW229123   6.012   0.784   8.401  0.8076  0.1462  1.1824
 9228SOL     OW29124   3.983   0.335   4.267 -0.6703 -0.0957  0.1824
 9228SOL    HW129125   3.934   0.409   4.304  1.0932 -0.6709  4.1672
 9228SOL    HW229126   3.925   0.260   4.278 -0.1352 -0.2757  2.0920
 9229SOL     OW29127   6.043   1.403   4.339  0.1163 -0.0783  0.3324
 9229SOL    HW129128   6.087   1.439   4.262 -1.7270  0.5191 -0.4848
 9229SOL    HW229129   6.085   1.318   4.352  0.8326  0.0341 -1.0046
 9230SOL     OW29130   1.189   3.508  10.104  0.3796  0.1542  0.3336
 9230SOL    HW129131   1.242   3.429  10.114 -0.4179 -0.3446  0.6450
 9230SOL    HW229132   1.252   3.580  10.115  1.7376 -0.3679 -2.8574
 9231SOL     OW29133   5.765   1.908   3.479 -0.2560  0.6625  0.0973
 9231SOL    HW129134   5.714   1.979   3.518 -2.6463  0.0895 -1.7611
 9231SOL    HW229135   5.710   1.830   3.487  1.9933 -0.9229  1.4268
 9232SOL     OW29136   1.155   0.919   2.870 -0.0226 -0.0006 -0.3268
 9232SOL    HW129137   1.208   0.997   2.888 -0.4087  0.2949 -0.4466
 9232SOL    HW229138   1.106   0.904   2.950  0.1418 -0.1953 -0.2619
 9233SOL     OW29139   3.010   6.225   5.973 -0.1794 -0.1521 -0.0958
 9233SOL    HW129140   2.970   6.276   6.044  1.7770  0.2533  0.7727
 9233SOL    HW229141   2.947   6.154   5.957 -0.8341 -0.0703  1.8429
 9234SOL     OW29142   0.418   3.072   4.254  0.1696 -0.3631  0.3328
 9234SOL    HW129143   0.392   3.140   4.317 -0.2919  1.4416 -1.6753
 9234SOL    HW229144   0.425   2.993   4.307 -1.0875  0.8370  2.4944
 9235SOL     OW29145   1.786   0.040   1.416  0.8060  0.4066  0.2682
 9235SOL    HW129146   1.877   0.059   1.393  1.1677 -1.4930 -0.0007
 9235SOL    HW229147   1.789  -0.044   1.462 -0.9140 -0.2609 -0.7213
 9236SOL     OW29148   5.710   7.919   3.130  0.4157 -0.3620 -0.2247
 9236SOL    HW129149   5.626   7.873   3.128 -0.5615  1.1690  1.5783
 9236SOL    HW229150   5.754   7.884   3.208  1.1963 -0.6951 -0.8029
 9237SOL     OW29151   1.484   3.744  11.128  0.3013  0.2741 -0.3650
 9237SOL    HW129152   1.520   3.770  11.043 -0.9554  0.4664 -0.8747
 9237SOL    HW229153   1.399   3.788  11.132 -0.8600 -1.8030 -0.2055
 9238SOL     OW29154   0.878   0.056   3.727 -0.0875  0.1726  0.2251
 9238SOL    HW129155   0.810   0.051   3.660 -1.2250  0.6857  1.2976
 9238SOL    HW229156   0.954   0.091   3.681 -1.4990  2.7165 -0.3783
 9239SOL     OW29157   2.135   6.302   1.993 -0.2794  0.4017  0.4851
 9239SOL    HW129158   2.041   6.298   2.009 -0.2607 -0.8736  0.3443
 9239SOL    HW229159   2.174   6.290   2.079 -0.2375  1.0898  0.5674
 9240SOL     OW29160   5.464   2.374  11.545  0.4648 -1.4178 -0.6262
 9240SOL    HW129161   5.384   2.341  11.587  1.6277 -0.5182  2.6579
 9240SOL    HW229162   5.514   2.296  11.523  0.0338 -1.9774  0.3152
 9241SOL     OW29163   4.677   6.591   1.892  0.2782  0.5265 -0.5356
 9241SOL    HW129164   4.696   6.603   1.799 -0.6016 -0.3632 -0.8476
 9241SOL    HW229165   4.762   6.577   1.933  0.5760 -0.2517 -1.3886
 9242SOL     OW29166   3.209   6.880   8.902 -0.9692  0.8285  0.1239
 9242SOL    HW129167   3.192   6.814   8.970 -1.1834  0.7952  0.0378
 9242SOL    HW229168   3.156   6.852   8.828 -0.0965  0.4028 -0.3557
 9243SOL     OW29169   1.064   5.201   7.985  0.3489 -0.5104  0.3176
 9243SOL    HW129170   1.102   5.260   8.050  1.1719  0.5702 -1.0842
 9243SOL    HW229171   1.138   5.150   7.953  0.2298 -0.0249 -0.7669
 9244SOL     OW29172   7.810   7.730   4.569  0.1469  0.0923 -0.4943
 9244SOL    HW129173   7.888   7.678   4.588 -0.5947 -1.1254 -0.6742
 9244SOL    HW229174   7.781   7.699   4.483 -1.2877 -0.4462  0.1524
 9245SOL     OW29175   7.120   0.817   3.254  0.1100  0.0467  0.1092
 9245SOL    HW129176   7.063   0.775   3.190  0.0156  0.6562 -0.2150
 9245SOL    HW229177   7.094   0.779   3.338  0.3900 -0.9275 -0.2331
 9246SOL     OW29178   1.184   7.567  10.541 -1.0157  0.3789 -0.4396
 9246SOL    HW129179   1.133   7.488  10.557 -1.8130  0.7969 -0.8519
 9246SOL    HW229180   1.255   7.539  10.484 -0.7464 -0.2229  0.1871
 9247SOL     OW29181   5.573   2.736   6.214  0.2109 -0.1952 -0.1069
 9247SOL    HW129182   5.506   2.767   6.153 -1.5784 -0.9929  1.3849
 9247SOL    HW229183   5.542   2.651   6.243  2.7758 -1.4363 -0.6842
 9248SOL     OW29184   7.162   5.645   1.007  0.0207  0.5577 -0.3788
 9248SOL    HW129185   7.146   5.566   0.955 -0.0494  1.0942 -1.1841
 9248SOL    HW229186   7.106   5.634   1.084  0.5777 -0.5266 -0.1054
 9249SOL     OW29187   0.279   4.192   7.846 -0.3123 -0.3429  0.1444
 9249SOL    HW129188   0.301   4.106   7.880  2.0172  0.2873  0.3648
 9249SOL    HW229189   0.310   4.253   7.912  0.6560  0.7507 -1.2541
 9250SOL     OW29190   4.768   6.059   4.573 -0.4038 -0.4430 -0.2887
 9250SOL    HW129191   4.737   6.029   4.659 -0.4450 -2.3243 -0.9178
 9250SOL    HW229192   4.808   5.981   4.534  0.2231  0.5654 -1.7033
 9251SOL     OW29193   5.982   2.667   0.622 -0.0590  0.1043 -0.0897
 9251SOL    HW129194   5.931   2.609   0.679 -1.0694 -0.5182 -1.5547
 9251SOL    HW229195   5.977   2.625   0.536 -1.6901  2.8326 -1.4641
 9252SOL     OW29196   6.479   3.117   1.120 -0.4420 -0.0175  0.3056
 9252SOL    HW129197   6.402   3.122   1.063 -0.3075  1.4332  0.2195
 9252SOL    HW229198   6.451   3.064   1.195 -0.2092 -3.2958 -1.6815
 9253SOL     OW29199   7.419   5.052   0.884 -0.2338  0.0852  0.2611
 9253SOL    HW129200   7.453   5.087   0.801  1.1136 -0.8487  0.3833
 9253SOL    HW229201   7.411   5.128   0.941  0.2409  0.5416 -0.2736
 9254SOL     OW29202   3.825   2.093  11.686 -0.0633  0.2400 -0.4955
 9254SOL    HW129203   3.915   2.120  11.663  0.8298 -0.3854  1.9443
 9254SOL    HW229204   3.804   2.025  11.623  1.0632  0.5943 -1.2955
 9255SOL     OW29205   6.685   3.490   4.861 -0.5164  0.0070  0.3069
 9255SOL    HW129206   6.715   3.532   4.942  0.1625 -0.6462  0.4070
 9255SOL    HW229207   6.764   3.450   4.824 -1.1362 -1.1900  0.2237
 9256SOL     OW29208   4.966   4.660   6.124 -0.2190  0.0204  0.1692
 9256SOL    HW129209   4.968   4.676   6.219 -1.1590 -0.4194  0.2740
 9256SOL    HW229210   4.888   4.607   6.111  0.8310 -1.3772 -0.6451
 9257SOL     OW29211   4.641   5.179   7.450 -0.5301  0.5264 -0.3162
 9257SOL    HW129212   4.630   5.232   7.529  0.8164  0.2728  0.0695
 9257SOL    HW229213   4.686   5.237   7.388 -2.1998  0.9568 -1.1891
 9258SOL     OW29214   3.580   2.212  11.247  0.0616  0.3366 -0.0852
 9258SOL    HW129215   3.666   2.170  11.257  0.5190  1.3680  0.5860
 9258SOL    HW229216   3.543   2.172  11.169  1.2458  0.0040 -0.5090
 9259SOL     OW29217   1.767   6.001   0.789  0.2912  0.4328  0.3464
 9259SOL    HW129218   1.683   5.989   0.745  0.4843 -2.0868  0.5064
 9259SOL    HW229219   1.807   6.075   0.744 -0.6725 -0.3439 -1.9538
 9260SOL     OW29220   6.022   0.679   2.443  0.3299  0.0119 -0.0620
 9260SOL    HW129221   5.941   0.694   2.491  0.2566  0.1527 -0.2286
 9260SOL    HW229222   5.997   0.683   2.351  0.4993 -0.0918 -0.1138
 9261SOL     OW29223   4.182   5.000   9.550  0.2756 -0.2055 -0.2694
 9261SOL    HW129224   4.214   5.080   9.593  1.6794 -0.0932 -1.4618
 9261SOL    HW229225   4.114   4.967   9.609 -0.3405  1.8611  0.2533
 9262SOL     OW29226   6.601   7.760   7.230 -0.5552  0.7488  0.4289
 9262SOL    HW129227   6.591   7.699   7.157  2.1327  1.2081 -0.4272
 9262SOL    HW229228   6.599   7.846   7.190  0.8381  1.0088  0.8678
 9263SOL     OW29229   1.764   7.414   4.510 -0.3835 -0.3324 -0.3797
 9263SOL    HW129230   1.766   7.510   4.503  0.3149 -0.0765  2.2361
 9263SOL    HW229231   1.686   7.388   4.462 -1.6994  1.7654  0.4946
 9264SOL     OW29232   2.038   5.546   9.556 -0.0089  0.1322 -0.3961
 9264SOL    HW129233   2.002   5.507   9.635  1.0278  0.5734  0.3123
 9264SOL    HW229234   2.099   5.480   9.523 -0.5983 -0.1421 -0.9673
 9265SOL     OW29235   5.794   5.494   0.020 -0.8438  0.4682  0.2024
 9265SOL    HW129236   5.759   5.406   0.006 -2.4276  1.3611 -1.9542
 9265SOL    HW229237   5.803   5.531  -0.068  1.2965  1.9511  0.9449
 9266SOL     OW29238   0.479   6.644   9.805  0.6616  0.0596 -0.3190
 9266SOL    HW129239   0.420   6.719   9.809 -0.2094 -0.6436  0.6967
 9266SOL    HW229240   0.495   6.630   9.712 -0.8317  0.2278 -0.6172
 9267SOL     OW29241   5.518   2.647   2.403 -0.3350  0.4386  0.0178
 9267SOL    HW129242   5.434   2.665   2.361 -0.8394  0.8943  1.1867
 9267SOL    HW229243   5.507   2.559   2.440  0.3381 -0.2424 -1.3012
 9268SOL     OW29244   2.217   2.976  12.021 -0.2167 -0.3135  0.0601
 9268SOL    HW129245   2.137   2.995  11.972 -0.3426  0.7851  0.6624
 9268SOL    HW229246   2.190   2.909  12.084 -0.5123 -0.3834 -0.1348
 9269SOL     OW29247   6.349   2.435  10.009 -0.2611 -0.6505 -0.1215
 9269SOL    HW129248   6.439   2.416   9.982  0.2908  0.0378  1.1379
 9269SOL    HW229249   6.307   2.468   9.930  1.2150  1.0583 -0.2635
 9270SOL     OW29250   3.132   5.567   3.787  0.5041 -0.3228 -0.5738
 9270SOL    HW129251   3.039   5.554   3.803  0.4944  1.2218  0.8136
 9270SOL    HW229252   3.175   5.502   3.843  0.3035 -1.8211 -2.0594
 9271SOL     OW29253   7.297   6.699  12.469  0.3446  0.2914  0.2802
 9271SOL    HW129254   7.343   6.781  12.484  0.6158  0.0191  1.0279
 9271SOL    HW229255   7.313   6.648  12.549  0.9753 -0.8594 -0.5423
 9272SOL     OW29256   2.340   0.124   5.399  0.1505 -0.3104  0.0605
 9272SOL    HW129257   2.261   0.105   5.348  0.6051 -0.2809 -0.6804
 9272SOL    HW229258   2.374   0.205   5.361 -0.1122  0.3380  1.1745
 9273SOL     OW29259   7.929   0.402   9.870  0.2155  0.4769  0.7203
 9273SOL    HW129260   8.000   0.340   9.890 -0.0330 -0.2350 -0.5175
 9273SOL    HW229261   7.946   0.428   9.779  0.2408  2.1479  1.1877
 9274SOL     OW29262   0.470   2.827   2.834  0.1132  0.1223 -0.3458
 9274SOL    HW129263   0.434   2.898   2.887 -1.5173  0.8629 -2.3082
 9274SOL    HW229264   0.564   2.826   2.856 -0.4615  0.2763  2.5586
 9275SOL     OW29265   6.414   4.081   5.670 -0.5896 -0.1129  0.2402
 9275SOL    HW129266   6.434   4.010   5.609 -0.3459  0.4556 -0.3538
 9275SOL    HW229267   6.319   4.081   5.677 -0.6710  0.3037 -0.7456
 9276SOL     OW29268   6.358   3.180   6.032 -0.8274 -0.4017  0.5430
 9276SOL    HW129269   6.338   3.153   6.122  1.1752 -1.0720  0.8326
 9276SOL    HW229270   6.444   3.143   6.014 -0.7794  0.4959 -1.3487
 9277SOL     OW29271   1.486   6.704   4.356 -0.2411  0.8478  0.4349
 9277SOL    HW129272   1.395   6.715   4.329 -0.1050  2.6625  0.5982
 9277SOL    HW229273   1.509   6.787   4.398  0.9661 -0.2055  1.9652
 9278SOL     OW29274   6.080   5.866   5.398 -0.2475 -0.0288 -0.0468
 9278SOL    HW129275   6.102   5.799   5.463  1.1541  1.2693  0.8921
 9278SOL    HW229276   5.985   5.871   5.399 -0.2715  1.3672  3.4704
 9279SOL     OW29277   5.926   4.542   0.431 -0.1223  0.1577  0.5605
 9279SOL    HW129278   6.005   4.507   0.472 -0.5294  0.0459  1.2600
 9279SOL    HW229279   5.862   4.545   0.501 -0.5534  0.8643  0.1429
 9280SOL     OW29280   2.813   5.828   5.240  0.6443  0.3089  0.5906
 9280SOL    HW129281   2.772   5.914   5.231  0.0332 -0.0179  0.2481
 9280SOL    HW229282   2.741   5.768   5.256  0.9738 -0.2819 -0.0727
 9281SOL     OW29283   4.962   5.269   3.046  0.4475 -0.2306  0.4547
 9281SOL    HW129284   5.057   5.264   3.042  0.5047  0.9168 -0.1715
 9281SOL    HW229285   4.944   5.336   3.113  0.0996 -0.0049  0.1397
 9282SOL     OW29286   3.475   6.108   2.621  0.4744 -0.3210  0.1826
 9282SOL    HW129287   3.566   6.088   2.601  0.1117  0.8969 -3.3557
 9282SOL    HW229288   3.477   6.198   2.654  0.5031  0.1917 -1.1493
 9283SOL     OW29289   6.884   6.262   2.316  0.3249  0.3209  0.2292
 9283SOL    HW129290   6.962   6.280   2.264 -0.3819 -0.0351 -0.9908
 9283SOL    HW229291   6.912   6.277   2.407  1.6812  0.6066 -0.2093
 9284SOL     OW29292   2.563   0.124   9.030  0.2955 -0.0203  0.3309
 9284SOL    HW129293   2.647   0.151   8.994 -1.1059  1.6032 -1.9782
 9284SOL    HW229294   2.521   0.205   9.056 -1.0464 -0.6928  0.3304
 9285SOL     OW29295   1.419   1.427   5.320 -0.4713  0.3515 -0.4517
 9285SOL    HW129296   1.483   1.357   5.307  0.3819  0.9619  0.3221
 9285SOL    HW229297   1.337   1.381   5.341  0.5256 -0.4443  2.1257
 9286SOL     OW29298   1.916   2.605   6.875 -0.1629 -0.2375  0.6514
 9286SOL    HW129299   1.946   2.518   6.847 -0.7970 -0.2938  0.1039
 9286SOL    HW229300   1.992   2.662   6.863 -0.1237 -0.4631 -0.2693
 9287SOL     OW29301   7.390   7.761   3.603 -0.0474  0.1759 -0.3104
 9287SOL    HW129302   7.366   7.713   3.524  0.3562 -2.2757  0.9829
 9287SOL    HW229303   7.306   7.782   3.644 -0.2158 -0.6742 -0.2008
 9288SOL     OW29304   3.658   2.321   7.575  0.2647 -0.2575 -0.1361
 9288SOL    HW129305   3.717   2.251   7.604  1.8330  1.3668  0.7473
 9288SOL    HW229306   3.608   2.343   7.653 -1.1020 -1.1565 -0.7148
 9289SOL     OW29307   5.554   6.004   8.237  0.1550  0.3004  0.8368
 9289SOL    HW129308   5.482   6.065   8.254 -0.6460  0.0276 -1.2171
 9289SOL    HW229309   5.628   6.061   8.212  0.1495  0.5060  1.2731
 9290SOL     OW29310   4.031   2.873   8.950 -0.1420 -0.9720  0.3059
 9290SOL    HW129311   4.016   2.857   8.857 -0.9184 -0.7396  0.3891
 9290SOL    HW229312   4.125   2.857   8.962  0.5543  1.6662 -1.0750
 9291SOL     OW29313   4.170   6.627   6.918 -0.3449 -0.3122  0.1380
 9291SOL    HW129314   4.106   6.601   6.984 -0.7765 -2.2149 -0.9689
 9291SOL    HW229315   4.191   6.546   6.871  2.6111  0.2884  0.2168
 9292SOL     OW29316   2.299   5.952   4.700 -0.3818  0.0009 -0.1637
 9292SOL    HW129317   2.216   5.972   4.742  0.0010 -0.2367  0.7324
 9292SOL    HW229318   2.335   6.038   4.676  0.6305  0.3862  2.4372
 9293SOL     OW29319   0.660   3.669   0.929  0.1419 -0.1041 -0.6538
 9293SOL    HW129320   0.645   3.763   0.930  0.8767  0.0376 -1.3306
 9293SOL    HW229321   0.723   3.656   0.858  0.4082 -1.0470 -0.2651
 9294SOL     OW29322   2.909   2.192   0.323 -0.0982  0.0840 -0.6294
 9294SOL    HW129323   2.863   2.160   0.245 -0.1765  0.6652 -0.8321
 9294SOL    HW229324   2.981   2.245   0.288 -0.3939  0.7118 -0.3148
 9295SOL     OW29325   1.441   1.191   9.814 -0.2357 -0.7022 -0.0138
 9295SOL    HW129326   1.382   1.220   9.883  0.4730 -1.6721  1.0459
 9295SOL    HW229327   1.503   1.132   9.858 -0.0903 -1.7966 -1.5624
 9296SOL     OW29328   2.253   6.690  12.456  0.2663 -0.2137  0.1572
 9296SOL    HW129329   2.341   6.717  12.428  0.2933 -0.6708 -0.1961
 9296SOL    HW229330   2.195   6.759  12.422  0.3408 -0.5677 -0.6978
 9297SOL     OW29331   6.834   0.638   1.037  0.1741  0.0748 -0.1317
 9297SOL    HW129332   6.908   0.697   1.054  0.8097 -0.7818  0.1303
 9297SOL    HW229333   6.763   0.675   1.088 -0.2589  2.1749 -2.0770
 9298SOL     OW29334   6.787   3.503   3.801  0.0337  0.1180  0.6670
 9298SOL    HW129335   6.730   3.432   3.770 -0.2713  0.2553  0.9071
 9298SOL    HW229336   6.865   3.496   3.747 -0.4147  0.2424 -0.0035
 9299SOL     OW29337   7.401   1.495   1.535 -0.3983 -0.7748  0.5291
 9299SOL    HW129338   7.440   1.408   1.528  2.3664  0.4542 -1.2825
 9299SOL    HW229339   7.362   1.511   1.449 -0.0349  0.1123  0.5134
 9300SOL     OW29340   2.598   6.819   8.205 -0.0189 -0.2802  0.2909
 9300SOL    HW129341   2.566   6.905   8.230 -2.4797 -1.1835  0.4942
 9300SOL    HW229342   2.610   6.772   8.288  0.1950 -0.5051  0.1364
 9301SOL     OW29343   2.122   2.695   7.534 -0.0404  0.2831 -0.9808
 9301SOL    HW129344   2.162   2.777   7.561 -1.7310  0.7051  0.4614
 9301SOL    HW229345   2.122   2.641   7.613 -0.3748 -0.5091 -1.5071
 9302SOL     OW29346   7.890   1.294   9.267  0.0993 -0.6028  0.2185
 9302SOL    HW129347   7.969   1.322   9.313 -1.3773  0.7469  2.1256
 9302SOL    HW229348   7.870   1.208   9.303 -0.9066  0.3384  2.0681
 9303SOL     OW29349   3.608   1.336   1.018 -0.2426  0.1501  0.6896
 9303SOL    HW129350   3.682   1.376   1.065 -0.9521 -0.7801  2.6983
 9303SOL    HW229351   3.641   1.251   0.990  0.5473  1.1359 -1.6331
 9304SOL     OW29352   3.497   0.065   9.738  0.0595 -0.2821  0.2586
 9304SOL    HW129353   3.448   0.056   9.820 -0.5539  1.1777  0.0745
 9304SOL    HW229354   3.468   0.148   9.702  1.4789 -0.1757 -0.6895
 9305SOL     OW29355   2.491   1.588  12.043  0.3918  0.0323 -0.2380
 9305SOL    HW129356   2.530   1.573  11.957  0.5687  1.7441 -0.4955
 9305SOL    HW229357   2.439   1.509  12.060  0.6349 -0.4848 -1.7469
 9306SOL     OW29358   4.098   4.412  10.301 -0.5935 -0.8058  0.3386
 9306SOL    HW129359   4.180   4.461  10.308 -0.2653 -1.1580 -0.7770
 9306SOL    HW229360   4.070   4.399  10.391 -1.0865  2.0609  0.7030
 9307SOL     OW29361   0.836   0.394   4.170 -0.5066  0.2536 -0.3615
 9307SOL    HW129362   0.853   0.376   4.077 -0.0828 -1.3312  0.0051
 9307SOL    HW229363   0.883   0.476   4.187  0.5454 -0.1389 -1.2291
 9308SOL     OW29364   1.233   4.503  10.178  0.8382  0.8379  0.2936
 9308SOL    HW129365   1.175   4.579  10.176  1.3378  1.2245  0.2530
 9308SOL    HW229366   1.201   4.451  10.252  0.1633  0.8139 -0.0043
 9309SOL     OW29367   0.139   3.075   9.824  0.0721 -0.0535  0.5489
 9309SOL    HW129368   0.110   3.021   9.897 -1.8186 -1.1718 -0.9143
 9309SOL    HW229369   0.167   3.013   9.757 -0.3585  0.8258 -0.4825
 9310SOL     OW29370   2.383   1.246   7.432 -0.4800 -0.0960  0.3582
 9310SOL    HW129371   2.294   1.229   7.402 -0.3369 -0.1403 -0.0526
 9310SOL    HW229372   2.388   1.205   7.518 -0.2642 -1.8582 -0.4490
 9311SOL     OW29373   5.486   7.052   7.132  0.1584  0.1865  0.0268
 9311SOL    HW129374   5.566   7.090   7.095  0.5848  0.0992  0.8097
 9311SOL    HW229375   5.499   7.060   7.227 -0.4423 -0.4845  0.1707
 9312SOL     OW29376   5.592   1.582   4.817  0.4794 -0.0976 -0.7597
 9312SOL    HW129377   5.579   1.615   4.906 -0.6384  0.6379 -1.1766
 9312SOL    HW229378   5.530   1.509   4.809  1.0477 -0.5889 -0.7226
 9313SOL     OW29379   2.912   6.161   7.752 -0.0020 -0.7230  0.5593
 9313SOL    HW129380   2.887   6.095   7.817 -1.0089 -1.7298 -0.7915
 9313SOL    HW229381   2.956   6.111   7.683 -0.9348 -0.0232 -0.5728
 9314SOL     OW29382   7.123   2.837   7.897 -0.4208 -0.2701 -0.3736
 9314SOL    HW129383   7.042   2.882   7.921  0.5597  2.5854 -2.0025
 9314SOL    HW229384   7.107   2.806   7.808  0.2374  0.3037 -0.6997
 9315SOL     OW29385   3.698   5.473   3.553  0.1436 -0.9689  0.3389
 9315SOL    HW129386   3.659   5.390   3.525  1.7576 -2.0593  1.1264
 9315SOL    HW229387   3.782   5.448   3.590  0.5169  1.0092  0.9454
 9316SOL     OW29388   0.778   7.290   4.925  0.0157  0.0587  0.4814
 9316SOL    HW129389   0.772   7.241   5.007  1.3018  1.1921  1.2885
 9316SOL    HW229390   0.733   7.372   4.942 -0.6403 -0.1245 -0.3135
 9317SOL     OW29391   6.107   1.695   1.399 -0.4209 -0.4957  0.1379
 9317SOL    HW129392   6.184   1.699   1.455 -1.1355  1.4388  1.0700
 9317SOL    HW229393   6.142   1.679   1.311  0.9497 -0.7336  0.7074
 9318SOL     OW29394   3.987   6.473   7.458 -0.4760  0.4628 -0.0901
 9318SOL    HW129395   3.920   6.449   7.522 -0.4716  1.4252  0.2904
 9318SOL    HW229396   4.033   6.546   7.498 -0.1462  0.7564 -0.9849
 9319SOL     OW29397   0.017   5.121  11.505  0.1468  0.0088  0.3071
 9319SOL    HW129398  -0.070   5.161  11.516 -0.2853 -0.9703  0.5989
 9319SOL    HW229399  -0.002   5.031  11.479  1.0995  0.0970 -0.7704
 9320SOL     OW29400   0.140   3.461   4.250 -0.1208 -0.1471 -0.3180
 9320SOL    HW129401   0.081   3.536   4.247 -0.9680 -0.7612  0.3225
 9320SOL    HW229402   0.084   3.388   4.276  1.1638 -0.4700  1.8471
 9321SOL     OW29403   3.011   0.061   3.293  0.3535 -0.4683  0.5441
 9321SOL    HW129404   3.083   0.123   3.297 -0.9562  1.1212  0.4301
 9321SOL    HW229405   2.974   0.072   3.206 -1.5134  0.5273  1.4150
 9322SOL     OW29406   5.569   4.825   9.604 -0.1380 -0.0918 -0.3708
 9322SOL    HW129407   5.600   4.750   9.552 -0.5541 -0.2335 -0.4185
 9322SOL    HW229408   5.642   4.886   9.603  0.7547 -1.0820  0.8483
 9323SOL     OW29409   6.065   5.862   2.028 -0.0398  0.1851  0.3974
 9323SOL    HW129410   6.089   5.900   2.112  1.9173  1.5201 -0.6782
 9323SOL    HW229411   6.076   5.933   1.965 -0.6498 -0.9933 -1.1023
 9324SOL     OW29412   5.926   1.359   8.146 -0.3593  0.3305 -0.6939
 9324SOL    HW129413   5.858   1.309   8.100  0.0424  0.2330 -1.1847
 9324SOL    HW229414   5.883   1.442   8.168 -1.2093 -0.4108  0.6114
 9325SOL     OW29415   2.008   6.500  11.042 -0.0250 -0.2203 -0.0575
 9325SOL    HW129416   2.073   6.547  11.094  0.7589 -1.0277 -0.2694
 9325SOL    HW229417   1.985   6.559  10.971 -1.1852  0.9433  1.2333
 9326SOL     OW29418   3.335   0.691   5.240 -0.8154 -0.9279 -0.1335
 9326SOL    HW129419   3.335   0.751   5.166 -0.4730  0.0738  0.6644
 9326SOL    HW229420   3.421   0.702   5.280 -1.3164 -0.8156  0.9330
 9327SOL     OW29421   6.507   2.409   9.625  0.6891 -0.1315  0.1022
 9327SOL    HW129422   6.549   2.354   9.559  0.9543  1.5430 -1.1713
 9327SOL    HW229423   6.418   2.373   9.632  0.8450 -0.7075 -0.7320
 9328SOL     OW29424   3.876   3.663   0.005 -0.2229  0.2371  0.2721
 9328SOL    HW129425   3.964   3.695  -0.015  0.0608 -0.1554  0.8516
 9328SOL    HW229426   3.882   3.568  -0.005 -0.5110  0.1873  0.5672
 9329SOL     OW29427   6.288   0.784   9.622 -0.5642 -0.0737 -0.0104
 9329SOL    HW129428   6.368   0.736   9.602 -1.3552 -0.8590 -1.4405
 9329SOL    HW229429   6.304   0.821   9.709  1.7422  0.6775 -0.6648
 9330SOL     OW29430   7.443   7.284   7.788 -0.5436 -0.0880 -0.2448
 9330SOL    HW129431   7.469   7.244   7.705  0.9244 -0.4338  0.3611
 9330SOL    HW229432   7.399   7.213   7.835 -1.7271  0.2107 -0.8403
 9331SOL     OW29433   5.390   3.002   3.529 -0.1160 -0.3133 -0.4250
 9331SOL    HW129434   5.360   3.093   3.536  1.1376  0.2490 -1.7976
 9331SOL    HW229435   5.363   2.975   3.441 -2.3808 -2.0661  0.6894
 9332SOL     OW29436   2.604   2.871   3.319  0.2625 -0.2666  0.0377
 9332SOL    HW129437   2.629   2.796   3.374  1.3607  0.6375  0.8217
 9332SOL    HW229438   2.553   2.927   3.377  1.4546  0.7093  0.1896
 9333SOL     OW29439   7.580   4.216  10.213  0.5221 -0.4342  0.4906
 9333SOL    HW129440   7.522   4.154  10.169  0.1739  1.0089 -1.1939
 9333SOL    HW229441   7.528   4.296  10.220  1.4717  0.1360  1.2051
 9334SOL     OW29442   6.409   3.511   8.776 -0.3384 -0.2962 -0.3293
 9334SOL    HW129443   6.359   3.535   8.698  0.2437 -0.4896 -0.7596
 9334SOL    HW229444   6.468   3.585   8.791  0.1407 -0.6292 -0.5633
 9335SOL     OW29445   0.956   6.044   5.501 -0.0093 -0.2437 -0.2501
 9335SOL    HW129446   0.933   6.033   5.408 -2.2597 -0.4531  0.2740
 9335SOL    HW229447   1.046   6.076   5.499 -0.2471  0.5425 -2.5516
 9336SOL     OW29448   1.393   0.321   2.528  0.2612  0.7719  0.0753
 9336SOL    HW129449   1.415   0.309   2.621 -0.2480  1.3411  0.2848
 9336SOL    HW229450   1.394   0.233   2.491 -0.4385  0.4277  0.8418
 9337SOL     OW29451   7.083   6.269   4.384  0.2294 -0.1198 -0.8490
 9337SOL    HW129452   7.031   6.253   4.304  0.7069 -1.4693 -0.9180
 9337SOL    HW229453   7.159   6.318   4.353 -0.6575  1.2995 -0.8517
 9338SOL     OW29454   7.007   6.749   0.293  0.0272 -0.2504  0.1445
 9338SOL    HW129455   6.970   6.820   0.347 -0.9074  0.7331 -1.7009
 9338SOL    HW229456   7.066   6.703   0.352 -0.0232  1.5124  1.6700
 9339SOL     OW29457   7.195   1.539   1.981  0.1975 -0.2191 -0.3765
 9339SOL    HW129458   7.190   1.560   1.888 -1.4546 -0.8333 -0.4764
 9339SOL    HW229459   7.113   1.574   2.017  1.3640  1.1000  1.1063
 9340SOL     OW29460   7.761   6.913   3.286 -0.2851  0.1990 -0.7302
 9340SOL    HW129461   7.739   6.912   3.193  0.3747 -0.8036 -0.8952
 9340SOL    HW229462   7.857   6.918   3.287 -0.2487 -0.4481 -0.1342
 9341SOL     OW29463   1.475   5.285   7.324 -0.0700  0.0528 -0.7424
 9341SOL    HW129464   1.385   5.279   7.354  0.6365 -2.6593  1.1626
 9341SOL    HW229465   1.485   5.216   7.260  0.4647  0.9043 -1.6130
 9342SOL     OW29466   5.440   6.739   6.448 -0.0768  0.4428 -0.4269
 9342SOL    HW129467   5.378   6.768   6.514  0.5678 -0.1230  0.4454
 9342SOL    HW229468   5.399   6.662   6.408  0.3874 -0.4160  0.6987
 9343SOL     OW29469   3.021   5.278  11.006 -0.3130  0.9492  0.6228
 9343SOL    HW129470   3.107   5.248  10.977 -0.9189 -1.4688  1.0366
 9343SOL    HW229471   2.979   5.314  10.928 -0.6333 -2.2424 -0.8475
 9344SOL     OW29472   6.623   4.936   9.055  0.1897  0.4180 -0.0268
 9344SOL    HW129473   6.600   4.949   8.963 -0.7156 -1.6077 -0.1424
 9344SOL    HW229474   6.572   4.859   9.082  1.5899  0.0458  1.7420
 9345SOL     OW29475   1.821   0.584   0.531 -0.3526  0.1230 -0.3252
 9345SOL    HW129476   1.760   0.593   0.458 -1.7140 -0.9997  0.6006
 9345SOL    HW229477   1.831   0.672   0.565 -0.4347  0.5190 -1.2939
 9346SOL     OW29478   1.836   2.756   7.118 -0.2948 -0.6051 -0.3813
 9346SOL    HW129479   1.887   2.838   7.116 -0.2352 -0.6090  0.6662
 9346SOL    HW229480   1.841   2.724   7.028  0.6828 -0.0638 -0.5450
 9347SOL     OW29481   4.177   6.131  12.218  0.1128  0.4075 -0.3490
 9347SOL    HW129482   4.145   6.221  12.227 -1.1183  0.0638 -1.0888
 9347SOL    HW229483   4.272   6.140  12.213  0.0387  1.6202  0.1239
 9348SOL     OW29484   1.219   4.426   0.022  0.7245 -0.5128 -0.0895
 9348SOL    HW129485   1.230   4.509   0.069 -0.3076 -0.0137 -0.7019
 9348SOL    HW229486   1.153   4.378   0.073  1.9562 -1.3584  0.7626
 9349SOL     OW29487   2.031   3.920   6.679  0.3860 -0.0326 -0.0932
 9349SOL    HW129488   2.004   3.993   6.734  0.2933 -1.0531  1.2780
 9349SOL    HW229489   1.989   3.843   6.718  1.6401 -1.0295 -0.6006
 9350SOL     OW29490   6.365   7.682   2.230  0.4141  0.1583 -0.3488
 9350SOL    HW129491   6.349   7.613   2.295 -1.5806  0.5876 -0.3450
 9350SOL    HW229492   6.461   7.683   2.221  0.5475 -2.3935 -0.1249
 9351SOL     OW29493   2.953   3.012   7.346  0.0532 -0.2662  0.0973
 9351SOL    HW129494   3.048   3.022   7.336 -0.0584  0.1410 -0.6891
 9351SOL    HW229495   2.919   3.101   7.339 -0.3718 -0.3862  0.6226
 9352SOL     OW29496   2.272   1.102  10.309  0.2757  0.0596  0.1203
 9352SOL    HW129497   2.210   1.032  10.331 -1.0201  0.9654 -0.5484
 9352SOL    HW229498   2.327   1.065  10.240  0.2839 -0.6318  0.4855
 9353SOL     OW29499   5.547   3.505   3.329  0.3775 -0.2229 -0.6742
 9353SOL    HW129500   5.495   3.465   3.259 -0.4351 -1.2443  0.4689
 9353SOL    HW229501   5.492   3.576   3.363  0.1267 -0.6690 -0.1224
 9354SOL     OW29502   2.076   2.551   7.306  0.0384  0.2463 -0.1332
 9354SOL    HW129503   2.169   2.573   7.305 -0.3088  2.0378  1.2097
 9354SOL    HW229504   2.053   2.548   7.399 -0.8302 -2.2734 -0.3746
 9355SOL     OW29505   7.253   0.489   7.806  0.2873 -0.0739 -0.0362
 9355SOL    HW129506   7.195   0.445   7.743  0.9826 -2.7022  1.0080
 9355SOL    HW229507   7.197   0.555   7.848 -1.2583 -0.8428 -0.7953
 9356SOL     OW29508   3.382   4.173   1.671  0.2436  0.1575  0.0958
 9356SOL    HW129509   3.388   4.171   1.576 -0.8381  0.6769 -0.0039
 9356SOL    HW229510   3.291   4.151   1.690  0.4191  0.1679  1.0028
 9357SOL     OW29511   1.589   5.430   9.854  0.5250 -0.0811 -0.6109
 9357SOL    HW129512   1.625   5.499   9.798  0.3669  0.3164 -0.2291
 9357SOL    HW229513   1.660   5.409   9.914  0.7524 -0.6265 -1.0579
 9358SOL     OW29514   0.120   7.154   3.841 -0.0394  0.7117  0.4884
 9358SOL    HW129515   0.037   7.190   3.872 -0.0139  1.3962 -0.2185
 9358SOL    HW229516   0.108   7.143   3.747  0.0470 -0.9017  0.6219
 9359SOL     OW29517   7.060   6.816   1.032  0.0594  0.5893  0.4551
 9359SOL    HW129518   7.050   6.878   1.104 -2.9844  0.0614  0.6230
 9359SOL    HW229519   7.100   6.739   1.072 -0.9391  0.5717  1.4952
 9360SOL     OW29520   6.083   2.054   8.818  0.0459  0.2056 -0.1134
 9360SOL    HW129521   6.131   1.978   8.785  0.7520  0.4467  0.3580
 9360SOL    HW229522   6.144   2.127   8.808 -0.2429  0.5235  0.4375
 9361SOL     OW29523   6.891   6.647   2.454  0.1623 -0.0764  0.1502
 9361SOL    HW129524   6.987   6.650   2.456  0.1763 -0.1561 -0.3207
 9361SOL    HW229525   6.870   6.615   2.366 -0.3095  0.6950 -0.0315
 9362SOL     OW29526   3.191   6.377  11.151  0.1151 -0.5044 -0.2081
 9362SOL    HW129527   3.236   6.460  11.171 -0.4267  0.2388 -1.8865
 9362SOL    HW229528   3.252   6.331  11.093  0.3324 -1.2114  0.5743
 9363SOL     OW29529   2.443   1.672   9.624 -0.5994  0.1091  0.0254
 9363SOL    HW129530   2.447   1.701   9.715  0.1053 -1.5276  0.5575
 9363SOL    HW229531   2.352   1.643   9.612 -0.5072 -0.3771  0.4568
 9364SOL     OW29532   4.642   6.453   6.861 -0.3190 -0.0736 -0.1172
 9364SOL    HW129533   4.720   6.508   6.852  1.1830 -1.5827  2.5033
 9364SOL    HW229534   4.569   6.515   6.859  1.1896  1.9263  1.4293
 9365SOL     OW29535   5.757   1.401   4.022  0.1241  0.0200 -0.1979
 9365SOL    HW129536   5.770   1.424   4.115  1.0520  0.5451 -0.4443
 9365SOL    HW229537   5.668   1.367   4.019 -0.0458  0.3044  0.8360
 9366SOL     OW29538   1.760   5.023   5.167 -0.0969 -0.0740  0.3012
 9366SOL    HW129539   1.754   5.006   5.261  0.3326  0.2416  0.3884
 9366SOL    HW229540   1.697   5.093   5.151  0.0996  0.1297  0.4194
 9367SOL     OW29541   2.872   0.933   6.769  0.0613 -0.4763  0.6444
 9367SOL    HW129542   2.829   0.852   6.739 -0.5294 -0.8861  2.4869
 9367SOL    HW229543   2.885   0.920   6.863  2.2096  0.5829  0.5515
 9368SOL     OW29544   6.108   2.606   6.232  0.0797  0.1874 -0.4996
 9368SOL    HW129545   6.030   2.627   6.182 -0.3431 -2.9060 -1.3830
 9368SOL    HW229546   6.161   2.553   6.173  1.9970  0.6604  0.6977
 9369SOL     OW29547   2.638   2.663   9.687  0.0853  0.3843  0.0212
 9369SOL    HW129548   2.727   2.641   9.714 -1.1896 -0.1069  4.6570
 9369SOL    HW229549   2.649   2.733   9.622  3.7726 -0.5638 -0.6293
 9370SOL     OW29550   7.283   3.000  10.184  0.3148 -0.1585  0.0089
 9370SOL    HW129551   7.322   2.913  10.179  0.3743 -0.1079 -0.4601
 9370SOL    HW229552   7.201   2.987  10.233 -0.1410 -0.6532 -0.8510
 9371SOL     OW29553   6.276   4.509   4.162 -0.6115 -0.8387 -0.3065
 9371SOL    HW129554   6.282   4.418   4.132  0.4589 -0.8792 -0.0219
 9371SOL    HW229555   6.266   4.503   4.257  0.1432 -0.6620 -0.2078
 9372SOL     OW29556   2.151   5.989   1.899 -0.5217  0.3008 -0.2394
 9372SOL    HW129557   2.192   5.902   1.902 -0.6951  0.2479  1.9099
 9372SOL    HW229558   2.097   5.993   1.978 -1.3312  1.9940 -0.8268
 9373SOL     OW29559   7.599   3.153   4.465  0.0413  0.4197 -0.2083
 9373SOL    HW129560   7.617   3.229   4.522  1.8691 -0.6014  0.6815
 9373SOL    HW229561   7.582   3.081   4.526  2.0949 -0.7117 -0.8631
 9374SOL     OW29562   3.492   0.188   3.862  0.4616 -0.2536  0.4906
 9374SOL    HW129563   3.470   0.096   3.879  0.2165 -0.2925 -0.0072
 9374SOL    HW229564   3.587   0.190   3.865  0.5207 -0.7373 -0.4794
 9375SOL     OW29565   0.611   6.771   9.240  0.2697  0.5722 -0.1701
 9375SOL    HW129566   0.592   6.725   9.158  0.9148  0.9204 -0.5297
 9375SOL    HW229567   0.696   6.736   9.267 -0.3654 -0.2225  0.8553
 9376SOL     OW29568   1.218   6.119   6.057  0.4579 -0.0893 -0.1210
 9376SOL    HW129569   1.245   6.211   6.061 -0.5111  0.1997 -0.0062
 9376SOL    HW229570   1.181   6.108   5.970 -1.2704  0.1835  0.5312
 9377SOL     OW29571   5.214   1.866   5.946 -0.2701 -0.1857 -0.2250
 9377SOL    HW129572   5.239   1.898   5.860 -0.2296  1.4690  0.3566
 9377SOL    HW229573   5.290   1.816   5.976 -0.6095 -1.5025 -1.4531
 9378SOL     OW29574   1.572   0.445   9.008 -0.2517 -0.3988 -0.0900
 9378SOL    HW129575   1.521   0.364   9.006 -0.8074 -0.0697  0.3712
 9378SOL    HW229576   1.653   0.421   9.054  0.0041 -0.9119 -0.7914
 9379SOL     OW29577   3.373   1.397   9.738 -0.2034 -0.0136 -0.1221
 9379SOL    HW129578   3.373   1.324   9.676  0.4379  0.2171 -0.4106
 9379SOL    HW229579   3.423   1.465   9.693  0.1342  0.2119  0.5890
 9380SOL     OW29580   6.010   2.026   7.432 -0.1554  0.0491  0.1359
 9380SOL    HW129581   6.051   2.016   7.346 -1.9863  0.0719 -0.7857
 9380SOL    HW229582   6.049   2.106   7.468 -0.1467  0.6594 -1.1655
 9381SOL     OW29583   0.723   7.173   0.619 -0.0140 -0.0671 -0.2363
 9381SOL    HW129584   0.697   7.109   0.553  2.0814  1.0488 -2.2539
 9381SOL    HW229585   0.664   7.248   0.605 -0.7373 -0.4935  0.4020
 9382SOL     OW29586   0.372   5.002   4.164 -0.2119 -0.0956 -0.1185
 9382SOL    HW129587   0.437   5.072   4.171 -0.3017 -0.0322  0.0823
 9382SOL    HW229588   0.289   5.044   4.188 -0.1752 -0.4077  0.5572
 9383SOL     OW29589   6.005   2.908   4.901 -0.3640 -0.1525 -0.0574
 9383SOL    HW129590   5.986   2.992   4.861  0.1420 -0.3160 -0.6644
 9383SOL    HW229591   6.006   2.925   4.995 -0.3042  0.5086 -0.1759
 9384SOL     OW29592   7.818   3.412   7.037 -0.4173 -0.3060  0.2591
 9384SOL    HW129593   7.776   3.433   7.121 -1.6850 -0.7187 -0.2355
 9384SOL    HW229594   7.809   3.492   6.986 -0.4564 -0.3360  0.2181
 9385SOL     OW29595   5.719   5.086   1.708  0.1603 -0.5391 -0.2293
 9385SOL    HW129596   5.776   5.016   1.676  3.4841  0.6835  2.5199
 9385SOL    HW229597   5.665   5.044   1.775  1.4882 -0.7116  0.7598
 9386SOL     OW29598   7.628   7.050   7.957  0.1071  0.0372 -0.1367
 9386SOL    HW129599   7.649   7.117   8.023  1.2152 -0.0406 -0.3969
 9386SOL    HW229600   7.532   7.045   7.959 -0.0131  1.6782 -0.1606
 9387SOL     OW29601   1.738   0.642  11.167 -0.1288 -0.7465 -0.1749
 9387SOL    HW129602   1.801   0.714  11.160  1.5064 -2.1235 -0.3887
 9387SOL    HW229603   1.680   0.667  11.239  1.0174  0.3334  0.4034
 9388SOL     OW29604   5.594   0.266   1.024 -0.3162  0.2936  0.2231
 9388SOL    HW129605   5.614   0.355   0.994 -0.2815  0.1571 -0.1599
 9388SOL    HW229606   5.560   0.221   0.947 -0.5622  0.0432  0.4754
 9389SOL     OW29607   0.185   0.398   5.941 -0.0877 -0.3645 -0.7570
 9389SOL    HW129608   0.253   0.418   5.877  0.0416 -1.5333 -1.0147
 9389SOL    HW229609   0.135   0.479   5.950  1.6912  0.6962 -0.1052
 9390SOL     OW29610   6.187   4.893   6.791  0.2039  0.2640  0.2544
 9390SOL    HW129611   6.200   4.810   6.838 -1.8223 -0.5757 -0.5227
 9390SOL    HW229612   6.255   4.951   6.824  0.7596 -1.2511  1.9255
 9391SOL     OW29613   2.851   6.237   0.890  0.5990  0.2010 -0.1843
 9391SOL    HW129614   2.788   6.201   0.952  0.6402  0.8678  0.2449
 9391SOL    HW229615   2.858   6.329   0.912  0.7854  0.4044 -1.0399
 9392SOL     OW29616   1.857   6.362   2.048 -0.0945 -0.5787 -0.1092
 9392SOL    HW129617   1.883   6.429   2.111 -0.6673 -1.8433  1.5352
 9392SOL    HW229618   1.846   6.410   1.966  0.9172  1.0787  0.6686
 9393SOL     OW29619   4.197   4.582   0.103  0.1688 -0.2526  0.0933
 9393SOL    HW129620   4.161   4.493   0.103 -1.9004  0.5140 -1.2236
 9393SOL    HW229621   4.124   4.637   0.131  1.7967  0.9553  2.2443
 9394SOL     OW29622   0.630   5.876   8.679 -0.6351  0.8588  0.1255
 9394SOL    HW129623   0.612   5.934   8.753  0.3220  0.0112  1.0418
 9394SOL    HW229624   0.725   5.878   8.670 -0.6741  0.2019 -0.4834
 9395SOL     OW29625   3.496   2.840   9.747 -0.2624  0.2779 -0.0362
 9395SOL    HW129626   3.429   2.906   9.765  1.2460  1.6804  0.7563
 9395SOL    HW229627   3.448   2.759   9.735 -1.9819  0.8510  2.2993
 9396SOL     OW29628   7.475   0.457  10.822  0.4668  0.1794  0.0959
 9396SOL    HW129629   7.545   0.518  10.846 -0.3491  1.1270  0.1353
 9396SOL    HW229630   7.520   0.374  10.805  1.8608  1.2758 -1.9538
 9397SOL     OW29631   6.807   1.340   5.745 -0.0342 -0.0009 -0.3269
 9397SOL    HW129632   6.859   1.363   5.822 -1.9491 -0.0043  1.0475
 9397SOL    HW229633   6.872   1.322   5.676  1.7233  0.5472  1.1105
 9398SOL     OW29634   5.709   6.688   6.612  0.1740 -0.0328 -0.7272
 9398SOL    HW129635   5.761   6.618   6.572 -0.8885 -0.5833 -1.1731
 9398SOL    HW229636   5.633   6.698   6.554 -0.8022 -0.0436  0.5144
 9399SOL     OW29637   3.202   1.189   2.506  0.0667  0.0688 -0.3444
 9399SOL    HW129638   3.297   1.192   2.513  0.0260  0.5056  0.0287
 9399SOL    HW229639   3.177   1.275   2.474 -0.2040 -0.0727 -0.5246
 9400SOL     OW29640   2.862   5.714  10.236  0.4420 -0.4252 -0.0961
 9400SOL    HW129641   2.875   5.637  10.181 -0.9878 -0.1008 -0.9176
 9400SOL    HW229642   2.940   5.767  10.222  0.3159 -0.5754 -1.4425
 9401SOL     OW29643   7.844   2.000   3.819  0.2739  0.3070 -0.5175
 9401SOL    HW129644   7.774   2.048   3.775  2.1107  2.7519 -0.9623
 9401SOL    HW229645   7.836   2.025   3.911 -1.6873 -2.4353  0.1844
 9402SOL     OW29646   0.067   2.756   9.416  0.1072 -0.2651  0.0400
 9402SOL    HW129647   0.058   2.812   9.338 -1.3394  1.0100  1.0594
 9402SOL    HW229648  -0.011   2.701   9.414  0.6644 -1.0746 -0.0176
 9403SOL     OW29649   0.786   2.960  10.900 -0.6089  0.7361 -0.0934
 9403SOL    HW129650   0.848   2.892  10.876 -1.7083  0.1622 -1.4276
 9403SOL    HW229651   0.732   2.972  10.822 -0.2057  3.4386 -0.0476
 9404SOL     OW29652   2.333   3.725   6.317 -0.0849 -0.2404 -0.9185
 9404SOL    HW129653   2.294   3.782   6.251 -1.9522  0.4613  0.7086
 9404SOL    HW229654   2.310   3.766   6.400  1.0558 -1.8161  0.2204
 9405SOL     OW29655   2.835   7.205   7.822 -0.7182 -0.3674  0.4000
 9405SOL    HW129656   2.832   7.294   7.787 -1.6962  0.0934  1.6002
 9405SOL    HW229657   2.815   7.149   7.746 -0.4508  0.4494 -0.2844
 9406SOL     OW29658   4.336   6.842   0.541 -0.4211  0.0249  0.4771
 9406SOL    HW129659   4.284   6.909   0.495 -1.2373  2.4944  4.4904
 9406SOL    HW229660   4.272   6.777   0.568 -0.1766 -0.6397 -0.4771
 9407SOL     OW29661   7.359   6.391   1.610 -0.1462  0.3707  0.2531
 9407SOL    HW129662   7.398   6.325   1.669  0.0785 -0.1362 -0.4547
 9407SOL    HW229663   7.284   6.347   1.571  0.3082  0.3510 -0.6197
 9408SOL     OW29664   3.599   6.704  11.206  0.4356 -0.3411  0.2624
 9408SOL    HW129665   3.683   6.694  11.162  0.6364  1.6328  0.1069
 9408SOL    HW229666   3.611   6.660  11.290  1.2311 -1.0555 -0.2049
 9409SOL     OW29667   1.124   5.810   0.844 -0.1138  0.3206 -0.2799
 9409SOL    HW129668   1.148   5.732   0.794 -0.1316  1.4319 -2.1049
 9409SOL    HW229669   1.028   5.810   0.843 -0.1528 -0.3597  0.9625
 9410SOL     OW29670   5.677   4.803   3.145  0.2334  0.1491  0.5843
 9410SOL    HW129671   5.606   4.861   3.172  1.5698  1.7171  0.8492
 9410SOL    HW229672   5.655   4.780   3.055 -1.0450 -0.1010  0.9332
 9411SOL     OW29673   0.221   3.481   2.716 -0.1689 -0.5426  0.0912
 9411SOL    HW129674   0.272   3.560   2.737 -0.5621 -0.7775  2.1281
 9411SOL    HW229675   0.187   3.498   2.628  0.7250  1.0369  0.0012
 9412SOL     OW29676   4.906   5.489   0.216 -0.1110  0.4372  0.3703
 9412SOL    HW129677   4.843   5.502   0.146 -0.5001 -0.0662  0.6222
 9412SOL    HW229678   4.919   5.577   0.253 -0.7248  0.5325  0.3700
 9413SOL     OW29679   4.731   7.329   1.984  0.2466 -0.4207 -0.4940
 9413SOL    HW129680   4.806   7.383   1.959  0.0752 -0.8179 -1.9664
 9413SOL    HW229681   4.769   7.248   2.017  0.4755  0.0165  0.3435
 9414SOL     OW29682   7.888   3.438   7.823  0.2301 -0.2451  0.3332
 9414SOL    HW129683   7.837   3.518   7.832  2.6577  1.5820 -0.8011
 9414SOL    HW229684   7.979   3.467   7.832  1.2264 -2.8093 -0.5561
 9415SOL     OW29685   5.861   7.639  11.674  0.4109  0.0149 -0.1259
 9415SOL    HW129686   5.842   7.562  11.620 -1.7248 -0.3391  1.0108
 9415SOL    HW229687   5.954   7.655  11.662  0.7617 -2.3102 -0.9657
 9416SOL     OW29688   4.250   2.559   4.882  0.0862 -0.1586  0.2034
 9416SOL    HW129689   4.312   2.514   4.824 -0.0221  0.7629 -0.6467
 9416SOL    HW229690   4.300   2.631   4.920 -0.5034  0.7631 -0.7043
 9417SOL     OW29691   6.753   2.166  10.097 -0.2919  0.1197  0.2588
 9417SOL    HW129692   6.731   2.182  10.006 -2.1628  0.0828  0.6619
 9417SOL    HW229693   6.817   2.233  10.119  0.2545  0.0608 -1.1030
 9418SOL     OW29694   0.148   3.451   3.270 -0.2580 -0.0841  0.1832
 9418SOL    HW129695   0.215   3.421   3.209 -1.6702 -2.8890 -0.1323
 9418SOL    HW229696   0.134   3.543   3.248  0.7093 -0.4846 -2.3400
 9419SOL     OW29697   5.303   7.159   6.659 -0.2016  0.2099  0.1465
 9419SOL    HW129698   5.258   7.187   6.739  0.0494  0.6696  0.1296
 9419SOL    HW229699   5.246   7.190   6.589 -0.8969 -1.0005  0.1480
 9420SOL     OW29700   6.648   4.896   5.898  0.1011  0.3338 -0.2662
 9420SOL    HW129701   6.590   4.837   5.849  0.2452  0.7230 -0.9159
 9420SOL    HW229702   6.646   4.978   5.848 -0.7065  1.1518  1.0305
 9421SOL     OW29703   6.671   6.080   8.973 -0.0809  0.7055 -0.1499
 9421SOL    HW129704   6.683   6.172   9.000 -0.8719  0.4689  1.0982
 9421SOL    HW229705   6.750   6.059   8.923  0.5678  1.7671  0.3954
 9422SOL     OW29706   6.641   1.530   6.350  0.1174  0.4446 -0.0582
 9422SOL    HW129707   6.584   1.467   6.307  0.8882  0.3637 -0.9851
 9422SOL    HW229708   6.624   1.613   6.304  1.9824  0.0683 -1.5665
 9423SOL     OW29709   3.950   4.949   9.412 -0.4122  0.3587 -0.1602
 9423SOL    HW129710   4.039   4.915   9.428 -1.8037 -2.8837  1.6402
 9423SOL    HW229711   3.916   4.894   9.341 -1.6731  0.0606  0.6476
 9424SOL     OW29712   3.207   6.180   1.941 -0.0390 -0.8777  0.0549
 9424SOL    HW129713   3.165   6.203   2.024 -1.7420 -0.6712 -0.8029
 9424SOL    HW229714   3.154   6.225   1.875  2.0312  0.0053 -1.0878
 9425SOL     OW29715   2.963   3.139   3.947 -0.1433  0.4647 -0.3454
 9425SOL    HW129716   2.879   3.167   3.984 -0.1362  0.4466 -0.3160
 9425SOL    HW229717   3.023   3.210   3.967 -0.6665  1.5626 -2.3489
 9426SOL     OW29718   2.926   2.825   0.652  0.5487 -0.0766 -0.8257
 9426SOL    HW129719   2.976   2.906   0.650  0.9906 -0.1594  2.2756
 9426SOL    HW229720   2.991   2.755   0.645  0.5612 -0.1552 -0.0527
 9427SOL     OW29721   1.519   5.316   5.485  0.0909 -0.2822  0.2471
 9427SOL    HW129722   1.565   5.389   5.526 -1.0596  1.0327 -0.6994
 9427SOL    HW229723   1.428   5.345   5.480 -0.2846 -1.5253 -0.7138
 9428SOL     OW29724   5.071   6.391   0.557  0.6359 -0.2561  0.2452
 9428SOL    HW129725   5.029   6.420   0.637 -0.2590  1.6933 -0.8581
 9428SOL    HW229726   5.015   6.320   0.525 -0.1542  0.3206  0.3194
 9429SOL     OW29727   6.964   4.224  10.800  0.3623  0.4833  0.2263
 9429SOL    HW129728   7.060   4.223  10.794  0.3280  0.5775 -0.4168
 9429SOL    HW229729   6.935   4.238  10.710 -0.2795 -0.6917  0.2316
 9430SOL     OW29730   2.301   2.522  11.074 -0.1585 -0.8790 -0.1137
 9430SOL    HW129731   2.276   2.543  10.984 -2.6758 -0.7843  0.5311
 9430SOL    HW229732   2.243   2.576  11.128  1.0335 -1.2255  1.5769
 9431SOL     OW29733   7.793   5.079  11.808 -0.5578 -0.3330  0.2181
 9431SOL    HW129734   7.859   5.016  11.838 -0.0030 -0.4990 -1.2871
 9431SOL    HW229735   7.722   5.071  11.871  0.5318 -0.7064  1.4421
 9432SOL     OW29736   0.253   3.408   9.756  0.3455 -0.4845 -0.2557
 9432SOL    HW129737   0.170   3.369   9.782  0.3079  0.0198  0.4236
 9432SOL    HW229738   0.243   3.427   9.663  0.4637 -2.3128 -0.6735
 9433SOL     OW29739   2.591   6.879   4.597  0.4202  0.4268 -0.0912
 9433SOL    HW129740   2.613   6.818   4.527  0.3520  3.7941 -3.3638
 9433SOL    HW229741   2.676   6.905   4.633  0.5072 -0.6491  0.5283
 9434SOL     OW29742   1.759   0.852   5.044  0.3759 -0.2744 -0.4225
 9434SOL    HW129743   1.694   0.791   5.080  1.6907 -0.3450  2.0157
 9434SOL    HW229744   1.711   0.899   4.975 -1.6670 -1.6629 -0.0530
 9435SOL     OW29745   5.824   4.340   8.805  0.1656 -0.1178 -0.2614
 9435SOL    HW129746   5.882   4.391   8.861  1.1082  0.0394 -1.3337
 9435SOL    HW229747   5.737   4.347   8.846  0.8467 -0.1677  1.2467
 9436SOL     OW29748   0.054   6.344   8.271  0.2485 -0.3660 -0.3911
 9436SOL    HW129749   0.074   6.336   8.365 -0.4654  1.3685 -0.0529
 9436SOL    HW229750  -0.014   6.278   8.255  1.5103 -1.7999 -0.0904
 9437SOL     OW29751   5.869   3.932   3.541  0.3585  0.3078  0.4787
 9437SOL    HW129752   5.868   3.836   3.542  2.2203  0.2503  0.6492
 9437SOL    HW229753   5.793   3.957   3.593  0.0273 -1.0726  0.7055
 9438SOL     OW29754   7.960   2.371  10.966  0.4748 -0.0220 -0.3233
 9438SOL    HW129755   7.969   2.286  11.009  0.7864 -0.7551 -1.7739
 9438SOL    HW229756   7.889   2.414  11.013 -0.3711 -1.4912 -0.1942
 9439SOL     OW29757   0.036   7.443   3.438  0.1229 -0.2839 -0.3766
 9439SOL    HW129758   0.008   7.524   3.396 -0.2132 -0.3783 -0.3349
 9439SOL    HW229759  -0.039   7.415   3.490  0.3620 -0.4363 -0.1134
 9440SOL     OW29760   3.577   1.555   6.595  0.3895 -0.1932 -0.7261
 9440SOL    HW129761   3.528   1.630   6.562  0.1265 -0.4758 -0.9804
 9440SOL    HW229762   3.662   1.591   6.621 -0.6214  0.6819  1.5910
 9441SOL     OW29763   1.526   2.296  11.538  0.4218  0.5255  0.2501
 9441SOL    HW129764   1.514   2.291  11.443  1.4749 -0.9679  0.1588
 9441SOL    HW229765   1.599   2.358  11.550 -1.2257  2.5897  0.2849
 9442SOL     OW29766   2.363   3.031  10.569 -0.3675 -0.4251 -0.7366
 9442SOL    HW129767   2.307   3.021  10.646  0.3339 -0.5697 -0.2274
 9442SOL    HW229768   2.434   3.089  10.599  0.3340 -1.1088 -1.0244
 9443SOL     OW29769   2.838   3.584   9.237  0.1207  0.0982 -0.1484
 9443SOL    HW129770   2.890   3.628   9.304  0.7444 -1.7480  0.6349
 9443SOL    HW229771   2.747   3.598   9.264  0.3612 -0.4863  1.0374
 9444SOL     OW29772   1.499   2.842   8.179  0.0571 -0.8261  0.7127
 9444SOL    HW129773   1.413   2.883   8.192  0.8381  1.0079  0.4303
 9444SOL    HW229774   1.560   2.899   8.226  1.2320 -1.5785  0.1391
 9445SOL     OW29775   0.952   0.455   3.321 -0.3579  0.2730  0.3926
 9445SOL    HW129776   0.893   0.529   3.306 -0.2417  0.0451 -1.4155
 9445SOL    HW229777   1.039   0.495   3.329 -0.5194  0.4639  1.3336
 9446SOL     OW29778   2.442   6.846   5.067 -0.3783 -0.3508  0.5487
 9446SOL    HW129779   2.496   6.870   5.143 -0.4855 -1.7712  1.1198
 9446SOL    HW229780   2.502   6.799   5.009 -0.4222  0.2694  0.0021
 9447SOL     OW29781   5.888   6.246   9.040  0.3312 -0.0593 -0.0695
 9447SOL    HW129782   5.837   6.252   9.121 -0.8172  1.3763 -0.8503
 9447SOL    HW229783   5.869   6.327   8.993  1.3168 -0.6560 -1.5913
 9448SOL     OW29784   4.155   7.172   8.880 -0.4052 -0.1584  0.0780
 9448SOL    HW129785   4.226   7.205   8.825  0.9844 -0.6926  1.4639
 9448SOL    HW229786   4.136   7.244   8.941 -0.4025 -0.3436  0.3010
 9449SOL     OW29787   4.247   1.494   2.722  0.5080 -0.3309  0.4622
 9449SOL    HW129788   4.252   1.538   2.807  0.7521 -0.8604  0.7281
 9449SOL    HW229789   4.323   1.436   2.721 -0.0513 -1.0829  0.3209
 9450SOL     OW29790   5.798   3.206   0.424  0.0753 -0.0710 -0.3343
 9450SOL    HW129791   5.715   3.246   0.398  0.3772  0.2897 -0.7607
 9450SOL    HW229792   5.775   3.115   0.446 -0.6855  0.4155  1.0208
 9451SOL     OW29793   7.776   7.444   8.022 -0.0220 -0.6993 -0.2226
 9451SOL    HW129794   7.795   7.517   8.081  2.3362 -0.7950 -0.7730
 9451SOL    HW229795   7.802   7.366   8.071  1.1333 -0.8451 -1.0397
 9452SOL     OW29796   3.627   7.476   9.642  0.2680  0.2781  0.0165
 9452SOL    HW129797   3.639   7.496   9.549  1.7633 -0.0033  0.1276
 9452SOL    HW229798   3.661   7.387   9.653  0.5340  0.4730  0.9098
 9453SOL     OW29799   7.018   7.504   6.142 -0.5824 -0.0959  0.2596
 9453SOL    HW129800   6.940   7.555   6.122 -3.6821 -3.5176  2.4837
 9453SOL    HW229801   7.049   7.540   6.225 -2.2774 -1.1558  1.4122
 9454SOL     OW29802   2.473   1.674   6.303 -0.1475  0.8255 -0.2162
 9454SOL    HW129803   2.402   1.687   6.240  1.2901  0.6716 -1.9774
 9454SOL    HW229804   2.552   1.695   6.253  1.1145  0.1485  1.4127
 9455SOL     OW29805   1.158   3.294   9.485  0.2586 -0.2636 -0.3328
 9455SOL    HW129806   1.105   3.245   9.423  0.3309 -1.5094  0.5484
 9455SOL    HW229807   1.100   3.310   9.559  0.9703 -1.3071  0.4793
 9456SOL     OW29808   0.702   4.536   7.340 -0.4426 -0.0768  0.2393
 9456SOL    HW129809   0.760   4.484   7.396  1.2081 -1.1159 -2.2150
 9456SOL    HW229810   0.625   4.480   7.326  0.3344 -0.9968 -0.5878
 9457SOL     OW29811   7.943   1.677   8.398 -0.3636 -0.2701  0.2382
 9457SOL    HW129812   7.872   1.707   8.455  0.0459  1.3920 -0.0755
 9457SOL    HW229813   7.981   1.603   8.444 -0.8471  0.2529  1.5160
 9458SOL     OW29814   5.899   7.327   3.734  0.0514 -0.1922  0.0812
 9458SOL    HW129815   5.812   7.291   3.754 -0.4545  0.0580 -1.5182
 9458SOL    HW229816   5.957   7.284   3.797 -0.8677 -2.1997 -0.3476
 9459SOL     OW29817   3.322   3.776   1.691  0.0679 -0.4362 -0.5465
 9459SOL    HW129818   3.309   3.837   1.763 -1.4174 -0.0982 -1.0616
 9459SOL    HW229819   3.405   3.732   1.711  1.0328  1.5119  0.0007
 9460SOL     OW29820   4.029   6.811   5.953 -0.3388  0.0419  0.0664
 9460SOL    HW129821   3.997   6.764   6.030  1.3167 -0.9530  0.1875
 9460SOL    HW229822   4.085   6.880   5.989  0.0966 -0.1526 -0.2352
 9461SOL     OW29823   1.343   7.843   8.338 -0.4344 -0.2454 -0.2085
 9461SOL    HW129824   1.433   7.819   8.315 -0.4691 -0.0591 -0.5509
 9461SOL    HW229825   1.335   7.934   8.311  0.0855  0.5936  2.2501
 9462SOL     OW29826   2.759   3.710   4.613  0.4546 -0.1623  0.2224
 9462SOL    HW129827   2.794   3.777   4.555 -0.2561  0.8332  0.9162
 9462SOL    HW229828   2.811   3.718   4.693 -0.6931  0.7090  0.9174
 9463SOL     OW29829   5.367   2.581   2.895  0.4811 -0.1349  0.0716
 9463SOL    HW129830   5.405   2.534   2.821 -0.0897  0.8014 -0.8577
 9463SOL    HW229831   5.345   2.668   2.859 -1.4333 -0.2475  0.8398
 9464SOL     OW29832   5.218   3.714   1.835  0.0063  0.0354 -0.0477
 9464SOL    HW129833   5.287   3.711   1.769  0.3382 -1.8723  0.3157
 9464SOL    HW229834   5.144   3.670   1.793 -0.7628  1.3756 -0.1525
 9465SOL     OW29835   4.764   1.778   1.400  0.5050 -0.5396  0.0877
 9465SOL    HW129836   4.719   1.774   1.316  1.2623  0.5957 -0.3984
 9465SOL    HW229837   4.787   1.871   1.410  0.8618 -0.7439  1.3101
 9466SOL     OW29838   3.090   4.949  10.829  0.0646 -0.1413  0.0420
 9466SOL    HW129839   3.142   4.881  10.786  0.4318  1.3922 -2.0977
 9466SOL    HW229840   3.153   5.015  10.856 -0.5882  1.0962 -1.3347
 9467SOL     OW29841   4.372   6.955  11.878  0.8539 -0.3885  0.3386
 9467SOL    HW129842   4.328   6.879  11.916  0.5742 -0.0193  0.7717
 9467SOL    HW229843   4.465   6.941  11.896  0.7660 -0.4360  0.7803
 9468SOL     OW29844   5.340   3.497   0.266 -0.0494 -0.3357 -0.1278
 9468SOL    HW129845   5.318   3.583   0.299 -2.0855 -1.1041  0.6365
 9468SOL    HW229846   5.361   3.511   0.174  1.7440  1.2347  0.4499
 9469SOL     OW29847   4.976   2.751   4.364  0.1665  0.1998 -0.0551
 9469SOL    HW129848   4.951   2.710   4.447  1.5540  0.7387  0.6651
 9469SOL    HW229849   4.919   2.710   4.299 -0.1027 -1.1335  0.9744
 9470SOL     OW29850   0.641   6.138   7.776 -0.7527 -0.4013 -0.5435
 9470SOL    HW129851   0.588   6.089   7.713 -1.2271 -0.5259 -0.0489
 9470SOL    HW229852   0.585   6.148   7.853  1.0508 -3.5450  1.3711
 9471SOL     OW29853   1.528   1.086   8.601 -0.6862 -0.1873  0.1804
 9471SOL    HW129854   1.453   1.058   8.550 -1.2275  0.1449  0.7848
 9471SOL    HW229855   1.601   1.087   8.539 -1.3347  0.1944 -0.5808
 9472SOL     OW29856   0.894   6.682   9.211 -0.9433 -0.1941 -0.3236
 9472SOL    HW129857   0.946   6.656   9.287 -1.3333  0.9083  0.3460
 9472SOL    HW229858   0.927   6.768   9.188 -1.5077 -0.0921 -0.7739
 9473SOL     OW29859   1.069   5.109  10.250  0.0185 -0.2349  0.0959
 9473SOL    HW129860   0.998   5.079  10.193 -1.2818 -0.5719  1.8140
 9473SOL    HW229861   1.145   5.117  10.192 -1.5642  0.8311 -1.9503
 9474SOL     OW29862   5.011   7.746  11.777 -0.1672 -0.8652  0.1840
 9474SOL    HW129863   5.057   7.664  11.794  1.0968 -0.5102 -1.2439
 9474SOL    HW229864   5.030   7.765  11.685 -1.4103  0.4322  0.1606
 9475SOL     OW29865   0.370   1.420   9.553  0.4630  0.7372  0.3010
 9475SOL    HW129866   0.352   1.487   9.619  1.7868  0.9304  0.4783
 9475SOL    HW229867   0.459   1.439   9.523  1.0576 -1.2551  0.7114
 9476SOL     OW29868   5.628   4.210   5.009  0.1970  0.0946 -0.2910
 9476SOL    HW129869   5.552   4.267   5.010  1.3626  1.7146  1.0383
 9476SOL    HW229870   5.611   4.145   5.077 -0.0633  0.3496 -0.1142
 9477SOL     OW29871   0.651   5.713   7.808 -0.0414  0.6114 -0.4257
 9477SOL    HW129872   0.595   5.747   7.878 -0.4504  0.1085 -0.5029
 9477SOL    HW229873   0.592   5.661   7.753  0.3138  0.8468 -1.0434
 9478SOL     OW29874   1.472   7.476   8.952 -0.5554 -0.1613 -0.0558
 9478SOL    HW129875   1.563   7.484   8.925 -0.3763 -0.1230  0.5487
 9478SOL    HW229876   1.424   7.530   8.889 -0.3472 -1.3156 -1.2616
 9479SOL     OW29877   5.920   0.754   1.653 -0.4198 -0.0092  0.3948
 9479SOL    HW129878   6.005   0.719   1.625 -0.8429 -0.6468 -0.1258
 9479SOL    HW229879   5.931   0.770   1.747 -0.0459 -1.0704  0.5439
 9480SOL     OW29880   6.948   2.302   5.624  0.1664  0.4076  0.2295
 9480SOL    HW129881   6.993   2.385   5.616  1.0198  0.0132  0.8304
 9480SOL    HW229882   6.859   2.320   5.594 -0.1287  1.9399  1.8597
 9481SOL     OW29883   1.633   1.595  12.436 -0.0781 -0.3463  0.3658
 9481SOL    HW129884   1.686   1.529  12.391  0.2128  0.0071  0.1820
 9481SOL    HW229885   1.662   1.678  12.398 -3.5433 -0.3274 -2.7200
 9482SOL     OW29886   0.107   0.840   3.800 -0.2756  1.1867 -0.0563
 9482SOL    HW129887   0.056   0.811   3.875  0.0296  1.1008  0.1180
 9482SOL    HW229888   0.197   0.814   3.820 -0.4380 -0.4205 -1.2364
 9483SOL     OW29889   2.763   6.931   3.327  0.5851 -0.2808  0.5841
 9483SOL    HW129890   2.820   7.001   3.358  0.5961 -0.1800  0.3352
 9483SOL    HW229891   2.685   6.938   3.382 -1.4045  2.8177 -2.2808
 9484SOL     OW29892   5.990   3.519   8.738 -0.1564  0.2516  0.0074
 9484SOL    HW129893   5.912   3.572   8.722 -0.8663 -0.5181  0.7720
 9484SOL    HW229894   5.974   3.438   8.690 -0.6938 -0.6432  1.6118
 9485SOL     OW29895   6.282   4.788  12.460 -0.2513  0.2939  0.1295
 9485SOL    HW129896   6.265   4.724  12.530 -1.4660  1.2521  0.7420
 9485SOL    HW229897   6.311   4.866  12.506  1.9478  0.0090 -0.6631
 9486SOL     OW29898   5.792   5.948   2.044 -0.1667  0.2104  0.2897
 9486SOL    HW129899   5.762   5.938   1.954 -2.9988 -0.4160  1.2176
 9486SOL    HW229900   5.843   5.869   2.062 -1.0083 -0.4697 -0.2574
 9487SOL     OW29901   0.513   5.011   2.952 -0.8254  0.3929  0.1552
 9487SOL    HW129902   0.536   4.924   2.919 -0.2922  0.4756  0.3105
 9487SOL    HW229903   0.597   5.057   2.962 -0.9676  0.3849  1.5906
 9488SOL     OW29904   6.982   0.969   1.704 -0.4159 -0.1858  0.4241
 9488SOL    HW129905   6.977   0.984   1.799  0.7646 -1.0168  0.6445
 9488SOL    HW229906   6.964   0.875   1.694 -2.0005  0.1652 -0.3446
 9489SOL     OW29907   4.928   2.253   8.563  0.5757 -0.7192  0.2410
 9489SOL    HW129908   4.918   2.227   8.654  2.5225 -1.3395  0.3374
 9489SOL    HW229909   4.953   2.173   8.517  0.0027 -0.3406 -0.7642
 9490SOL     OW29910   1.591   4.745  12.309  0.2327 -0.5696  0.3528
 9490SOL    HW129911   1.623   4.809  12.245  2.5196  1.0422  2.8736
 9490SOL    HW229912   1.661   4.740  12.374 -1.7409 -2.4672  2.4908
 9491SOL     OW29913   7.311   1.045   7.486 -0.0132 -0.1433 -0.6534
 9491SOL    HW129914   7.328   0.955   7.517  0.5780 -0.3694 -1.5757
 9491SOL    HW229915   7.240   1.035   7.423 -1.5764  0.3877  0.9644
 9492SOL     OW29916   0.569   0.937  11.871  0.1207 -0.4833 -0.1242
 9492SOL    HW129917   0.508   0.876  11.913 -0.1840  0.6938  1.2290
 9492SOL    HW229918   0.654   0.893  11.876 -0.3174 -1.3993 -0.4736
 9493SOL     OW29919   6.951   4.300   1.585 -0.3059  0.4021  0.1818
 9493SOL    HW129920   6.858   4.305   1.606 -0.6186  1.3757 -1.2627
 9493SOL    HW229921   6.976   4.210   1.606 -1.7831 -0.1229 -0.1733
 9494SOL     OW29922   2.488   0.381   9.165 -0.6708 -0.6101 -0.3353
 9494SOL    HW129923   2.544   0.370   9.242 -0.2183 -0.0786 -0.5776
 9494SOL    HW229924   2.403   0.406   9.201 -0.8802 -1.8172  0.0573
 9495SOL     OW29925   3.964   3.416  11.105  0.4880 -0.0195  0.1532
 9495SOL    HW129926   3.995   3.413  11.196  2.1621 -1.3619 -0.4087
 9495SOL    HW229927   4.031   3.369  11.055  0.2548  1.7638 -1.9914
 9496SOL     OW29928   6.601   3.392   1.685  0.3514  0.2716  0.5970
 9496SOL    HW129929   6.654   3.326   1.639 -0.1015 -0.0281  0.5013
 9496SOL    HW229930   6.590   3.356   1.773  1.2807  0.8797  0.9832
 9497SOL     OW29931   5.124   1.494  12.472  0.6436  0.8427 -0.1039
 9497SOL    HW129932   5.200   1.481  12.415 -0.1304 -0.0488 -0.9931
 9497SOL    HW229933   5.159   1.532  12.552  1.7142  2.8290 -1.4175
 9498SOL     OW29934   5.944   5.236  11.682  0.4837 -0.9078  0.2630
 9498SOL    HW129935   5.918   5.161  11.735 -1.8160  0.1090  0.6907
 9498SOL    HW229936   5.958   5.306  11.745  3.3134 -1.0781 -0.0692
 9499SOL     OW29937   6.001   2.545   2.521 -0.3246 -0.0630  0.5417
 9499SOL    HW129938   5.911   2.516   2.508  0.4325 -2.4004 -0.0465
 9499SOL    HW229939   6.017   2.608   2.451 -2.4208  2.9443  2.5657
 9500SOL     OW29940   2.717   3.969   7.285  0.4195  0.3286  0.1724
 9500SOL    HW129941   2.740   3.891   7.336  1.0241  0.4536  0.1056
 9500SOL    HW229942   2.740   3.946   7.195 -0.3969  0.2048 -0.0086
 9501SOL     OW29943   0.560   3.398   0.384  0.0588  0.1642 -0.3804
 9501SOL    HW129944   0.636   3.450   0.359 -1.3759  0.9946 -3.5299
 9501SOL    HW229945   0.485   3.457   0.369 -1.3915 -1.6270 -0.4712
 9502SOL     OW29946   3.802   6.166   1.583  0.4825  0.0413 -0.0841
 9502SOL    HW129947   3.745   6.242   1.591 -1.6322 -1.4314 -0.3432
 9502SOL    HW229948   3.873   6.183   1.645  0.0040  2.1439 -0.0412
 9503SOL     OW29949   0.668   2.696   7.766  0.1599 -0.1046 -0.2243
 9503SOL    HW129950   0.658   2.613   7.814  1.0332 -0.3633 -0.4566
 9503SOL    HW229951   0.591   2.747   7.789 -0.0277 -0.6980  0.5085
 9504SOL     OW29952   2.743   2.116   2.021  0.5991  0.3037  0.2321
 9504SOL    HW129953   2.732   2.069   1.938  0.5294  0.9230 -0.1130
 9504SOL    HW229954   2.823   2.166   2.009  2.2793 -1.8593  1.6297
 9505SOL     OW29955   0.445   6.277   6.468  0.3087 -1.0879 -0.3325
 9505SOL    HW129956   0.503   6.219   6.418  2.5249  2.5332 -2.4107
 9505SOL    HW229957   0.492   6.361   6.471 -3.6501  1.3372  0.3847
 9506SOL     OW29958   0.525   2.071   6.776 -0.0523  0.2357  0.1387
 9506SOL    HW129959   0.531   2.132   6.703 -0.6602  0.2718  0.1084
 9506SOL    HW229960   0.581   1.997   6.752 -0.0632  0.3552 -0.2516
 9507SOL     OW29961   4.281   5.562   6.149  0.3009 -0.2154 -0.5957
 9507SOL    HW129962   4.203   5.530   6.196  1.6639 -0.1600  1.8760
 9507SOL    HW229963   4.291   5.501   6.076 -3.9175  1.6798 -3.1345
 9508SOL     OW29964   5.997   6.273   2.079 -0.2355  0.2693  0.3431
 9508SOL    HW129965   5.952   6.214   2.140 -3.3106  1.0359 -0.9903
 9508SOL    HW229966   5.940   6.351   2.075  1.3341  1.4079 -1.3798
 9509SOL     OW29967   2.242   0.800   6.258 -0.4453  0.1491  0.1282
 9509SOL    HW129968   2.246   0.704   6.255 -0.7217  0.1431 -0.1035
 9509SOL    HW229969   2.264   0.827   6.169 -3.5178  0.1835 -0.7309
 9510SOL     OW29970   7.799   4.312   0.917 -0.2459 -0.4357 -0.4823
 9510SOL    HW129971   7.848   4.380   0.871 -2.9921  0.8695 -1.7523
 9510SOL    HW229972   7.804   4.336   1.009  1.0197 -0.0566 -0.6423
 9511SOL     OW29973   6.458   5.468   8.868  0.1490 -0.3083  0.1600
 9511SOL    HW129974   6.552   5.450   8.869 -0.1638 -2.3066 -1.0412
 9511SOL    HW229975   6.445   5.525   8.793  0.3136 -0.7396 -0.2041
 9512SOL     OW29976   1.360   6.780   1.709  0.1907 -0.0933 -0.3970
 9512SOL    HW129977   1.269   6.758   1.731  0.1715 -0.0590 -0.4417
 9512SOL    HW229978   1.394   6.701   1.666 -0.3810  0.5138 -2.0623
 9513SOL     OW29979   2.650   2.681   5.308 -0.0737 -0.5400  0.4607
 9513SOL    HW129980   2.604   2.655   5.228 -1.1072 -1.2516  1.2581
 9513SOL    HW229981   2.742   2.673   5.286 -0.3364 -2.2904 -0.1973
 9514SOL     OW29982   4.687   2.462   6.687  0.1876 -0.3445 -0.0489
 9514SOL    HW129983   4.774   2.426   6.669  0.4308 -0.3558  1.1248
 9514SOL    HW229984   4.689   2.486   6.779 -0.2264  1.9469 -0.5743
 9515SOL     OW29985   5.788   2.837   6.335 -0.3022  0.1519  0.2794
 9515SOL    HW129986   5.708   2.786   6.320  1.1557 -2.0517 -0.5446
 9515SOL    HW229987   5.819   2.809   6.421  1.2072 -1.4901 -0.7262
 9516SOL     OW29988   6.503   4.588  10.450  0.3556 -0.0547  0.5690
 9516SOL    HW129989   6.514   4.603  10.356 -0.8058 -0.7015  0.3188
 9516SOL    HW229990   6.532   4.670  10.490  0.3786  0.4186 -0.3734
 9517SOL     OW29991   6.268   6.755   9.095 -0.0451 -0.0598  0.4327
 9517SOL    HW129992   6.361   6.736   9.078 -0.0529 -0.2255  0.5762
 9517SOL    HW229993   6.264   6.774   9.188 -0.5108 -2.2655  0.9060
 9518SOL     OW29994   6.040   7.397   8.049 -0.1151  0.4806 -0.0832
 9518SOL    HW129995   6.116   7.413   8.106  1.5504  1.1037 -2.3367
 9518SOL    HW229996   6.055   7.308   8.015 -0.3152  0.6654 -0.6542
 9519SOL     OW29997   5.429   4.479   3.605 -0.3084  0.2014  0.4535
 9519SOL    HW129998   5.363   4.449   3.544 -0.2653  1.0051 -0.0042
 9519SOL    HW229999   5.512   4.469   3.558 -0.2334  0.4080  0.5388
 9520SOL     OW30000   3.872   1.242  12.406 -0.6421  0.4170  0.3593
 9520SOL    HW130001   3.891   1.282  12.490  2.6704  0.6621 -0.3634
 9520SOL    HW230002   3.878   1.148  12.422 -1.7828  0.3853  0.7010
 9521SOL     OW30003   1.271   3.340   3.316  0.5101 -0.1102  0.1696
 9521SOL    HW130004   1.310   3.256   3.338 -0.7135 -0.2717  2.0489
 9521SOL    HW230005   1.335   3.383   3.260  1.0117 -2.4025 -1.1587
 9522SOL     OW30006   3.555   4.244   0.647  0.1959 -0.0656  0.0653
 9522SOL    HW130007   3.601   4.319   0.607 -0.3579 -0.2152 -0.8748
 9522SOL    HW230008   3.517   4.280   0.727  0.7112  0.4229  0.1022
 9523SOL     OW30009   3.592   5.163   0.712 -0.0892 -0.0297 -0.4220
 9523SOL    HW130010   3.540   5.108   0.772 -0.7426  0.2535 -0.7152
 9523SOL    HW230011   3.582   5.252   0.746  0.2916  0.0160 -0.4260
 9524SOL     OW30012   7.103   0.700   7.926  0.0759 -0.3083  0.2330
 9524SOL    HW130013   7.151   0.773   7.966 -0.0397 -0.8921  1.4627
 9524SOL    HW230014   7.031   0.683   7.986  1.2218 -2.7192  1.0423
 9525SOL     OW30015   2.306   0.463   6.187 -0.2506 -0.1906 -0.3486
 9525SOL    HW130016   2.379   0.478   6.128  1.8117 -0.3995  2.0075
 9525SOL    HW230017   2.328   0.382   6.233 -0.7354  0.9910  2.0997
 9526SOL     OW30018   7.475   3.822   3.626  0.3137  0.2217 -0.3473
 9526SOL    HW130019   7.483   3.788   3.536  2.5333 -3.2327  0.9398
 9526SOL    HW230020   7.551   3.879   3.636 -0.6627  1.6957 -0.9825
 9527SOL     OW30021   0.816   6.249   6.303 -0.0971  0.4360 -0.8724
 9527SOL    HW130022   0.890   6.197   6.335 -0.2684  0.0400 -1.1083
 9527SOL    HW230023   0.776   6.194   6.236  0.5201  1.4267 -2.0947
 9528SOL     OW30024   4.540   7.978   1.638  0.3580 -0.3203 -0.2129
 9528SOL    HW130025   4.532   7.980   1.733 -0.6131 -0.8880 -0.2638
 9528SOL    HW230026   4.451   7.960   1.607  0.1518  2.1655 -1.3320
 9529SOL     OW30027   1.464   0.365   4.910 -0.0271  0.2705  0.4006
 9529SOL    HW130028   1.509   0.441   4.873  0.7973 -0.2893  0.2458
 9529SOL    HW230029   1.372   0.379   4.886  0.3869  0.2019 -1.4120
 9530SOL     OW30030   1.584   0.186  10.692  0.3699  0.4123 -0.1004
 9530SOL    HW130031   1.677   0.202  10.708  0.2810  0.2657  0.6044
 9530SOL    HW230032   1.574   0.197  10.597  0.8679  1.6377 -0.0365
 9531SOL     OW30033   6.116   0.963   7.090  0.3677  0.5109 -0.3576
 9531SOL    HW130034   6.100   0.970   7.184 -0.2807  1.8238 -0.5412
 9531SOL    HW230035   6.164   0.881   7.080  1.0822  0.6967  1.1950
 9532SOL     OW30036   7.032   6.178   3.286  0.0051 -0.5041 -0.0615
 9532SOL    HW130037   7.024   6.144   3.375 -0.0143 -0.1090  0.0909
 9532SOL    HW230038   6.983   6.117   3.232 -1.4718  0.1915  0.4382
 9533SOL     OW30039   3.718   2.110  10.603  0.3272 -0.4116 -0.5345
 9533SOL    HW130040   3.785   2.059  10.557  2.5463  1.9378 -0.1744
 9533SOL    HW230041   3.652   2.128  10.536  0.8422 -1.4512 -1.3549
 9534SOL     OW30042   6.868   5.145   9.395 -0.4389  0.0417 -0.1142
 9534SOL    HW130043   6.847   5.127   9.303  0.6124 -0.6895 -0.2276
 9534SOL    HW230044   6.835   5.233   9.410  0.7394  0.7992 -1.6576
 9535SOL     OW30045   5.148   0.586   9.942  0.2491 -0.2278 -0.8229
 9535SOL    HW130046   5.234   0.555   9.970  0.3751 -0.4355 -1.4238
 9535SOL    HW230047   5.152   0.587   9.846 -0.3314  0.0004 -0.8536
 9536SOL     OW30048   2.076   5.200  11.143 -0.0667  0.5451 -0.2441
 9536SOL    HW130049   2.022   5.192  11.222  0.5585  0.5890  0.1988
 9536SOL    HW230050   2.088   5.294  11.132  0.2530  0.5224 -0.1037
 9537SOL     OW30051   0.820   7.491   9.796  0.2804 -0.3946 -0.5664
 9537SOL    HW130052   0.833   7.423   9.731  0.2068 -0.2280 -0.7566
 9537SOL    HW230053   0.907   7.508   9.832  0.3481 -0.3646 -0.7441
 9538SOL     OW30054   0.565   1.284   1.263  0.3766 -0.7561  0.0114
 9538SOL    HW130055   0.575   1.343   1.338 -1.0025 -2.0680  1.2928
 9538SOL    HW230056   0.597   1.335   1.188  0.6548  1.0448  1.2842
 9539SOL     OW30057   6.755   0.461   5.200 -0.4598  0.5263  0.1481
 9539SOL    HW130058   6.724   0.534   5.147 -0.5576 -0.4018 -1.1025
 9539SOL    HW230059   6.704   0.467   5.281 -0.6336  1.6909 -0.0362
 9540SOL     OW30060   3.916   0.255   1.298 -0.2645  0.2091  0.3996
 9540SOL    HW130061   3.940   0.328   1.355  0.5991 -1.3254  2.1060
 9540SOL    HW230062   3.989   0.248   1.237 -0.7189  1.2256 -0.2920
 9541SOL     OW30063   4.270   1.737   3.706 -0.9727  0.2179  0.2195
 9541SOL    HW130064   4.279   1.832   3.704  0.2976  0.1371  1.1037
 9541SOL    HW230065   4.310   1.707   3.625 -0.2942  0.3705  0.4950
 9542SOL     OW30066   0.226   3.860   5.414  0.2838 -0.5085 -0.2256
 9542SOL    HW130067   0.288   3.826   5.478  1.9672 -0.9735 -2.0107
 9542SOL    HW230068   0.278   3.920   5.360 -1.8895  2.7749  0.9907
 9543SOL     OW30069   6.946   1.390  11.309  0.2645  0.0552 -0.0444
 9543SOL    HW130070   7.031   1.426  11.335  0.0018  1.0975 -0.5723
 9543SOL    HW230071   6.950   1.386  11.214 -0.6796  1.1982 -0.1563
 9544SOL     OW30072   0.145   1.138   2.047 -0.3547 -0.4793 -0.6435
 9544SOL    HW130073   0.205   1.152   1.974  1.5826  0.0601  0.9827
 9544SOL    HW230074   0.112   1.226   2.068  0.9239 -0.2495  0.5739
 9545SOL     OW30075   2.293   4.884   6.827 -0.0054 -0.2329  0.2944
 9545SOL    HW130076   2.300   4.793   6.856  1.0099 -0.2846 -0.0663
 9545SOL    HW230077   2.352   4.890   6.751  0.5358  0.9029  0.7725
 9546SOL     OW30078   0.939   7.276   4.478 -0.0781 -0.1933  0.6448
 9546SOL    HW130079   0.998   7.335   4.525 -1.3954  0.3310  1.6792
 9546SOL    HW230080   0.998   7.222   4.425  1.2533  1.0495  0.7893
 9547SOL     OW30081   4.646   6.884   1.487  0.3677 -0.4716 -0.0177
 9547SOL    HW130082   4.689   6.868   1.571 -0.5352 -2.0141  0.1908
 9547SOL    HW230083   4.651   6.800   1.441 -0.6024 -0.1109 -0.8190
 9548SOL     OW30084   7.897   5.486   8.754  0.3771 -0.2276  0.3253
 9548SOL    HW130085   7.841   5.481   8.832  1.6091  1.0955  1.3457
 9548SOL    HW230086   7.856   5.553   8.700  0.5778  0.2235  0.7320
 9549SOL     OW30087   2.406   3.250   2.446 -0.0998 -0.1722 -0.7472
 9549SOL    HW130088   2.331   3.217   2.396  0.5809 -1.8905 -0.7044
 9549SOL    HW230089   2.436   3.327   2.397 -1.6677  0.3540 -0.9354
 9550SOL     OW30090   0.646   1.762   7.347 -0.8151 -0.4972 -0.1739
 9550SOL    HW130091   0.629   1.667   7.348 -0.5241 -0.5936 -1.7023
 9550SOL    HW230092   0.629   1.790   7.437 -1.2725 -1.9353  0.2234
 9551SOL     OW30093   7.107   3.975   9.899 -0.3948  0.2188 -0.1380
 9551SOL    HW130094   7.164   4.004   9.828  2.8284  0.2804  2.2381
 9551SOL    HW230095   7.096   3.881   9.884 -0.7289  0.4331 -1.3089
 9552SOL     OW30096   0.372   2.793   3.701  0.4107  0.6208  0.2681
 9552SOL    HW130097   0.302   2.857   3.711 -1.3626 -1.2393  0.4513
 9552SOL    HW230098   0.380   2.753   3.788 -0.2095 -1.0170 -0.3887
 9553SOL     OW30099   7.594   1.208   6.571  0.2687  0.5916  0.4707
 9553SOL    HW130100   7.633   1.220   6.485  2.1865  0.2116  1.2187
 9553SOL    HW230101   7.629   1.281   6.623 -1.3967  1.2085  0.7760
 9554SOL     OW30102   6.065   2.969   7.173 -0.0884 -0.6373 -0.6912
 9554SOL    HW130103   6.110   2.969   7.257  1.1425 -1.3216 -1.3183
 9554SOL    HW230104   6.094   2.889   7.130  0.3149  0.2900 -2.2694
 9555SOL     OW30105   1.938   4.592   5.911  0.3133  0.2281  0.5969
 9555SOL    HW130106   1.944   4.501   5.940 -0.4722  0.3523  1.1802
 9555SOL    HW230107   2.015   4.604   5.856 -0.5280 -1.3022 -1.0007
 9556SOL     OW30108   5.428   2.850   7.220  0.0657  0.0157  0.0889
 9556SOL    HW130109   5.360   2.914   7.201 -1.2907 -1.4575 -0.2092
 9556SOL    HW230110   5.474   2.886   7.297 -0.2395  1.6116 -0.4421
 9557SOL     OW30111   6.463   7.666   8.914 -0.4996 -0.0446 -0.8806
 9557SOL    HW130112   6.491   7.660   9.005 -0.8366 -1.3905 -0.8409
 9557SOL    HW230113   6.404   7.742   8.911  0.2666  0.5817 -0.1962
 9558SOL     OW30114   2.071   2.344   8.951  0.1965  0.3394 -0.4272
 9558SOL    HW130115   2.037   2.255   8.963  2.0024 -0.3033  0.2709
 9558SOL    HW230116   2.027   2.396   9.018  2.1005 -0.9449  1.9950
 9559SOL     OW30117   3.840   5.228   3.722 -0.7183  0.3577  0.1941
 9559SOL    HW130118   3.784   5.198   3.794  1.8248 -1.5762  1.5503
 9559SOL    HW230119   3.856   5.149   3.670  1.2244  0.6665  0.2473
 9560SOL     OW30120   2.834   4.711   0.824  0.0088  0.1290  0.1135
 9560SOL    HW130121   2.747   4.714   0.783 -0.3426 -0.0384  0.8216
 9560SOL    HW230122   2.822   4.757   0.907  0.2769 -0.9978  0.7882
 9561SOL     OW30123   5.097   1.236   8.872  0.6432  0.3784  0.0850
 9561SOL    HW130124   5.074   1.230   8.965  1.1327  1.3868  0.2808
 9561SOL    HW230125   5.174   1.181   8.863  0.3632 -0.0368  0.1929
 9562SOL     OW30126   5.462   5.124   5.841  0.1493 -0.3840  0.3505
 9562SOL    HW130127   5.410   5.197   5.874  0.7249 -0.0191  0.4654
 9562SOL    HW230128   5.406   5.083   5.775 -0.4519 -0.2645  0.7812
 9563SOL     OW30129   4.403   1.808   5.487 -0.4030  0.1305  0.0464
 9563SOL    HW130130   4.403   1.903   5.471  0.6106  0.1602  0.1900
 9563SOL    HW230131   4.334   1.795   5.553  2.4979  1.4447  3.6851
 9564SOL     OW30132   0.092   3.017   1.828 -0.1504 -0.1395 -0.4385
 9564SOL    HW130133   0.028   2.946   1.837  0.3487 -0.5515 -0.0838
 9564SOL    HW230134   0.123   3.033   1.917 -0.2572  0.5216 -0.5225
 9565SOL     OW30135   3.281   2.483   6.707 -0.5279 -0.2166 -0.3074
 9565SOL    HW130136   3.287   2.400   6.753 -1.5261  0.1838  0.6060
 9565SOL    HW230137   3.187   2.493   6.688 -0.2582  0.0906 -1.5683
 9566SOL     OW30138   0.567   0.512  10.127  0.3128 -0.9826 -0.1111
 9566SOL    HW130139   0.628   0.500  10.054 -1.0833 -1.3548 -1.2980
 9566SOL    HW230140   0.621   0.514  10.205  1.7904 -1.6462 -1.0774
 9567SOL     OW30141   4.490   3.227   7.606 -0.5135 -0.7987 -0.2149
 9567SOL    HW130142   4.487   3.218   7.511 -0.4296  0.8212 -0.4009
 9567SOL    HW230143   4.569   3.279   7.624 -0.1726 -1.6267  0.7978
 9568SOL     OW30144   5.685   0.576   5.190 -0.3041  0.3244  0.3169
 9568SOL    HW130145   5.607   0.631   5.194  0.5426  1.5629  0.2567
 9568SOL    HW230146   5.717   0.573   5.281  0.4167  1.0878  0.1002
 9569SOL     OW30147   7.441   1.756   1.603 -0.0578 -0.2559 -0.4386
 9569SOL    HW130148   7.355   1.796   1.618  0.5413  0.1262  2.5131
 9569SOL    HW230149   7.421   1.666   1.577 -1.4163 -0.7136  1.8865
 9570SOL     OW30150   2.461   6.019   4.172  0.2108  0.3674 -0.2437
 9570SOL    HW130151   2.456   5.946   4.233 -1.1954  0.3585 -0.3359
 9570SOL    HW230152   2.468   6.096   4.229 -2.8823  0.5319  0.1158
 9571SOL     OW30153   6.177   3.472  11.327  0.9990 -0.4239 -0.5217
 9571SOL    HW130154   6.194   3.390  11.281  2.2213 -0.7086  0.3964
 9571SOL    HW230155   6.225   3.464  11.409 -0.5211  0.3696  0.5058
 9572SOL     OW30156   5.325   7.435  10.668 -0.1575  0.2024 -0.2325
 9572SOL    HW130157   5.413   7.454  10.635  0.1517  0.9127  0.9292
 9572SOL    HW230158   5.331   7.346  10.703  0.2908  0.4667  0.3902
 9573SOL     OW30159   1.740   5.731  11.009  0.3678 -0.3392  0.2876
 9573SOL    HW130160   1.749   5.819  11.045  0.1954  0.2218 -0.9723
 9573SOL    HW230161   1.770   5.673  11.078 -0.5772  0.6398  1.5562
 9574SOL     OW30162   1.865   2.764   2.813  0.8666  0.6114  0.4768
 9574SOL    HW130163   1.855   2.827   2.884  1.7477 -0.2618  1.3934
 9574SOL    HW230164   1.810   2.799   2.743  0.5570  1.8731  1.3128
 9575SOL     OW30165   0.241   4.163  11.118  0.1730 -0.7411 -0.0910
 9575SOL    HW130166   0.158   4.120  11.094 -0.5146  0.4146  0.1155
 9575SOL    HW230167   0.245   4.239  11.060  0.9254 -0.5905  0.1527
 9576SOL     OW30168   7.905   3.809   3.734 -0.3701 -0.4539  0.2727
 9576SOL    HW130169   7.993   3.781   3.759 -0.2610  0.2298  0.6718
 9576SOL    HW230170   7.848   3.763   3.796 -0.2183 -0.0746  0.6978
 9577SOL     OW30171   5.609   3.313   2.064 -0.7514 -0.2766  0.1571
 9577SOL    HW130172   5.580   3.227   2.034 -1.7247  0.5433 -1.4895
 9577SOL    HW230173   5.698   3.323   2.029  0.1055 -1.3022  1.9428
 9578SOL     OW30174   2.619   0.459   5.737 -0.0540  0.0058 -0.0265
 9578SOL    HW130175   2.680   0.533   5.743  0.2077 -0.2326  0.2503
 9578SOL    HW230176   2.611   0.443   5.643 -0.3921  0.6127 -0.1096
 9579SOL     OW30177   7.734   2.389   2.692 -0.1614  0.2683 -0.2265
 9579SOL    HW130178   7.798   2.437   2.640  0.5710 -1.0937 -0.6375
 9579SOL    HW230179   7.749   2.417   2.782 -1.0676  2.2390 -0.6450
 9580SOL     OW30180   6.755   5.672   1.010 -0.7071 -0.0508  0.4093
 9580SOL    HW130181   6.692   5.603   1.026 -0.5727 -0.5631 -1.0824
 9580SOL    HW230182   6.837   5.640   1.047 -0.5855 -0.8312 -0.4961
 9581SOL     OW30183   5.683   2.803   5.389  0.4552 -0.3219 -0.2593
 9581SOL    HW130184   5.744   2.877   5.382 -0.6435  0.9109  2.0143
 9581SOL    HW230185   5.699   2.767   5.476 -0.9329 -1.0216 -0.2651
 9582SOL     OW30186   2.283   7.117   0.545  0.4785  0.4328 -0.2969
 9582SOL    HW130187   2.249   7.205   0.531 -0.7357 -0.1825 -1.3910
 9582SOL    HW230188   2.207   7.066   0.573  0.7576 -0.6730 -1.4911
 9583SOL     OW30189   6.293   6.868  12.108 -0.2258  0.2518 -0.2936
 9583SOL    HW130190   6.239   6.788  12.112  1.2944 -0.8051 -0.1991
 9583SOL    HW230191   6.285   6.897  12.017  0.8742 -1.2386 -0.9105
 9584SOL     OW30192   6.563   5.342  10.580 -0.0137  0.4659  0.2970
 9584SOL    HW130193   6.570   5.309  10.490  0.1987  1.9729 -0.2671
 9584SOL    HW230194   6.606   5.275  10.633  0.9829  0.1428 -0.8741
 9585SOL     OW30195   0.985   3.125  11.045  0.3812  0.1672 -0.3607
 9585SOL    HW130196   0.988   3.214  11.011  0.9626  0.0980 -0.5089
 9585SOL    HW230197   0.922   3.080  10.988 -2.2238  1.1975  1.5487
 9586SOL     OW30198   4.258   1.369   0.537 -0.0962 -0.6317  0.0493
 9586SOL    HW130199   4.309   1.429   0.483 -0.1797 -3.3256 -3.4458
 9586SOL    HW230200   4.323   1.308   0.573 -0.4006 -1.3832 -0.6457
 9587SOL     OW30201   6.243   1.191   2.538  0.4650  0.7059 -0.2504
 9587SOL    HW130202   6.189   1.222   2.610 -0.9221  0.5674 -1.2003
 9587SOL    HW230203   6.201   1.226   2.459  0.9084 -0.6246 -1.1139
 9588SOL     OW30204   6.081   6.490   3.605 -0.2931  0.8899 -0.5757
 9588SOL    HW130205   6.125   6.407   3.624  0.7982  1.8241  1.1495
 9588SOL    HW230206   6.023   6.469   3.530 -0.9147 -1.7084  0.5069
 9589SOL     OW30207   7.343   2.257  11.180  0.0593 -0.0591 -0.1446
 9589SOL    HW130208   7.278   2.325  11.168 -0.5036 -0.4339  0.7163
 9589SOL    HW230209   7.347   2.243  11.274  1.2476 -0.1815 -0.1930
 9590SOL     OW30210   5.595   4.772   3.766  0.0624  0.1324 -0.4297
 9590SOL    HW130211   5.540   4.789   3.842  0.7129  0.6961 -0.0734
 9590SOL    HW230212   5.610   4.858   3.727  2.4695  0.3380  0.7441
 9591SOL     OW30213   4.654   4.161  12.401  0.4673  0.5833 -0.3442
 9591SOL    HW130214   4.643   4.138  12.493 -1.2418 -0.9522 -0.8782
 9591SOL    HW230215   4.617   4.250  12.394 -0.1411  0.3925  0.3002
 9592SOL     OW30216   3.637   5.189  12.182 -0.1775  0.4547 -0.2502
 9592SOL    HW130217   3.583   5.206  12.259 -0.3962 -0.6636 -0.1401
 9592SOL    HW230218   3.598   5.241  12.113 -1.1287  0.0065 -0.0594
 9593SOL     OW30219   3.861   3.944  10.932  0.2775  0.2101  0.0624
 9593SOL    HW130220   3.907   3.921  10.851 -0.9119 -0.7670 -0.3739
 9593SOL    HW230221   3.873   3.868  10.989  0.2384  0.4591  0.4073
 9594SOL     OW30222   6.007   7.118   7.173  0.1427 -0.3643  0.0685
 9594SOL    HW130223   6.064   7.163   7.111 -0.7840  0.3050 -0.3221
 9594SOL    HW230224   6.012   7.026   7.148  0.2832 -0.1850 -0.5844
 9595SOL     OW30225   6.144   2.072   3.889  0.0971  0.4274  0.4543
 9595SOL    HW130226   6.136   2.065   3.985  0.6043  0.2000  0.4842
 9595SOL    HW230227   6.090   2.001   3.856 -0.5042  0.8350  0.5575
 9596SOL     OW30228   0.996   3.972   7.821 -0.2607 -0.1382  0.1922
 9596SOL    HW130229   1.089   3.961   7.801 -0.3543 -0.7247  0.0863
 9596SOL    HW230230   0.995   4.010   7.909  0.0777 -0.1232  0.1914
 9597SOL     OW30231   4.596   2.971   5.164 -0.4953 -0.1917 -0.1716
 9597SOL    HW130232   4.639   3.055   5.182  0.2466 -0.8349  1.2995
 9597SOL    HW230233   4.656   2.926   5.103  0.5117 -0.7069  1.1451
 9598SOL     OW30234   2.870   2.180   4.242  0.1573  0.4584  0.5422
 9598SOL    HW130235   2.916   2.158   4.161 -1.2717 -1.9308  0.2983
 9598SOL    HW230236   2.938   2.219   4.297  0.9079  3.4601 -2.1613
 9599SOL     OW30237   3.775   1.217  12.054 -0.0770 -0.1869 -0.3744
 9599SOL    HW130238   3.723   1.175  12.121 -0.0165  2.1315  1.2391
 9599SOL    HW230239   3.727   1.202  11.973 -0.6675 -2.1951  0.2969
 9600SOL     OW30240   4.793   5.800   9.552 -0.0788 -0.4626 -0.3543
 9600SOL    HW130241   4.731   5.729   9.570  0.2915 -0.5239  0.8281
 9600SOL    HW230242   4.801   5.846   9.636  0.8243  0.0569 -0.7095
 9601SOL     OW30243   2.443   3.711   5.672 -0.2010  0.1313  0.0951
 9601SOL    HW130244   2.424   3.805   5.679 -1.6133 -0.2133  1.5469
 9601SOL    HW230245   2.357   3.669   5.670  0.3923 -1.0905 -1.9864
 9602SOL     OW30246   7.366   0.855  11.659 -0.8741  0.6552  0.4120
 9602SOL    HW130247   7.312   0.877  11.584 -0.1938  2.5229  0.4246
 9602SOL    HW230248   7.450   0.827  11.620 -0.0841  2.8250  0.4274
 9603SOL     OW30249   1.501   1.105   0.613  0.1973 -0.2972  0.0153
 9603SOL    HW130250   1.427   1.147   0.656  0.1547  0.2740 -0.5992
 9603SOL    HW230251   1.486   1.121   0.519 -0.2446 -2.3412 -0.3195
 9604SOL     OW30252   3.445   0.297   7.442  0.3816  0.3051  0.5652
 9604SOL    HW130253   3.386   0.349   7.388 -1.0832 -2.4913 -0.7339
 9604SOL    HW230254   3.392   0.224   7.474  1.8716  0.4196  3.7568
 9605SOL     OW30255   7.347   6.283   0.743  0.8047  0.3801  0.0162
 9605SOL    HW130256   7.440   6.305   0.749  1.6387 -2.3770 -1.2833
 9605SOL    HW230257   7.313   6.302   0.830  1.8165  4.2547 -0.2751
 9606SOL     OW30258   7.114   4.075   1.706  0.4108  0.1080 -0.1233
 9606SOL    HW130259   7.154   3.989   1.722  0.1343  0.2370  1.4497
 9606SOL    HW230260   7.184   4.137   1.722  0.0875  0.2479  0.8483
 9607SOL     OW30261   0.486   0.393   0.901  0.1533 -0.3310 -0.1431
 9607SOL    HW130262   0.507   0.333   0.830  1.5330  0.0445 -0.0787
 9607SOL    HW230263   0.536   0.472   0.881  1.6223 -0.6559  1.8650
 9608SOL     OW30264   7.566   5.386   5.357 -0.2663  0.0966 -0.6564
 9608SOL    HW130265   7.505   5.454   5.330 -0.1181 -0.0124 -1.2908
 9608SOL    HW230266   7.648   5.432   5.373 -0.5878  0.2907  0.5248
 9609SOL     OW30267   3.806   4.041   1.836  0.5013  0.0643 -0.0842
 9609SOL    HW130268   3.899   4.050   1.817  0.2245 -1.0842 -2.2722
 9609SOL    HW230269   3.798   3.955   1.877  0.3259 -0.1045 -0.4731
 9610SOL     OW30270   5.364   0.374   2.739  0.1129 -0.2129  0.0011
 9610SOL    HW130271   5.362   0.332   2.825 -0.9299  0.1202  0.1645
 9610SOL    HW230272   5.396   0.307   2.679  0.3687 -0.6038  0.5711
 9611SOL     OW30273   1.870   2.291   9.476 -0.3750 -0.2800 -0.2092
 9611SOL    HW130274   1.917   2.333   9.547 -1.5215 -1.6055  1.4223
 9611SOL    HW230275   1.938   2.255   9.419  0.6238 -1.3921  1.6089
 9612SOL     OW30276   3.841   5.732   2.563  0.6744 -0.2896  0.1107
 9612SOL    HW130277   3.840   5.717   2.657  1.2112  1.4582  0.4156
 9612SOL    HW230278   3.872   5.649   2.526  2.2971 -0.3834  1.5925
 9613SOL     OW30279   4.761   1.241  12.367 -0.5925 -0.1862 -0.5668
 9613SOL    HW130280   4.752   1.148  12.347 -0.5697 -0.4314  0.4708
 9613SOL    HW230281   4.804   1.243  12.453 -1.7579  0.7435  0.0309
 9614SOL     OW30282   7.710   0.759   4.768 -0.0660  0.5631 -0.1535
 9614SOL    HW130283   7.650   0.766   4.693  1.0496  0.6409 -1.0509
 9614SOL    HW230284   7.652   0.759   4.844 -1.3060 -0.5750 -1.0431
 9615SOL     OW30285   5.441   4.994   1.279 -0.3137  0.8679  0.0071
 9615SOL    HW130286   5.388   4.930   1.232 -0.7630  1.0885  0.2094
 9615SOL    HW230287   5.529   4.985   1.241  0.6127 -2.4165  2.4946
 9616SOL     OW30288   5.609   6.157  10.007 -0.4261 -0.6312 -0.1358
 9616SOL    HW130289   5.698   6.191  10.006 -1.0276  1.1167 -2.0050
 9616SOL    HW230290   5.605   6.095   9.934 -0.3458 -1.9564  0.9492
 9617SOL     OW30291   4.531   6.083   9.537 -0.1369 -0.6553  0.2634
 9617SOL    HW130292   4.546   6.149   9.604  1.8001  2.2786 -2.7683
 9617SOL    HW230293   4.604   6.022   9.547 -0.3143 -0.7140  1.2906
 9618SOL     OW30294   1.739   6.404  10.518  0.2698 -0.3782  0.3593
 9618SOL    HW130295   1.808   6.350  10.481 -0.0332 -0.9558  0.6283
 9618SOL    HW230296   1.665   6.344  10.532  0.5602 -0.3214  2.4235
 9619SOL     OW30297   1.431   5.395   6.941 -0.6079  0.0215  0.2236
 9619SOL    HW130298   1.486   5.468   6.913 -1.9794  1.2037  0.4474
 9619SOL    HW230299   1.410   5.415   7.032 -0.4271 -1.0316  0.5011
 9620SOL     OW30300   1.577   1.281   9.173 -0.3065 -0.2482  0.4562
 9620SOL    HW130301   1.628   1.357   9.146  0.4857 -0.7591  0.4821
 9620SOL    HW230302   1.632   1.237   9.238 -0.6690 -0.9423  0.3012
 9621SOL     OW30303   1.924   4.442  10.236  0.4574  0.3899 -0.4318
 9621SOL    HW130304   2.004   4.431  10.286  0.4797 -0.1912 -0.5906
 9621SOL    HW230305   1.865   4.374  10.269  0.3539  0.2198 -0.9554
 9622SOL     OW30306   2.777   3.021   8.572  0.0850  0.2155 -0.1575
 9622SOL    HW130307   2.757   2.927   8.569 -0.3009  0.3124 -0.9696
 9622SOL    HW230308   2.697   3.061   8.607  0.0616  0.2906 -0.2982
 9623SOL     OW30309   3.921   5.740   7.655  0.5134  0.2391  0.3989
 9623SOL    HW130310   3.952   5.795   7.728  2.6114 -1.1831  0.6685
 9623SOL    HW230311   3.994   5.739   7.593  0.1577 -1.4300 -0.0443
 9624SOL     OW30312   5.433   5.571  11.239  0.5090  0.1574 -0.1377
 9624SOL    HW130313   5.452   5.495  11.183  3.9895 -0.0396  1.0852
 9624SOL    HW230314   5.446   5.538  11.328  0.6423  1.8296  0.4873
 9625SOL     OW30315   6.434   7.982  12.029 -0.0467 -0.1090 -0.6971
 9625SOL    HW130316   6.452   7.891  12.002 -0.6730 -0.1915 -0.8486
 9625SOL    HW230317   6.485   7.994  12.109  0.7649 -0.3004 -1.1745
 9626SOL     OW30318   6.906   1.478   6.085 -0.4854 -0.7331  0.2553
 9626SOL    HW130319   6.902   1.572   6.104  0.3525 -0.7191  0.4056
 9626SOL    HW230320   6.816   1.449   6.093 -0.4722 -0.3603  2.5161
 9627SOL     OW30321   6.273   1.099   7.817 -0.1675 -0.0341 -0.1370
 9627SOL    HW130322   6.313   1.068   7.898 -2.7523  0.3546  1.3777
 9627SOL    HW230323   6.199   1.041   7.802 -0.1184  0.2837 -1.9108
 9628SOL     OW30324   1.416   0.018   4.584  0.8798  0.0300  0.0077
 9628SOL    HW130325   1.402   0.094   4.528  0.9000 -0.6894 -1.0044
 9628SOL    HW230326   1.473   0.050   4.654  2.2581  0.5632 -1.3060
 9629SOL     OW30327   1.964   2.958  10.440  0.2253 -0.1563 -0.1159
 9629SOL    HW130328   2.003   2.969  10.353 -1.3295  2.5655 -0.5835
 9629SOL    HW230329   1.870   2.959  10.425 -0.1177  1.6182  1.6460
 9630SOL     OW30330   7.361   6.954  10.890  0.1810 -0.4678  0.4041
 9630SOL    HW130331   7.411   7.019  10.841 -0.9457 -0.1869 -0.4293
 9630SOL    HW230332   7.406   6.871  10.874  0.3880 -0.2204 -0.3252
 9631SOL     OW30333   6.068   7.039   0.655 -0.1658 -0.5120  0.3562
 9631SOL    HW130334   6.011   7.000   0.588  0.9283 -0.5807 -0.5631
 9631SOL    HW230335   6.029   7.011   0.738 -0.9147 -1.3658 -0.2527
 9632SOL     OW30336   1.672   6.653   5.980  0.2771 -0.1199 -0.2071
 9632SOL    HW130337   1.657   6.569   6.023  1.3005 -0.7884 -1.1116
 9632SOL    HW230338   1.704   6.711   6.049 -1.8033 -0.0201  0.7446
 9633SOL     OW30339   6.377   0.635   9.932  0.2913  0.1445 -0.2592
 9633SOL    HW130340   6.303   0.583   9.964  0.0259 -0.0551 -1.1729
 9633SOL    HW230341   6.428   0.655  10.011 -2.2824  2.8507  0.9315
 9634SOL     OW30342   7.547   2.340   6.181 -0.4329 -0.4940 -0.6093
 9634SOL    HW130343   7.564   2.262   6.127  0.1900  1.0332 -2.7337
 9634SOL    HW230344   7.512   2.404   6.120  0.1673  1.2994  0.8539
 9635SOL     OW30345   5.098   2.062   3.178 -0.5233  0.2628  0.2191
 9635SOL    HW130346   5.165   2.106   3.231 -0.7646  0.3499  0.4561
 9635SOL    HW230347   5.015   2.096   3.212 -0.8840 -2.2018  2.1557
 9636SOL     OW30348   6.555   6.579   9.791 -0.3135 -0.8701 -0.6477
 9636SOL    HW130349   6.464   6.571   9.764 -0.7956  0.3155  0.5237
 9636SOL    HW230350   6.591   6.491   9.780 -1.8914 -1.6174 -0.0994
 9637SOL     OW30351   2.500   3.339   0.332 -0.2228 -0.8131 -0.1418
 9637SOL    HW130352   2.469   3.423   0.299 -0.5090 -1.5581 -1.8566
 9637SOL    HW230353   2.531   3.292   0.255  1.7006 -1.5734  1.0321
 9638SOL     OW30354   7.111   1.296   1.173  0.4964 -0.0578 -0.3129
 9638SOL    HW130355   7.102   1.207   1.208  2.0416 -1.0382 -2.2450
 9638SOL    HW230356   7.181   1.335   1.224 -1.0796  0.5876  1.4518
 9639SOL     OW30357   7.322   1.333  12.455  0.3111 -0.1610  0.2160
 9639SOL    HW130358   7.390   1.266  12.457  0.4861  0.0208  1.1393
 9639SOL    HW230359   7.264   1.310  12.529 -0.5501 -0.2266 -0.4580
 9640SOL     OW30360   7.606   5.694   1.509  0.0178 -0.2096  0.2740
 9640SOL    HW130361   7.640   5.719   1.423  1.0045  1.7481  1.1723
 9640SOL    HW230362   7.649   5.611   1.529  0.8975  0.0442 -0.5114
 9641SOL     OW30363   0.216   3.900   6.293 -0.0833 -0.5503  0.0556
 9641SOL    HW130364   0.258   3.821   6.259  1.4924  0.1171  0.3613
 9641SOL    HW230365   0.123   3.877   6.298  0.1327 -1.8915 -1.2018
 9642SOL     OW30366   5.690   7.258   9.645 -0.0958  0.1604  0.3679
 9642SOL    HW130367   5.633   7.329   9.673 -0.2937  0.1978 -0.1147
 9642SOL    HW230368   5.640   7.178   9.663  0.5029  0.0727  1.7959
 9643SOL     OW30369   6.690   1.422   2.707 -0.1641 -0.0636 -0.2229
 9643SOL    HW130370   6.762   1.377   2.750  0.5486  0.8706 -0.4163
 9643SOL    HW230371   6.723   1.443   2.620 -0.2902  1.2594  0.0246
 9644SOL     OW30372   4.221   2.790   1.525 -0.0326 -0.3285 -0.1447
 9644SOL    HW130373   4.243   2.853   1.594 -0.3912 -0.7955  0.4011
 9644SOL    HW230374   4.302   2.740   1.512 -0.1628 -0.7053  0.4389
 9645SOL     OW30375   7.379   5.650   5.540  0.3497 -0.2265  0.0377
 9645SOL    HW130376   7.437   5.709   5.492  0.7129  0.0822  0.8325
 9645SOL    HW230377   7.404   5.662   5.632  0.3549 -1.5334  0.2288
 9646SOL     OW30378   7.304   4.347   8.799  0.0845 -0.0750  0.1947
 9646SOL    HW130379   7.251   4.423   8.777  0.2186 -0.2167 -0.6252
 9646SOL    HW230380   7.269   4.276   8.745  2.0857  0.1874 -1.5834
 9647SOL     OW30381   5.473   1.632  12.064  0.2283  0.7941  0.4191
 9647SOL    HW130382   5.407   1.661  12.127 -0.2762 -0.7720  0.6539
 9647SOL    HW230383   5.557   1.659  12.103 -0.0313 -0.6272  2.0650
 9648SOL     OW30384   5.904   7.383   1.808  0.1958 -0.3061  0.3746
 9648SOL    HW130385   5.879   7.475   1.792 -0.8157 -0.8654 -1.6080
 9648SOL    HW230386   5.910   7.377   1.903 -0.1275  1.7186  0.5865
 9649SOL     OW30387   6.358   2.847   6.363 -0.6442 -0.1147  0.5357
 9649SOL    HW130388   6.318   2.839   6.277 -0.5882 -0.0048  0.4991
 9649SOL    HW230389   6.445   2.809   6.353  0.8323  3.1246 -0.4540
 9650SOL     OW30390   0.348   7.382   1.500  0.2239 -0.2986 -0.5352
 9650SOL    HW130391   0.266   7.350   1.462 -0.2277  1.8096 -1.4722
 9650SOL    HW230392   0.323   7.462   1.546  1.9156  1.0607 -1.8527
 9651SOL     OW30393   1.622   5.181   4.577 -0.5412 -0.5937 -0.1861
 9651SOL    HW130394   1.704   5.162   4.623 -0.5805 -1.4231 -0.4569
 9651SOL    HW230395   1.649   5.201   4.487 -0.7153 -2.0469 -0.5880
 9652SOL     OW30396   2.487   3.093   3.467  0.0463  0.1779  0.2155
 9652SOL    HW130397   2.578   3.113   3.442  0.3111 -1.4550 -0.2111
 9652SOL    HW230398   2.482   3.120   3.559  0.1505  2.7456 -0.4439
 9653SOL     OW30399   6.031   0.754  10.061  0.0057  0.2435 -0.1346
 9653SOL    HW130400   5.956   0.754  10.001  0.6935 -0.2513 -1.0307
 9653SOL    HW230401   6.057   0.662  10.067  0.9542  0.4851 -0.3820
 9654SOL     OW30402   5.811   4.906   2.043 -0.3195 -0.9720 -0.2413
 9654SOL    HW130403   5.801   4.872   1.955 -0.4432 -1.1114 -0.1740
 9654SOL    HW230404   5.895   4.872   2.073 -0.6030 -1.5065 -0.0458
 9655SOL     OW30405   7.454   6.553   4.108  0.2391  0.2334  0.3762
 9655SOL    HW130406   7.428   6.609   4.035 -1.3063  0.7374  1.2719
 9655SOL    HW230407   7.515   6.607   4.160  1.4614 -0.1793 -0.5720
 9656SOL     OW30408   3.815   1.206   5.542  0.3822  0.3161  0.2608
 9656SOL    HW130409   3.856   1.179   5.460 -0.3404  0.8323 -0.2830
 9656SOL    HW230410   3.859   1.154   5.609  1.6212  0.5467 -0.3407
 9657SOL     OW30411   2.858   5.448   7.698  0.0172 -0.1125  0.6027
 9657SOL    HW130412   2.829   5.504   7.626 -0.6534  0.6773  1.4604
 9657SOL    HW230413   2.785   5.449   7.760 -0.1147 -2.1159  0.5621
 9658SOL     OW30414   6.391   2.507  12.150 -0.1659  0.1949  0.2225
 9658SOL    HW130415   6.433   2.557  12.220  0.5274 -1.1766  0.8201
 9658SOL    HW230416   6.357   2.573  12.090  2.1779  1.3914  0.1168
 9659SOL     OW30417   1.699   5.322   4.277  0.4166 -0.3665 -0.2880
 9659SOL    HW130418   1.659   5.255   4.222 -1.1242  0.9824 -0.8749
 9659SOL    HW230419   1.756   5.372   4.218  1.1868 -0.8369  0.0434
 9660SOL     OW30420   5.316   5.543   1.839 -0.0780  0.2676  0.7285
 9660SOL    HW130421   5.354   5.540   1.751 -1.7570 -0.7206  0.0074
 9660SOL    HW230422   5.386   5.580   1.893  1.0859  0.6581 -0.9539
 9661SOL     OW30423   4.689   7.286  11.697  0.2160 -0.1081  0.1403
 9661SOL    HW130424   4.595   7.291  11.714 -0.5180 -2.4283 -2.5790
 9661SOL    HW230425   4.701   7.329  11.613  1.4402 -0.7328 -0.0257
 9662SOL     OW30426   4.695   5.774   6.962  0.0578  0.3550 -0.4462
 9662SOL    HW130427   4.631   5.703   6.961  0.9499 -0.4945 -0.0602
 9662SOL    HW230428   4.686   5.817   6.877  0.3109 -0.9955 -1.1849
 9663SOL     OW30429   5.696   4.855   8.961 -0.0130 -0.2206  0.8406
 9663SOL    HW130430   5.687   4.839   8.867  0.4938 -1.0533  0.9273
 9663SOL    HW230431   5.634   4.925   8.979 -0.5899 -0.4977  0.0018
 9664SOL     OW30432   7.089   5.230   4.312  0.1397  0.4464  0.2207
 9664SOL    HW130433   7.034   5.182   4.374 -0.8400  0.9352 -0.2375
 9664SOL    HW230434   7.043   5.313   4.299  0.9408  0.8236 -0.2656
 9665SOL     OW30435   5.039   6.390   1.037  0.1913 -0.2742 -0.2642
 9665SOL    HW130436   4.979   6.429   1.100 -0.5004  0.7491 -1.5087
 9665SOL    HW230437   4.986   6.326   0.990  0.7088 -1.0506  0.1988
 9666SOL     OW30438   7.833   0.613   6.365 -0.3462  0.1739 -0.2476
 9666SOL    HW130439   7.799   0.564   6.440  2.0563  0.9805  1.4795
 9666SOL    HW230440   7.844   0.546   6.296  2.9444 -2.0129  2.0458
 9667SOL     OW30441   3.415   2.256   2.670  0.1295  0.1631 -0.4325
 9667SOL    HW130442   3.349   2.326   2.671 -0.1465 -0.0994  1.1353
 9667SOL    HW230443   3.385   2.196   2.602  0.6881  1.8162 -2.2739
 9668SOL     OW30444   5.881   1.345   7.559 -0.1985 -0.0859  0.5502
 9668SOL    HW130445   5.938   1.295   7.501 -0.7545 -0.9235  0.7207
 9668SOL    HW230446   5.801   1.360   7.509 -0.2204  0.2288  0.6717
 9669SOL     OW30447   7.710   0.532   5.642 -0.6109 -0.4394  0.6081
 9669SOL    HW130448   7.705   0.561   5.733  1.6087 -0.8634  0.9335
 9669SOL    HW230449   7.801   0.504   5.632 -1.1527 -1.6309 -1.3790
 9670SOL     OW30450   1.990   4.126   3.074  0.3226 -0.0113 -0.0838
 9670SOL    HW130451   2.030   4.211   3.090  0.7018 -0.1821 -0.0931
 9670SOL    HW230452   1.987   4.083   3.160 -0.2334  0.1651 -0.0139
 9671SOL     OW30453   2.375   3.359   4.952  0.4319 -0.2477  0.1551
 9671SOL    HW130454   2.336   3.285   4.905  1.8856 -2.0465  1.6146
 9671SOL    HW230455   2.466   3.362   4.920 -0.3458  3.1682 -2.3781
 9672SOL     OW30456   6.128   0.035  10.266 -0.2739 -0.6881  0.2083
 9672SOL    HW130457   6.125   0.083  10.184  0.3591 -0.7830  0.1245
 9672SOL    HW230458   6.149   0.101  10.332  0.3097 -0.7925  0.1339
 9673SOL     OW30459   4.240   6.420   0.308 -0.1307  0.3851 -0.0022
 9673SOL    HW130460   4.202   6.354   0.250 -1.8508  0.7951  0.5926
 9673SOL    HW230461   4.317   6.452   0.261  0.6220 -1.8535 -0.4079
 9674SOL     OW30462   4.764   3.571   3.645  0.5950  0.4287 -0.2783
 9674SOL    HW130463   4.783   3.628   3.570  2.5559  1.5390  0.9492
 9674SOL    HW230464   4.783   3.626   3.721 -1.2319 -0.6938  1.0521
 9675SOL     OW30465   3.821   7.895   3.294 -0.1186  0.5884  0.1947
 9675SOL    HW130466   3.766   7.956   3.245  0.6652  0.3586 -1.0164
 9675SOL    HW230467   3.895   7.877   3.236 -2.1637 -4.6408 -1.3970
 9676SOL     OW30468   7.772   3.713   4.933  0.0273 -0.3775  0.1271
 9676SOL    HW130469   7.824   3.792   4.923 -0.5880  0.1954  1.2042
 9676SOL    HW230470   7.836   3.641   4.932  0.4408 -0.0748 -2.6300
 9677SOL     OW30471   2.613   2.050   4.462  0.2661 -0.1162  0.0014
 9677SOL    HW130472   2.694   2.029   4.414  0.0729 -0.8975  0.0059
 9677SOL    HW230473   2.566   2.110   4.404  2.1335  2.7586  1.2009
 9678SOL     OW30474   7.673   3.752   8.159  0.5226 -0.1938 -0.4339
 9678SOL    HW130475   7.721   3.673   8.133 -0.0222 -0.1599 -1.5726
 9678SOL    HW230476   7.639   3.788   8.077  0.7528  1.2270  0.0815
 9679SOL     OW30477   5.016   4.307   5.733 -0.4903 -0.0699  0.1537
 9679SOL    HW130478   5.048   4.222   5.762  0.6191  0.3185  0.1216
 9679SOL    HW230479   4.931   4.317   5.775  0.1082 -0.4707  1.4956
 9680SOL     OW30480   4.297   4.343   5.901  0.8864 -0.1095 -0.2439
 9680SOL    HW130481   4.281   4.270   5.960 -1.2616  0.9015  0.5167
 9680SOL    HW230482   4.307   4.303   5.815  2.0943 -1.4393  0.4809
 9681SOL     OW30483   3.644   1.367  12.282  0.2818  0.0537  0.5446
 9681SOL    HW130484   3.673   1.427  12.214  0.7072 -2.2166 -1.3805
 9681SOL    HW230485   3.724   1.325  12.313 -0.1929 -0.9459  0.4502
 9682SOL     OW30486   5.616   1.580   1.823 -0.0455  0.1650  0.1762
 9682SOL    HW130487   5.589   1.618   1.906 -1.3829 -1.1861  0.3992
 9682SOL    HW230488   5.534   1.566   1.775  0.6324  0.0968 -1.0109
 9683SOL     OW30489   0.921   1.525   5.078  0.7947  0.2045  0.3168
 9683SOL    HW130490   0.923   1.566   5.164  1.0487  1.0664 -0.0790
 9683SOL    HW230491   0.992   1.568   5.030 -0.0216  0.5250 -0.6474
 9684SOL     OW30492   5.926   4.916   5.476 -0.0749 -0.1332 -0.2672
 9684SOL    HW130493   5.861   4.846   5.478 -0.1475 -0.0509  0.8707
 9684SOL    HW230494   5.907   4.964   5.395 -0.0750 -1.3591 -1.0211
 9685SOL     OW30495   2.033   6.763   9.914 -0.3336 -0.1002  0.1939
 9685SOL    HW130496   2.118   6.735   9.881  0.6278  1.4161  1.2541
 9685SOL    HW230497   1.972   6.743   9.843  0.9563 -0.8930 -0.7348
 9686SOL     OW30498   3.761   0.554   1.551  0.1504  0.0660  0.3226
 9686SOL    HW130499   3.732   0.608   1.624  2.1925  0.0029  1.2346
 9686SOL    HW230500   3.699   0.574   1.480 -1.1734  0.9934  1.6861
 9687SOL     OW30501   0.039   7.672   6.495 -0.6029  0.4851 -0.5546
 9687SOL    HW130502   0.044   7.596   6.554 -0.3830  1.2054  0.3673
 9687SOL    HW230503   0.119   7.721   6.513 -0.1980  0.3680 -1.9519
 9688SOL     OW30504   6.913   4.638   5.454 -0.0141 -0.1398 -0.3362
 9688SOL    HW130505   6.982   4.581   5.490  0.7981  1.0520  0.0546
 9688SOL    HW230506   6.840   4.578   5.435  0.2990 -1.1212  1.3351
 9689SOL     OW30507   6.493   3.770   2.387 -0.0747 -0.0656 -0.1931
 9689SOL    HW130508   6.413   3.779   2.335  0.5019 -1.3250 -1.3369
 9689SOL    HW230509   6.512   3.859   2.416  0.6849  1.1130 -3.8377
 9690SOL     OW30510   6.088   3.185   4.254  0.7902 -0.2404  0.2704
 9690SOL    HW130511   6.055   3.112   4.307 -2.6684  0.6969 -0.3342
 9690SOL    HW230512   6.042   3.262   4.287 -0.2000  0.6645 -2.8582
 9691SOL     OW30513   1.339   3.848   9.197  0.0440 -0.0915  0.8887
 9691SOL    HW130514   1.423   3.836   9.153 -1.0030  2.5266 -2.2331
 9691SOL    HW230515   1.334   3.942   9.215 -1.7517 -0.3641  2.0910
 9692SOL     OW30516   3.053   1.171   6.971 -0.0332  0.6601  0.0269
 9692SOL    HW130517   3.028   1.080   6.988 -0.1270  0.7198  0.2101
 9692SOL    HW230518   3.081   1.172   6.880  0.0800  0.4216  0.0599
 9693SOL     OW30519   0.561   0.087  12.424 -0.0439  0.0669 -0.0056
 9693SOL    HW130520   0.616   0.085  12.502  1.4820 -0.5184 -1.0452
 9693SOL    HW230521   0.615   0.130  12.358 -0.4841 -1.2640 -1.2923
 9694SOL     OW30522   6.766   4.592   1.749  0.1043  0.6051 -0.4273
 9694SOL    HW130523   6.727   4.638   1.823  0.6935  0.2605  0.1126
 9694SOL    HW230524   6.830   4.533   1.789  0.5395  0.5242 -1.2234
 9695SOL     OW30525   0.807   5.935  11.917 -0.3067 -0.0808 -0.3908
 9695SOL    HW130526   0.873   5.912  11.852  0.1814  0.8796 -0.2561
 9695SOL    HW230527   0.779   6.024  11.893 -0.4418  0.1129  0.4428
 9696SOL     OW30528   4.663   1.553   7.279  0.1891  0.3780  0.4373
 9696SOL    HW130529   4.746   1.533   7.237  0.2310 -1.0957  1.1272
 9696SOL    HW230530   4.600   1.562   7.207  0.7158  0.3213 -0.0319
 9697SOL     OW30531   0.286   3.663   6.179 -0.2987 -0.3650  0.1326
 9697SOL    HW130532   0.342   3.588   6.158  1.0138  0.8029 -0.7443
 9697SOL    HW230533   0.202   3.624   6.203 -0.3432 -2.0929 -2.3785
 9698SOL     OW30534   1.954   0.623  10.137 -0.0564 -0.0128  0.1006
 9698SOL    HW130535   1.875   0.647  10.088  1.2644  1.5106 -1.4346
 9698SOL    HW230536   1.925   0.618  10.228 -2.3590 -1.7273 -0.6144
 9699SOL     OW30537   0.829   0.929   4.238 -0.0990  0.7403 -0.6344
 9699SOL    HW130538   0.861   0.944   4.149  0.5421  1.1717 -0.3330
 9699SOL    HW230539   0.885   0.983   4.294 -0.5509  0.5405  0.0264
 9700SOL     OW30540   1.058   3.521   2.755 -0.1206  0.5469 -0.1728
 9700SOL    HW130541   1.140   3.566   2.732  0.1397  0.2903  0.2532
 9700SOL    HW230542   1.051   3.529   2.850 -0.8709  1.0415 -0.2590
 9701SOL     OW30543   7.352   3.010   8.530 -0.3119 -0.7405 -0.4668
 9701SOL    HW130544   7.421   3.074   8.513 -0.8060 -0.4075 -1.2644
 9701SOL    HW230545   7.395   2.942   8.581  0.8312 -0.9674 -1.6716
 9702SOL     OW30546   1.149   7.213   9.681 -0.6850 -0.3241 -0.2238
 9702SOL    HW130547   1.222   7.241   9.627 -1.7292 -0.8429 -1.9811
 9702SOL    HW230548   1.165   7.121   9.699 -0.5282 -0.2459  0.0452
 9703SOL     OW30549   0.687   0.985   1.149 -0.2336 -0.0091  0.3689
 9703SOL    HW130550   0.657   1.070   1.118  0.6180  0.1442 -0.0844
 9703SOL    HW230551   0.738   0.949   1.075 -0.8306 -1.0462  0.4365
 9704SOL     OW30552   6.883   3.252   0.287 -0.2990 -1.1117  0.5725
 9704SOL    HW130553   6.821   3.313   0.327  0.7446 -0.0634  0.6644
 9704SOL    HW230554   6.829   3.193   0.234 -1.4451 -0.8388  1.4088
 9705SOL     OW30555   4.954   1.224   3.085 -0.0984 -0.3182 -0.1567
 9705SOL    HW130556   4.917   1.262   3.005 -0.0889  1.2943  0.5844
 9705SOL    HW230557   5.015   1.158   3.053 -1.9175 -1.4944 -1.4432
 9706SOL     OW30558   6.670   4.467   1.176 -0.3147 -0.2065 -0.5178
 9706SOL    HW130559   6.702   4.409   1.106  0.3346  0.8522 -1.1304
 9706SOL    HW230560   6.587   4.502   1.141  0.1365  0.5182 -0.8839
 9707SOL     OW30561   6.354   6.711   5.387 -0.0670  0.3040 -0.1514
 9707SOL    HW130562   6.377   6.787   5.333  1.5511 -0.4581 -0.5649
 9707SOL    HW230563   6.327   6.644   5.324  0.9236 -0.2815  0.0351
 9708SOL     OW30564   7.124   1.813   8.940  0.6632  0.4608 -0.0155
 9708SOL    HW130565   7.204   1.862   8.920  2.4835 -1.6667  1.4839
 9708SOL    HW230566   7.138   1.781   9.030 -2.1473  0.4404  0.4969
 9709SOL     OW30567   3.520   0.537  11.546  1.1086 -0.5171 -0.4338
 9709SOL    HW130568   3.603   0.507  11.510  0.4610 -0.4383 -2.0869
 9709SOL    HW230569   3.476   0.581  11.473 -0.7031 -1.1868  0.1772
 9710SOL     OW30570   6.142   1.063   4.062  0.2162 -0.2684 -0.2519
 9710SOL    HW130571   6.087   1.114   4.003  1.2447 -0.8603 -1.7696
 9710SOL    HW230572   6.214   1.032   4.008  0.5582 -1.8662  1.0353
 9711SOL     OW30573   1.682   1.514   1.598  0.0724  0.5346 -0.1567
 9711SOL    HW130574   1.636   1.536   1.679 -0.3955  0.2849 -0.3525
 9711SOL    HW230575   1.765   1.477   1.627 -0.4937 -0.4715  0.2487
 9712SOL     OW30576   1.206   2.267   5.797  0.1267  0.8921 -0.1853
 9712SOL    HW130577   1.125   2.272   5.848 -0.3886  2.9720 -1.1281
 9712SOL    HW230578   1.268   2.322   5.845  1.4752 -1.6240  1.2012
 9713SOL     OW30579   6.776   0.235   5.019  0.2238  0.2938  0.1427
 9713SOL    HW130580   6.845   0.280   4.971  0.3832  0.2455  0.3236
 9713SOL    HW230581   6.752   0.295   5.090 -1.3346  1.2052 -1.0779
 9714SOL     OW30582   0.527   1.734   5.425 -0.0893  0.0493  0.1078
 9714SOL    HW130583   0.536   1.705   5.334  0.7065 -1.6139  0.6689
 9714SOL    HW230584   0.484   1.819   5.419  0.9636  0.4977 -1.8812
 9715SOL     OW30585   3.993   2.679   9.624  0.0490  0.1995 -0.0456
 9715SOL    HW130586   4.082   2.651   9.646 -0.2987 -0.6627  0.3324
 9715SOL    HW230587   3.965   2.732   9.699  0.1759  0.3043 -0.0734
 9716SOL     OW30588   6.611   1.025   1.025  0.2883 -0.2582 -0.3863
 9716SOL    HW130589   6.634   1.065   1.109  1.9187 -0.4491 -0.7099
 9716SOL    HW230590   6.564   0.945   1.048 -0.1019  0.1563  0.3121
 9717SOL     OW30591   4.377   5.534   9.431 -0.0255  0.3907 -0.0054
 9717SOL    HW130592   4.360   5.607   9.371 -1.9288  0.4307  0.5376
 9717SOL    HW230593   4.400   5.461   9.373  1.9208  1.3729 -0.5548
 9718SOL     OW30594   7.470   7.228  12.478 -0.1251  0.4557  0.3315
 9718SOL    HW130595   7.452   7.136  12.498  0.0145  0.3811  0.1140
 9718SOL    HW230596   7.387   7.273  12.495 -0.4336  0.1631 -0.3485
 9719SOL     OW30597   6.481   4.080   4.105  0.0226 -0.0982 -0.0931
 9719SOL    HW130598   6.575   4.087   4.090 -0.2175  0.5615 -1.3679
 9719SOL    HW230599   6.474   4.059   4.198  1.4277 -0.2863 -0.0022
 9720SOL     OW30600   5.529   6.558   4.520  0.1172  0.2543  0.4354
 9720SOL    HW130601   5.465   6.513   4.465 -0.9224  0.5225  1.3693
 9720SOL    HW230602   5.599   6.584   4.460 -0.2935 -0.7036 -0.4889
 9721SOL     OW30603   6.173   2.291   4.238  0.1292 -0.2564 -0.1033
 9721SOL    HW130604   6.265   2.288   4.212  0.2734 -0.0820  0.3785
 9721SOL    HW230605   6.149   2.199   4.252  0.5809 -0.2195  0.9658
 9722SOL     OW30606   6.203   2.398   1.629 -0.1186  0.2345 -0.0659
 9722SOL    HW130607   6.250   2.315   1.620 -0.6681 -0.4098  2.2329
 9722SOL    HW230608   6.271   2.465   1.617  0.7956 -0.6040  0.2713
 9723SOL     OW30609   6.173   0.544   6.765 -0.2976  0.0273  0.5713
 9723SOL    HW130610   6.155   0.480   6.834  2.7908 -1.2637  0.3562
 9723SOL    HW230611   6.139   0.504   6.685  0.9462 -1.0571  0.5588
 9724SOL     OW30612   7.214   0.016   9.709 -0.4184 -0.1601  0.3650
 9724SOL    HW130613   7.207  -0.006   9.802  3.3786 -2.4785  0.3326
 9724SOL    HW230614   7.269   0.094   9.707 -1.0668  0.2922  0.0592
 9725SOL     OW30615   2.680   1.722   5.008 -0.2097  0.1724 -0.1271
 9725SOL    HW130616   2.602   1.685   4.966 -0.0920 -0.0703 -0.1331
 9725SOL    HW230617   2.659   1.815   5.021 -0.5529  0.0772 -0.0027
 9726SOL     OW30618   4.420   0.705   3.438 -0.4660  0.2788 -0.2138
 9726SOL    HW130619   4.429   0.729   3.530 -1.7132  0.5197 -0.1383
 9726SOL    HW230620   4.497   0.652   3.419 -0.5950 -0.4577  1.1994
 9727SOL     OW30621   2.003   1.462   0.175  0.4715 -0.6363  0.0188
 9727SOL    HW130622   2.001   1.396   0.105  1.6446  0.7346 -1.4037
 9727SOL    HW230623   1.949   1.425   0.245  0.6116 -2.8215 -0.9419
 9728SOL     OW30624   2.554   5.375   1.379  0.0808  0.2206  0.9514
 9728SOL    HW130625   2.482   5.429   1.349  0.9173 -0.1604 -2.0613
 9728SOL    HW230626   2.627   5.436   1.389  0.1794  0.1415  0.7324
 9729SOL     OW30627   4.178   7.726   1.598  0.0577  0.5885  0.1430
 9729SOL    HW130628   4.221   7.644   1.622 -0.5044  0.2527  0.0170
 9729SOL    HW230629   4.164   7.719   1.503 -0.4007  0.6318  0.2048
 9730SOL     OW30630   3.498   0.286   9.509 -0.0945 -0.0170 -0.6300
 9730SOL    HW130631   3.498   0.367   9.561 -0.4056 -0.4642  0.0862
 9730SOL    HW230632   3.559   0.303   9.438  1.3233  0.1728  0.5844
 9731SOL     OW30633   7.647   7.153  10.839  0.3092  0.0863  0.5718
 9731SOL    HW130634   7.710   7.185  10.775  0.0038  0.9648  0.6909
 9731SOL    HW230635   7.572   7.124  10.787  1.0876 -1.6736  0.3816
 9732SOL     OW30636   3.018   2.181   2.036  0.1732  0.1457  0.2758
 9732SOL    HW130637   3.061   2.237   2.100  0.7541 -0.5004  0.4668
 9732SOL    HW230638   3.081   2.112   2.018  0.0002  0.2864 -0.9676
 9733SOL     OW30639   3.677   1.948   4.929  0.2116  0.4214  0.0029
 9733SOL    HW130640   3.671   1.902   5.013  0.3177  1.1261  0.4072
 9733SOL    HW230641   3.771   1.949   4.910  0.2521  0.8390  0.2108
 9734SOL     OW30642   3.047   2.676   0.238  0.1359 -0.8083  0.1615
 9734SOL    HW130643   3.052   2.617   0.164  1.0455 -1.4720  0.7337
 9734SOL    HW230644   3.098   2.752   0.213  1.1562 -1.3919  0.4104
 9735SOL     OW30645   5.833   5.331   5.305 -0.0063  0.3604 -0.0344
 9735SOL    HW130646   5.860   5.422   5.288  0.5548  0.5196  1.5341
 9735SOL    HW230647   5.755   5.339   5.360 -0.8689 -0.1281 -1.1450
 9736SOL     OW30648   2.634   6.621   9.615 -0.0247 -0.1564 -0.1134
 9736SOL    HW130649   2.696   6.548   9.617  1.4149  0.9951 -0.6422
 9736SOL    HW230650   2.601   6.627   9.705  1.6317 -0.0221  0.5229
 9737SOL     OW30651   3.552   0.505  11.085  0.3624  0.0725  0.3064
 9737SOL    HW130652   3.612   0.438  11.052  0.4648 -0.8200  2.1752
 9737SOL    HW230653   3.465   0.470  11.067  0.3998  0.3077 -0.3601
 9738SOL     OW30654   2.178   5.672   5.498  0.5221 -0.4845 -0.0723
 9738SOL    HW130655   2.236   5.645   5.427  1.2170  0.2581  0.2047
 9738SOL    HW230656   2.236   5.702   5.567 -0.0094 -3.2686  1.7682
 9739SOL     OW30657   2.279   6.758   5.257  0.1928 -0.0803  0.2751
 9739SOL    HW130658   2.326   6.823   5.205 -1.2360  1.6730  1.0629
 9739SOL    HW230659   2.229   6.707   5.192  0.7432  0.0974 -0.2941
 9740SOL     OW30660   7.705   5.734   1.240 -0.0371  0.4605  0.1244
 9740SOL    HW130661   7.715   5.694   1.154 -0.7733  3.3486 -1.4276
 9740SOL    HW230662   7.780   5.793   1.248 -0.5694  1.0469  0.9510
 9741SOL     OW30663   4.203   7.016   6.028 -0.2689  0.3505 -0.1902
 9741SOL    HW130664   4.194   6.979   5.940  0.8232 -0.3398 -0.0316
 9741SOL    HW230665   4.295   7.043   6.034 -0.1950 -0.0836  0.9121
 9742SOL     OW30666   5.976   2.783   4.631  0.2256  0.0157 -0.1764
 9742SOL    HW130667   5.889   2.745   4.621 -0.1084  0.5412  0.6356
 9742SOL    HW230668   5.972   2.831   4.714  1.3633 -0.1583 -0.0030
 9743SOL     OW30669   2.341   0.167   7.566 -0.2534  0.2460 -0.2810
 9743SOL    HW130670   2.333   0.222   7.643 -1.0749  0.1158 -0.2612
 9743SOL    HW230671   2.412   0.206   7.515  0.2863  0.3353  0.5256
 9744SOL     OW30672   6.222   6.742   4.534 -0.0462  0.1533 -0.1610
 9744SOL    HW130673   6.172   6.660   4.534  2.3544 -1.4010  1.1790
 9744SOL    HW230674   6.244   6.756   4.442 -1.9581  0.3361 -0.6508
 9745SOL     OW30675   2.813   5.907   0.081 -0.0898 -0.2076 -0.7941
 9745SOL    HW130676   2.861   5.884   0.002  0.6332  0.4917 -0.5612
 9745SOL    HW230677   2.774   5.992   0.062  0.5595  0.2342 -0.2018
 9746SOL     OW30678   2.925   5.357  11.960 -0.0602  0.0382  0.1615
 9746SOL    HW130679   2.870   5.429  11.990  0.3148  0.8462 -1.0103
 9746SOL    HW230680   2.878   5.320  11.885 -0.2625 -0.9770  0.7680
 9747SOL     OW30681   4.289   6.245  10.288  0.0175  0.1693  0.0789
 9747SOL    HW130682   4.265   6.156  10.315  1.4411 -1.4285 -3.3167
 9747SOL    HW230683   4.384   6.246  10.291  0.0240  1.5902  0.0542
 9748SOL     OW30684   4.540   7.471   0.151 -0.0157 -0.3006  0.6464
 9748SOL    HW130685   4.577   7.392   0.191 -1.0928 -0.1606  1.9885
 9748SOL    HW230686   4.455   7.482   0.193 -0.1616  1.2251  0.0254
 9749SOL     OW30687   2.914   2.910   7.747 -0.0951 -0.1006  0.5979
 9749SOL    HW130688   2.991   2.855   7.729  0.7954  0.3235  2.7466
 9749SOL    HW230689   2.912   2.917   7.843 -2.1134  0.9276  0.5296
 9750SOL     OW30690   2.836   0.649   5.705 -0.0232  0.1428  0.2879
 9750SOL    HW130691   2.898   0.705   5.751 -0.4242 -0.4377  1.5927
 9750SOL    HW230692   2.838   0.680   5.614  0.4903  1.5922  0.7651
 9751SOL     OW30693   3.793   6.258   0.831  0.3270 -0.4936 -0.7412
 9751SOL    HW130694   3.779   6.325   0.898 -0.5851 -0.8066 -0.5973
 9751SOL    HW230695   3.767   6.300   0.749  0.0546 -0.5569 -0.6916
 9752SOL     OW30696   5.097   2.672   5.577 -0.7829 -0.2864  0.2699
 9752SOL    HW130697   5.063   2.588   5.547  0.1370  0.2858 -2.6850
 9752SOL    HW230698   5.035   2.737   5.543  0.6710  0.4458 -1.1244
 9753SOL     OW30699   7.516   4.401   4.777 -0.2256  0.7246  0.2610
 9753SOL    HW130700   7.438   4.431   4.823  0.5757  0.2488  2.0297
 9753SOL    HW230701   7.587   4.456   4.811  0.2017  1.3587 -1.5381
 9754SOL     OW30702   5.043   4.888   5.636 -0.4624 -0.2672  1.2204
 9754SOL    HW130703   5.029   4.854   5.548  1.0754 -0.7123  1.1288
 9754SOL    HW230704   4.967   4.945   5.652 -1.4509 -1.2349  0.1499
 9755SOL     OW30705   3.580   0.534   1.343  0.0898  0.4468  0.1287
 9755SOL    HW130706   3.609   0.589   1.270 -0.6660  1.0835  0.2919
 9755SOL    HW230707   3.565   0.448   1.304  1.2056  0.3617 -0.1486
 9756SOL     OW30708   1.116   6.951   4.053 -0.2196  0.5069  0.6806
 9756SOL    HW130709   1.190   6.893   4.067 -2.0007 -1.7758  1.2672
 9756SOL    HW230710   1.125   6.980   3.962  0.5315 -1.0077  0.2392
 9757SOL     OW30711   6.610   4.970  12.278  0.2572  0.2753  0.8599
 9757SOL    HW130712   6.573   4.896  12.229 -2.2439  0.8461  1.7589
 9757SOL    HW230713   6.684   4.999  12.225 -0.2309 -1.3124 -0.7804
 9758SOL     OW30714   7.760   3.234   8.186  0.0391  0.0643 -0.1332
 9758SOL    HW130715   7.678   3.209   8.143  0.2575  0.4743 -0.8089
 9758SOL    HW230716   7.826   3.178   8.147 -0.2445 -2.0534  2.2009
 9759SOL     OW30717   2.041   2.708   3.887 -0.0471  0.2543 -0.0275
 9759SOL    HW130718   2.093   2.783   3.916  0.7819 -0.6234  0.7954
 9759SOL    HW230719   2.007   2.670   3.967 -0.9372  0.0655 -0.4798
 9760SOL     OW30720   1.992   6.295   9.192  0.1328 -0.0145 -0.8111
 9760SOL    HW130721   2.068   6.352   9.207 -1.5178  2.1707 -0.1210
 9760SOL    HW230722   1.997   6.230   9.262  1.2429  0.2483 -0.6327
 9761SOL     OW30723   2.553   3.231   1.350  0.2758  0.6183 -0.1589
 9761SOL    HW130724   2.491   3.293   1.387 -0.5853  0.1779 -0.8239
 9761SOL    HW230725   2.581   3.273   1.268 -0.7832 -0.1163 -0.9249
 9762SOL     OW30726   2.888   1.236   5.784 -0.5392 -0.5371  0.9963
 9762SOL    HW130727   2.838   1.155   5.799  0.4161 -1.5478 -0.8594
 9762SOL    HW230728   2.863   1.263   5.696  0.6449  0.0586  0.8237
 9763SOL     OW30729   6.240   5.617  10.927  0.3152 -0.7379  0.6073
 9763SOL    HW130730   6.153   5.638  10.892  0.1946 -0.1811  1.2249
 9763SOL    HW230731   6.277   5.702  10.952  0.7525 -1.0405  1.0022
 9764SOL     OW30732   0.715   2.761  11.869  0.0207  0.3732  0.7477
 9764SOL    HW130733   0.752   2.791  11.786 -0.4832 -1.1402 -0.0667
 9764SOL    HW230734   0.721   2.665  11.865 -1.6871  0.1758  1.6353
 9765SOL     OW30735   7.290   7.913   6.653  0.6088  0.4345  0.4224
 9765SOL    HW130736   7.385   7.918   6.666  0.7531  0.8317 -0.6337
 9765SOL    HW230737   7.279   7.843   6.588  0.1034 -0.1540  1.1314
 9766SOL     OW30738   3.435   4.820   8.160 -0.2707 -0.1826 -0.1453
 9766SOL    HW130739   3.375   4.781   8.223 -2.1069  0.4472 -1.4075
 9766SOL    HW230740   3.378   4.849   8.088  1.3471  1.9438 -0.6675
 9767SOL     OW30741   2.157   1.915   5.731  0.0758 -0.2553  0.0018
 9767SOL    HW130742   2.242   1.878   5.754  0.3902  0.4524  0.0137
 9767SOL    HW230743   2.178   1.987   5.671 -0.5159 -0.0821 -0.0021
 9768SOL     OW30744   6.544   6.744   7.373  0.1076 -0.5478  0.1261
 9768SOL    HW130745   6.555   6.786   7.458  2.3460  1.8219 -1.1827
 9768SOL    HW230746   6.484   6.802   7.326 -0.2162 -1.2233 -0.2987
 9769SOL     OW30747   0.169   7.784   4.601 -0.2505  0.3766 -0.1420
 9769SOL    HW130748   0.198   7.817   4.686  2.3112 -1.1627 -0.3029
 9769SOL    HW230749   0.124   7.702   4.621 -0.9194  0.7321 -0.1789
 9770SOL     OW30750   0.923   3.355   1.779  0.2910  0.2838 -0.0802
 9770SOL    HW130751   0.960   3.442   1.764 -0.7753  0.9855  1.1150
 9770SOL    HW230752   0.950   3.333   1.868  1.2816 -1.0238 -0.6713
 9771SOL     OW30753   2.162   3.502   4.506  0.0958  0.5315  0.4401
 9771SOL    HW130754   2.105   3.569   4.468 -1.2186 -1.7367 -1.9123
 9771SOL    HW230755   2.111   3.465   4.578 -0.5851 -0.1398 -0.3759
 9772SOL     OW30756   4.271   5.282  11.132  0.1169  0.3494  0.2232
 9772SOL    HW130757   4.238   5.359  11.178  1.4628  0.5650  0.8479
 9772SOL    HW230758   4.260   5.210  11.194  1.1795  0.4988  0.6080
 9773SOL     OW30759   4.399   7.741   1.924  0.4597  0.3531 -0.3909
 9773SOL    HW130760   4.472   7.683   1.903  0.3471  0.7956 -2.1461
 9773SOL    HW230761   4.321   7.694   1.895  0.0209 -0.0400  1.3135
 9774SOL     OW30762   7.154   5.927   0.540 -0.3888 -0.3567 -0.1363
 9774SOL    HW130763   7.120   5.994   0.599 -0.9209  0.9411 -1.8260
 9774SOL    HW230764   7.249   5.935   0.545 -0.4093 -0.6132  0.8876
 9775SOL     OW30765   5.923   3.628   2.541 -0.2564 -0.2576 -0.3466
 9775SOL    HW130766   5.835   3.657   2.518 -0.1555 -1.9249 -3.4088
 9775SOL    HW230767   5.981   3.693   2.501 -0.1029 -0.4673 -0.4672
 9776SOL     OW30768   2.551   2.027   1.093 -1.0721 -0.1062 -0.9064
 9776SOL    HW130769   2.644   2.040   1.107 -0.5941 -0.9866 -2.8994
 9776SOL    HW230770   2.544   1.996   1.002 -3.2547 -0.4940 -0.6714
 9777SOL     OW30771   1.326   2.334   2.633  0.2575  0.0445  0.2286
 9777SOL    HW130772   1.317   2.245   2.665  1.1512 -0.0602  0.2090
 9777SOL    HW230773   1.309   2.389   2.709 -0.0686 -0.1478  0.2940
 9778SOL     OW30774   7.068   3.522  10.049  0.2540  0.4293 -0.1858
 9778SOL    HW130775   7.088   3.433  10.021  0.4545  0.0322  1.1392
 9778SOL    HW230776   6.990   3.513  10.104  1.6945  0.6657  2.0263
 9779SOL     OW30777   5.990   6.100   4.347  0.6002  0.1099 -0.4442
 9779SOL    HW130778   6.037   6.033   4.397  1.4043  0.6004 -0.5285
 9779SOL    HW230779   6.054   6.132   4.284  0.3298  1.1822 -0.1897
 9780SOL     OW30780   6.825   5.102  12.156  0.4730  0.0876 -0.5010
 9780SOL    HW130781   6.811   5.185  12.110 -0.5190  1.1599  1.6382
 9780SOL    HW230782   6.907   5.115  12.204  0.1537 -0.0281  0.0853
 9781SOL     OW30783   6.818   2.666  12.411  0.1705  0.4835 -0.4331
 9781SOL    HW130784   6.891   2.703  12.361 -1.3024  2.5778 -1.2330
 9781SOL    HW230785   6.820   2.713  12.495  1.2916 -1.3972  0.6405
 9782SOL     OW30786   3.501   5.888  11.643  0.2431 -0.0950 -0.1141
 9782SOL    HW130787   3.522   5.797  11.623  1.0017 -0.5353  2.3049
 9782SOL    HW230788   3.445   5.917  11.571  0.6714 -2.2012 -1.3567
 9783SOL     OW30789   5.319   6.665   5.566  0.1489  0.7821  0.3526
 9783SOL    HW130790   5.282   6.626   5.487  1.7573  0.3546 -0.2369
 9783SOL    HW230791   5.314   6.596   5.632  0.5018  0.4911  0.0799
 9784SOL     OW30792   6.609   0.447   0.109 -0.2595  0.1765  0.2461
 9784SOL    HW130793   6.588   0.540   0.114 -0.7233  0.1011 -0.2158
 9784SOL    HW230794   6.703   0.442   0.124 -0.1808  0.7516 -0.0514
 9785SOL     OW30795   7.900   6.334   7.866  0.1520  0.0962 -0.4671
 9785SOL    HW130796   7.987   6.309   7.896 -0.8799 -0.5971  2.3178
 9785SOL    HW230797   7.875   6.264   7.806 -0.4256 -2.8124  2.8054
 9786SOL     OW30798   5.786   3.580   0.803  0.2987  0.2755 -0.1045
 9786SOL    HW130799   5.846   3.649   0.777  1.2682 -0.2265  0.7405
 9786SOL    HW230800   5.813   3.504   0.752  1.5433 -0.4283  1.5241
 9787SOL     OW30801   1.774   5.571   7.630  0.0609 -0.1124 -0.2599
 9787SOL    HW130802   1.817   5.565   7.715  0.5895  0.6658 -0.4625
 9787SOL    HW230803   1.823   5.512   7.573  1.5346  1.5283 -0.7518
 9788SOL     OW30804   3.158   2.651   2.133 -0.1336 -0.5245  0.3638
 9788SOL    HW130805   3.179   2.709   2.207  0.9128 -0.8786  0.3634
 9788SOL    HW230806   3.062   2.647   2.132 -0.2175  0.9691  0.5393
 9789SOL     OW30807   7.971   7.792   9.097  0.1848 -0.0845  0.2718
 9789SOL    HW130808   8.056   7.789   9.142  0.5252  0.9917 -0.2625
 9789SOL    HW230809   7.907   7.798   9.167  0.4794 -1.6601  0.7163
 9790SOL     OW30810   4.973   0.154  10.584 -0.1038 -0.0501  0.0396
 9790SOL    HW130811   5.038   0.109  10.639 -0.4204 -0.3186  0.1961
 9790SOL    HW230812   4.988   0.118  10.496  0.7480  0.7547 -0.1708
 9791SOL     OW30813   7.936   6.665   3.253 -0.0648 -0.3395  0.2806
 9791SOL    HW130814   7.931   6.735   3.188 -0.4664 -0.2358  0.4211
 9791SOL    HW230815   7.869   6.687   3.318  0.7324 -0.1076  1.0580
 9792SOL     OW30816   6.983   7.800   8.270  0.1148  0.2930 -0.2391
 9792SOL    HW130817   7.048   7.777   8.204 -2.2694 -2.3660 -1.8819
 9792SOL    HW230818   6.939   7.878   8.234  1.2522  1.1273  0.1122
 9793SOL     OW30819   6.143   6.400   8.423 -0.0322  0.4120  0.1013
 9793SOL    HW130820   6.061   6.361   8.452  0.1768  0.7292  1.1721
 9793SOL    HW230821   6.204   6.384   8.495  0.6240  0.8906 -0.3331
 9794SOL     OW30822   4.708   7.442   6.531 -0.3615 -0.1702 -0.9423
 9794SOL    HW130823   4.759   7.521   6.514  0.8293 -0.8453 -0.5819
 9794SOL    HW230824   4.682   7.450   6.623 -1.3150  0.3854 -1.2448
 9795SOL     OW30825   1.440   3.485   7.771 -0.3658  0.2299 -0.4266
 9795SOL    HW130826   1.436   3.578   7.790  0.9971  0.2923 -0.3515
 9795SOL    HW230827   1.524   3.456   7.809 -0.8583 -1.0636 -0.2567
 9796SOL     OW30828   5.510   5.629   2.486 -0.0830 -0.3427  0.4241
 9796SOL    HW130829   5.467   5.547   2.463  0.4852 -0.6001  0.2630
 9796SOL    HW230830   5.567   5.648   2.411  0.6172 -0.3751  0.9327
 9797SOL     OW30831   7.676   5.937   6.480  0.2249 -0.2332  0.8237
 9797SOL    HW130832   7.731   5.859   6.491  1.4073  0.4654  0.0283
 9797SOL    HW230833   7.593   5.902   6.447  0.2564 -1.2706  1.7354
 9798SOL     OW30834   7.317   4.634   0.303  0.5433  0.3058 -0.5505
 9798SOL    HW130835   7.332   4.580   0.381  2.5143  1.1577 -0.2795
 9798SOL    HW230836   7.310   4.571   0.231 -0.6972 -0.4564  0.2033
 9799SOL     OW30837   2.961   1.567   6.004 -0.2872  0.0269  0.1047
 9799SOL    HW130838   3.056   1.574   6.015  0.3130 -2.5995 -2.3521
 9799SOL    HW230839   2.937   1.488   6.053 -1.1674  0.4303  0.3499
 9800SOL     OW30840   0.222   5.826   6.201  0.4657 -0.1153 -0.1044
 9800SOL    HW130841   0.313   5.830   6.230  0.3913  0.1453  0.1077
 9800SOL    HW230842   0.219   5.881   6.123  0.5308 -0.2783 -0.2203
 9801SOL     OW30843   7.755   3.435   2.989  0.4423 -0.0737  0.2699
 9801SOL    HW130844   7.756   3.358   3.046  0.1656 -0.1868  0.1233
 9801SOL    HW230845   7.838   3.480   3.007  1.2822 -1.1699 -0.6712
 9802SOL     OW30846   4.049   6.648   8.492  0.5457 -0.3640  0.1829
 9802SOL    HW130847   4.048   6.620   8.401  3.3804 -1.2318  0.3383
 9802SOL    HW230848   4.012   6.574   8.541  1.5394 -1.0253 -0.0446
 9803SOL     OW30849   6.877   6.187   7.651 -0.2306 -0.4667  0.2547
 9803SOL    HW130850   6.906   6.121   7.589 -0.4778  0.2368 -0.6174
 9803SOL    HW230851   6.784   6.198   7.635  0.0945  1.2650 -0.7825
 9804SOL     OW30852   3.377   7.968   2.464  0.5108  0.3269 -0.2250
 9804SOL    HW130853   3.389   8.063   2.471 -2.1095  0.6913  0.2254
 9804SOL    HW230854   3.307   7.957   2.400  0.3915 -1.2753  0.1361
 9805SOL     OW30855   0.786   4.251  11.929  0.5076  0.2395 -0.3145
 9805SOL    HW130856   0.818   4.331  11.971 -2.8156  0.5256  2.0658
 9805SOL    HW230857   0.778   4.188  12.000 -1.1173 -0.7760 -1.3340
 9806SOL     OW30858   5.140   1.732   8.518  0.1429 -0.7831  0.5557
 9806SOL    HW130859   5.194   1.666   8.561  0.9062 -0.7553 -0.3203
 9806SOL    HW230860   5.133   1.702   8.427 -0.8756 -0.4981  0.5210
 9807SOL     OW30861   6.494   7.422   1.946 -0.6730  0.0327  0.3676
 9807SOL    HW130862   6.457   7.366   2.014 -0.5284 -0.3858  0.1054
 9807SOL    HW230863   6.586   7.397   1.942 -0.4149  0.8526  0.8039
 9808SOL     OW30864   7.479   4.751   3.448  0.4807  0.6456 -0.3560
 9808SOL    HW130865   7.549   4.744   3.383 -0.2699 -0.2356 -1.0865
 9808SOL    HW230866   7.449   4.661   3.462 -1.5749  1.1239 -1.2678
 9809SOL     OW30867   5.988   2.016   9.718  0.2894  0.5115 -0.4500
 9809SOL    HW130868   5.966   1.973   9.801 -1.2738  1.0531 -0.5379
 9809SOL    HW230869   6.032   1.949   9.666  0.2552 -0.1761  0.3967
 9810SOL     OW30870   5.294   1.463   9.629  0.5730 -0.0945 -0.2056
 9810SOL    HW130871   5.327   1.501   9.548  0.3652 -1.8080 -1.1412
 9810SOL    HW230872   5.218   1.516   9.652 -0.0725 -0.2666 -1.7961
 9811SOL     OW30873   2.598   2.230  10.132  0.3571  0.0272  0.6371
 9811SOL    HW130874   2.674   2.188  10.091 -0.6555 -1.4326  0.1440
 9811SOL    HW230875   2.632   2.267  10.213  1.9626  1.0581 -0.4417
 9812SOL     OW30876   2.295   2.322   0.082  0.7001  0.0763  0.4646
 9812SOL    HW130877   2.355   2.394   0.101 -0.6379  1.2844  0.2552
 9812SOL    HW230878   2.233   2.358   0.020  0.4757 -1.5356 -0.2924
 9813SOL     OW30879   2.458   2.535  10.078  0.5248 -0.1079  0.1127
 9813SOL    HW130880   2.497   2.615  10.043 -1.2182  1.0357  0.6499
 9813SOL    HW230881   2.406   2.500  10.006 -0.8482  0.7494  0.6320
 9814SOL     OW30882   5.532   3.951   1.759  0.4287  0.8296  0.4510
 9814SOL    HW130883   5.572   4.035   1.781  1.2978  0.1730  1.4527
 9814SOL    HW230884   5.569   3.929   1.674  0.3252  1.3665  0.2595
 9815SOL     OW30885   3.102   0.838   0.918  0.1619 -0.0965 -0.1820
 9815SOL    HW130886   3.024   0.839   0.861 -0.1952 -1.0324  0.2826
 9815SOL    HW230887   3.162   0.778   0.875  0.4251  0.2250 -0.2652
 9816SOL     OW30888   0.331   7.069  10.749 -0.7627  0.6533 -0.4719
 9816SOL    HW130889   0.369   6.982  10.743 -0.5813  0.8325 -2.1626
 9816SOL    HW230890   0.323   7.085  10.844  0.1958 -0.7436 -0.1316
 9817SOL     OW30891   3.464   0.000   3.361  0.2771 -0.3085  0.0120
 9817SOL    HW130892   3.545   0.043   3.387  0.9583 -1.3879 -0.2648
 9817SOL    HW230893   3.395   0.059   3.392  1.1554  0.6663  0.1753
 9818SOL     OW30894   6.859   3.071   7.916  0.0349  0.6175  0.1289
 9818SOL    HW130895   6.776   3.033   7.886 -1.8375  2.5319  2.4604
 9818SOL    HW230896   6.876   3.029   8.000  0.8170  1.0428  0.1920
 9819SOL     OW30897   0.221   4.225   2.334  0.5452 -0.5757  0.4338
 9819SOL    HW130898   0.148   4.232   2.273  1.2765 -0.8656 -0.5099
 9819SOL    HW230899   0.275   4.154   2.300  1.8419  0.3389  0.4584
 9820SOL     OW30900   7.630   6.058   3.405 -0.0201  0.4623  0.0038
 9820SOL    HW130901   7.708   6.019   3.444  1.0504  2.1177 -0.3873
 9820SOL    HW230902   7.614   6.137   3.456 -0.6821  0.8042 -0.7186
 9821SOL     OW30903   7.006   6.786   4.123 -0.1455  0.2963  0.1706
 9821SOL    HW130904   6.920   6.787   4.081  0.1874 -3.6112 -0.9465
 9821SOL    HW230905   7.067   6.807   4.052  0.0013  0.0242  0.2150
 9822SOL     OW30906   2.529   3.110   8.126  0.1528 -0.0674  0.5162
 9822SOL    HW130907   2.517   3.017   8.149  0.1312 -0.0894  0.4146
 9822SOL    HW230908   2.600   3.110   8.062  0.4379  0.0271  0.8275
 9823SOL     OW30909   2.169   0.843   0.594 -0.1080  0.4653 -0.2197
 9823SOL    HW130910   2.184   0.913   0.530  1.1573  0.6663  0.2646
 9823SOL    HW230911   2.257   0.816   0.621 -0.6037 -0.3864  0.6097
 9824SOL     OW30912   5.197   3.277  10.414  0.2242 -0.2759 -0.1911
 9824SOL    HW130913   5.126   3.323  10.459 -1.8493 -1.1057 -2.4221
 9824SOL    HW230914   5.180   3.184  10.432  0.1945 -0.5338 -1.5029
 9825SOL     OW30915   7.973   1.630   2.876 -0.4176 -0.2484  0.1883
 9825SOL    HW130916   7.995   1.712   2.831  0.1731  1.1541  2.8273
 9825SOL    HW230917   7.878   1.622   2.864 -0.5484  1.0461  0.1588
 9826SOL     OW30918   0.819   6.036   2.762  0.3350 -0.1336  0.2119
 9826SOL    HW130919   0.807   6.041   2.667  1.3569 -1.0676  0.0171
 9826SOL    HW230920   0.779   5.953   2.787  2.4740 -1.2693  0.1485
 9827SOL     OW30921   5.887   1.340   6.524 -0.1125 -0.3179  0.0333
 9827SOL    HW130922   5.841   1.277   6.468 -1.2568  1.9061 -1.6855
 9827SOL    HW230923   5.975   1.345   6.487 -0.9123  1.2843 -1.8746
 9828SOL     OW30924   4.574   7.354   9.927 -0.1011  0.6036 -0.1672
 9828SOL    HW130925   4.495   7.333   9.976  0.0981 -0.0329 -0.0991
 9828SOL    HW230926   4.567   7.301   9.847  0.8197 -0.4035  0.3936
 9829SOL     OW30927   0.612   1.137   5.502  0.3960  0.6453  0.0179
 9829SOL    HW130928   0.520   1.162   5.503  0.1769  0.0156 -1.4263
 9829SOL    HW230929   0.658   1.215   5.534 -0.5822  1.2913 -0.1026
 9830SOL     OW30930   4.283   1.993   0.041  0.3156  0.1076  0.1789
 9830SOL    HW130931   4.357   1.933   0.033  1.6227  1.4440  1.5618
 9830SOL    HW230932   4.261   2.017  -0.049  2.6874  0.9585 -0.2346
 9831SOL     OW30933   4.119   1.397   7.384  0.3497 -0.4434  0.3924
 9831SOL    HW130934   4.171   1.324   7.418  0.7384 -0.2430  0.2385
 9831SOL    HW230935   4.035   1.389   7.428 -0.4265 -2.3321 -1.2871
 9832SOL     OW30936   2.653   1.543   4.245  0.2401 -0.0682  0.1195
 9832SOL    HW130937   2.583   1.488   4.210  1.7778 -2.8860  1.1584
 9832SOL    HW230938   2.611   1.596   4.313 -0.6449 -3.3762  2.4151
 9833SOL     OW30939   0.579   2.926   3.545  0.0998  0.3822 -1.2439
 9833SOL    HW130940   0.489   2.933   3.576  0.3831  0.3917 -0.3692
 9833SOL    HW230941   0.572   2.901   3.453 -0.7839 -0.5124 -0.9468
 9834SOL     OW30942   7.626   6.085   4.331 -0.0360 -0.0385  0.1322
 9834SOL    HW130943   7.574   6.062   4.254 -0.6530  0.9700  0.2180
 9834SOL    HW230944   7.603   6.019   4.397 -2.0255  0.9073  0.5006
 9835SOL     OW30945   5.871   4.788   7.840 -0.1750 -0.1110 -0.0498
 9835SOL    HW130946   5.796   4.824   7.792 -0.4620  1.2518  1.3195
 9835SOL    HW230947   5.841   4.702   7.868 -1.1183  0.2641  0.1617
 9836SOL     OW30948   7.237   5.376   0.566  0.0809  0.4610 -0.0954
 9836SOL    HW130949   7.210   5.430   0.492 -0.4907  0.7987  0.3510
 9836SOL    HW230950   7.162   5.318   0.582  0.4403 -0.0236 -0.1689
 9837SOL     OW30951   0.448   5.820   3.680  0.6824 -0.2235 -0.1267
 9837SOL    HW130952   0.405   5.802   3.596 -0.0862 -0.1219  0.2357
 9837SOL    HW230953   0.429   5.743   3.733  0.6887 -0.0447  0.1365
 9838SOL     OW30954   7.013   4.490   4.789 -0.1953 -0.4314  0.3712
 9838SOL    HW130955   7.084   4.429   4.808 -0.1635 -0.6633 -0.4570
 9838SOL    HW230956   7.057   4.572   4.765 -0.1890 -0.6177 -0.2877
 9839SOL     OW30957   4.409   3.773   9.756  0.3888 -0.0080 -0.1431
 9839SOL    HW130958   4.458   3.844   9.714 -0.3883 -0.1722 -1.3745
 9839SOL    HW230959   4.321   3.808   9.767  0.4146 -0.2074  0.7690
 9840SOL     OW30960   5.734   0.952   3.175 -0.0626 -0.1942 -0.2572
 9840SOL    HW130961   5.714   1.032   3.223 -2.1150 -0.3748 -0.7353
 9840SOL    HW230962   5.673   0.887   3.208  1.4384 -1.5577 -0.0234
 9841SOL     OW30963   1.430   2.603   8.885  0.4512  0.2030 -0.1129
 9841SOL    HW130964   1.335   2.606   8.888  0.3539  0.0137 -1.9405
 9841SOL    HW230965   1.458   2.641   8.968 -1.2114  1.2958 -0.0047
 9842SOL     OW30966   0.904   6.439  11.943  0.0901  0.2773  0.1395
 9842SOL    HW130967   0.910   6.520  11.893 -0.7807 -0.1773 -0.7423
 9842SOL    HW230968   0.989   6.397  11.931  0.5687  1.0787  0.6532
 9843SOL     OW30969   5.686   1.027   6.088 -0.0703 -0.5566 -0.3306
 9843SOL    HW130970   5.662   0.938   6.113  0.2987 -0.4296  0.4982
 9843SOL    HW230971   5.781   1.025   6.077  0.0942  0.0026  0.8657
 9844SOL     OW30972   4.609   5.940   4.241  0.1082 -0.0862 -0.1594
 9844SOL    HW130973   4.564   5.919   4.159 -0.5703  0.8093 -0.0393
 9844SOL    HW230974   4.617   5.856   4.287 -1.0113 -0.3475 -0.4080
 9845SOL     OW30975   3.193   5.266   5.773  0.0374 -0.1816  0.5969
 9845SOL    HW130976   3.183   5.361   5.783 -0.3896 -0.0937 -0.5946
 9845SOL    HW230977   3.277   5.247   5.816  0.9931  1.0007 -0.6639
 9846SOL     OW30978   1.217   1.455   4.736 -0.0575  0.1020 -0.2400
 9846SOL    HW130979   1.294   1.461   4.791 -1.3269 -0.8735  1.7506
 9846SOL    HW230980   1.148   1.422   4.793 -2.3578  2.2110 -1.5550
 9847SOL     OW30981   2.551   4.878   3.176  0.5990  0.3153  0.6343
 9847SOL    HW130982   2.546   4.789   3.210  1.2159  0.1044  0.1770
 9847SOL    HW230983   2.565   4.868   3.082 -2.0031  0.8902  0.1043
 9848SOL     OW30984   7.101   1.289   7.181 -0.5241 -0.1766  0.5336
 9848SOL    HW130985   7.092   1.335   7.264 -1.0160 -0.6782  0.7702
 9848SOL    HW230986   7.036   1.329   7.124  0.8105  1.1712 -0.0955
 9849SOL     OW30987   1.948   7.473   9.735  0.5044 -0.1823  0.3802
 9849SOL    HW130988   1.968   7.467   9.828  0.7745 -0.4082  0.3101
 9849SOL    HW230989   1.932   7.383   9.707 -0.6767 -0.0027  0.4350
 9850SOL     OW30990   2.039   5.722   6.380  0.0742  0.0088 -0.0557
 9850SOL    HW130991   2.008   5.797   6.431  1.6421  1.2771 -0.8884
 9850SOL    HW230992   2.049   5.652   6.445 -1.8468  0.3395  0.6610
 9851SOL     OW30993   4.041   3.481   5.346 -0.1360 -0.0977 -0.0356
 9851SOL    HW130994   3.989   3.400   5.349 -1.8884  0.9682 -0.2996
 9851SOL    HW230995   3.996   3.536   5.282  1.8047  0.6077 -0.8693
 9852SOL     OW30996   7.399   7.128   2.571  0.2128 -0.1295 -0.6912
 9852SOL    HW130997   7.353   7.155   2.651  0.3280 -0.3604 -0.5476
 9852SOL    HW230998   7.479   7.086   2.603 -0.0682 -0.8404 -0.9079
 9853SOL     OW30999   2.428   2.208   3.715  0.2572 -0.3170  0.0085
 9853SOL    HW131000   2.360   2.229   3.651 -0.7732  0.5445  1.3394
 9853SOL    HW231001   2.501   2.266   3.693 -0.3138  0.4023 -0.0205
 9854SOL     OW31002   0.402   3.972   1.781  0.1707  0.0284 -0.5401
 9854SOL    HW131003   0.382   4.065   1.775 -0.9657 -0.1345  0.2922
 9854SOL    HW231004   0.362   3.934   1.703 -0.1542  0.1284 -0.4264
 9855SOL     OW31005   2.251   0.398   7.146 -0.0056  0.1580  0.2979
 9855SOL    HW131006   2.312   0.405   7.073 -0.7388  0.7737 -0.2672
 9855SOL    HW231007   2.233   0.304   7.153  0.3010  0.0687 -0.1070
 9856SOL     OW31008   5.758   6.571   0.888  0.4389 -0.1437 -0.2903
 9856SOL    HW131009   5.852   6.556   0.903  0.7328  0.8004 -1.0037
 9856SOL    HW231010   5.742   6.657   0.925 -0.2959 -0.5528  0.3533
 9857SOL     OW31011   7.169   0.452  10.797 -0.1844  0.5178  0.2618
 9857SOL    HW131012   7.165   0.357  10.781 -0.6614  0.5053  0.4484
 9857SOL    HW231013   7.259   0.467  10.827  0.0406  0.1988 -0.2319
 9858SOL     OW31014   1.603   2.743  10.207  0.2344 -0.7966 -0.0082
 9858SOL    HW131015   1.596   2.669  10.268  0.5114 -1.0735 -0.3065
 9858SOL    HW231016   1.629   2.703  10.124 -0.1610 -0.4255 -0.3153
 9859SOL     OW31017   3.189   2.367   5.918  0.3003  0.0130 -0.1964
 9859SOL    HW131018   3.224   2.392   5.833  0.4363 -1.0348 -0.4722
 9859SOL    HW231019   3.239   2.288   5.942 -0.9438 -0.7357  0.0258
 9860SOL     OW31020   5.658   3.373   2.316  0.1484  0.2062  0.3491
 9860SOL    HW131021   5.612   3.303   2.364 -0.1648 -0.3749 -0.7711
 9860SOL    HW231022   5.640   3.355   2.224  1.1082  1.0530 -0.0215
 9861SOL     OW31023   0.184   4.781   7.413 -0.0874  0.1286 -0.4648
 9861SOL    HW131024   0.093   4.751   7.415  0.1947 -0.7697 -0.3963
 9861SOL    HW231025   0.234   4.702   7.392  0.6076  0.8000 -1.3859
 9862SOL     OW31026   5.958   5.978   2.968  0.9319 -0.2156  0.4896
 9862SOL    HW131027   5.977   6.071   2.960 -1.1375  0.2700  0.4460
 9862SOL    HW231028   5.967   5.944   2.879 -0.0017  0.3518  0.1546
 9863SOL     OW31029   7.403   4.697   6.241 -0.5850  0.2782  0.4886
 9863SOL    HW131030   7.451   4.764   6.192 -0.7124 -0.2144 -0.3359
 9863SOL    HW231031   7.426   4.713   6.333  0.1372  0.8439  0.2198
 9864SOL     OW31032   3.061   3.167  11.886 -0.4560  0.3610  0.0213
 9864SOL    HW131033   2.998   3.131  11.948  0.3926 -1.7490 -0.2541
 9864SOL    HW231034   3.021   3.154  11.800 -0.8421  1.6185 -0.0072
 9865SOL     OW31035   0.565   0.736   2.796 -0.9842 -0.0564 -0.2174
 9865SOL    HW131036   0.502   0.738   2.869 -0.4413  1.5168  0.2407
 9865SOL    HW231037   0.646   0.769   2.834  0.1641 -2.0396 -0.8101
 9866SOL     OW31038   5.604   0.474  10.433  0.6277  0.5126 -0.1160
 9866SOL    HW131039   5.604   0.427  10.516  0.7104 -0.5835 -0.7238
 9866SOL    HW231040   5.614   0.406  10.366  1.6454  1.4634 -0.9772
 9867SOL     OW31041   7.793   0.990   8.723  0.0091  0.6419  0.1712
 9867SOL    HW131042   7.859   1.013   8.658  0.2790 -1.9170 -0.5818
 9867SOL    HW231043   7.711   1.024   8.688  0.0242 -1.3149 -2.0076
 9868SOL     OW31044   0.763   0.784   3.615  0.5569  0.4850 -0.0526
 9868SOL    HW131045   0.730   0.809   3.701 -1.1697  3.7293 -1.4756
 9868SOL    HW231046   0.838   0.842   3.601 -0.1711  1.1407 -1.3402
 9869SOL     OW31047   3.563   5.691  12.238  0.0588  0.3276 -0.5299
 9869SOL    HW131048   3.580   5.738  12.156  2.1215  0.9559  0.1772
 9869SOL    HW231049   3.544   5.761  12.301 -1.7629 -0.1656 -0.4814
 9870SOL     OW31050   1.648   2.588   9.690  0.1149 -0.4247 -0.1407
 9870SOL    HW131051   1.580   2.651   9.667  0.8655  1.3429  2.1526
 9870SOL    HW231052   1.640   2.519   9.624 -2.0397  1.0833 -1.5776
 9871SOL     OW31053   2.772   4.161  10.429 -0.3452  0.1500  0.3643
 9871SOL    HW131054   2.739   4.085  10.477  0.7887  0.0611  1.0307
 9871SOL    HW231055   2.693   4.211  10.407 -1.2754 -1.8686 -1.2708
 9872SOL     OW31056   4.785   3.358   1.392 -0.3453 -0.1648 -0.1184
 9872SOL    HW131057   4.872   3.392   1.414  1.0104 -2.9912 -0.5642
 9872SOL    HW231058   4.780   3.365   1.296 -0.0509 -1.0989 -0.2158
 9873SOL     OW31059   0.110   4.742   0.844  0.1405 -0.1616  0.2833
 9873SOL    HW131060   0.065   4.665   0.879 -0.7515  0.4680  0.5602
 9873SOL    HW231061   0.074   4.752   0.756  2.2357 -1.6289 -0.8475
 9874SOL     OW31062   7.613   2.348   4.575 -0.6515 -0.1665  0.5332
 9874SOL    HW131063   7.606   2.332   4.669 -0.9439  1.5562  0.8424
 9874SOL    HW231064   7.706   2.359   4.558 -0.2481 -3.4688  0.0183
 9875SOL     OW31065   4.784   5.083   5.663 -0.3307 -0.5432 -0.0847
 9875SOL    HW131066   4.716   5.103   5.598 -0.7324 -0.9326  0.2037
 9875SOL    HW231067   4.758   4.997   5.698 -0.0803 -0.3690  0.5389
 9876SOL     OW31068   1.315   7.750   0.397 -0.6084 -0.2107 -0.5868
 9876SOL    HW131069   1.301   7.803   0.318 -0.3002 -1.1169 -1.2776
 9876SOL    HW231070   1.382   7.686   0.371 -1.9885 -1.8667 -0.2709
 9877SOL     OW31071   1.398   0.308   3.320 -0.4792  0.0045 -0.1135
 9877SOL    HW131072   1.488   0.338   3.306 -0.3422 -0.5091 -0.3691
 9877SOL    HW231073   1.379   0.256   3.242 -0.8892 -0.1471  0.0897
 9878SOL     OW31074   2.375   1.720   0.267  0.1171  0.9674 -0.2732
 9878SOL    HW131075   2.454   1.764   0.236 -0.4519  2.9175  0.8550
 9878SOL    HW231076   2.314   1.791   0.287 -0.9994 -0.3534  1.3157
 9879SOL     OW31077   7.572   0.906   2.753  0.5728 -0.0644 -0.4538
 9879SOL    HW131078   7.560   0.898   2.848 -0.7740  0.1462 -0.5736
 9879SOL    HW231079   7.535   0.992   2.732 -0.7252 -0.8073 -1.3731
 9880SOL     OW31080   5.247   2.141   8.623 -0.8721  0.3062  0.0754
 9880SOL    HW131081   5.156   2.113   8.637 -0.6478 -0.5503 -0.1653
 9880SOL    HW231082   5.262   2.208   8.691 -1.5592  0.1814  0.3597
 9881SOL     OW31083   2.997   2.343   2.759  0.6986 -0.1093 -0.1839
 9881SOL    HW131084   2.908   2.317   2.783  0.6479 -0.8289 -1.1137
 9881SOL    HW231085   3.017   2.414   2.820 -0.6578  0.3488 -0.2265
 9882SOL     OW31086   2.339   4.822   0.577  0.2556  0.1840 -0.2356
 9882SOL    HW131087   2.345   4.776   0.494 -0.8798  0.7317 -0.6339
 9882SOL    HW231088   2.326   4.914   0.553 -2.5235  0.0497  0.5055
 9883SOL     OW31089   3.282   0.623   8.095 -0.3576  0.5496  0.1867
 9883SOL    HW131090   3.302   0.715   8.077 -0.7481  0.9512  1.6531
 9883SOL    HW231091   3.330   0.604   8.176  1.3559 -1.1586 -1.1322
 9884SOL     OW31092   4.280   3.067   9.921 -0.0923  0.0766 -0.3237
 9884SOL    HW131093   4.367   3.049   9.957 -0.6625 -0.9250  0.6309
 9884SOL    HW231094   4.267   3.161   9.935  0.7938  0.2213 -0.4031
 9885SOL     OW31095   7.458   4.035  11.900 -0.3918  0.2797 -0.3604
 9885SOL    HW131096   7.513   4.066  11.972 -0.0861  1.3869 -1.0522
 9885SOL    HW231097   7.379   4.087  11.907 -0.4022  0.3175 -0.7762
 9886SOL     OW31098   1.470   6.803   7.325 -0.4060  0.2371 -0.1598
 9886SOL    HW131099   1.470   6.863   7.400 -0.6915 -0.1871  0.1795
 9886SOL    HW231100   1.395   6.746   7.339 -0.2038 -0.1290 -0.5398
 9887SOL     OW31101   3.481   6.185   0.576 -0.5612  0.3583  0.1356
 9887SOL    HW131102   3.385   6.178   0.571 -0.4876  0.0789 -1.2187
 9887SOL    HW231103   3.496   6.265   0.626 -1.5082  0.8698 -0.3674
 9888SOL     OW31104   4.979   3.561   5.383  0.4581 -0.2694 -0.0637
 9888SOL    HW131105   5.032   3.482   5.372  1.1442  0.3477 -1.4502
 9888SOL    HW231106   4.926   3.565   5.304 -0.0196  0.3361  0.2817
 9889SOL     OW31107   4.591   0.607   3.697  0.9962 -0.4638  0.5656
 9889SOL    HW131108   4.518   0.551   3.724 -0.5801  0.1861 -1.9801
 9889SOL    HW231109   4.589   0.680   3.758 -1.4216  0.2131 -0.2125
 9890SOL     OW31110   1.327   3.412  10.940  0.1244 -0.1166 -0.0028
 9890SOL    HW131111   1.340   3.408  11.034  1.6568 -0.3408 -0.1926
 9890SOL    HW231112   1.391   3.350  10.904 -1.4215 -1.1383 -1.1281
 9891SOL     OW31113   1.525   1.284   7.496 -0.9737  0.0419  0.1674
 9891SOL    HW131114   1.571   1.280   7.412 -3.5270  2.7471 -1.5589
 9891SOL    HW231115   1.524   1.377   7.518 -1.9234 -0.4246  2.2915
 9892SOL     OW31116   0.539   7.654  10.871 -0.5461  0.3183  0.5538
 9892SOL    HW131117   0.608   7.605  10.826 -1.8831 -0.9372 -0.2427
 9892SOL    HW231118   0.528   7.608  10.954 -1.3442 -0.3697  0.0876
 9893SOL     OW31119   5.673   3.445   1.172 -0.2292  0.2306 -0.1128
 9893SOL    HW131120   5.630   3.363   1.196 -2.4441  0.8199 -1.7061
 9893SOL    HW231121   5.694   3.487   1.256 -0.6525 -1.1827  0.7213
 9894SOL     OW31122   0.006   0.800   3.300  0.0557 -0.5569  0.7282
 9894SOL    HW131123  -0.090   0.796   3.303 -0.0387  1.0510  1.0880
 9894SOL    HW231124   0.028   0.872   3.360  1.4322 -0.3592  0.0206
 9895SOL     OW31125   1.174   5.181   0.367  0.2352  0.5787  0.1985
 9895SOL    HW131126   1.230   5.238   0.420 -0.0282  1.0484 -0.0230
 9895SOL    HW231127   1.086   5.194   0.402  0.2629 -0.1629  0.5472
 9896SOL     OW31128   3.559   3.888   0.351 -0.8714  0.0965  0.1133
 9896SOL    HW131129   3.575   3.836   0.272 -0.3136  1.4842 -0.7357
 9896SOL    HW231130   3.620   3.853   0.415 -1.1537 -0.8896 -0.1370
 9897SOL     OW31131   5.319   0.913   8.580 -0.5691  0.2423 -0.1619
 9897SOL    HW131132   5.242   0.858   8.593 -1.5722  1.6119  0.0073
 9897SOL    HW231133   5.332   0.955   8.665  1.3267 -1.0960  0.2669
 9898SOL     OW31134   7.866   3.180   7.735  0.4808  0.5923 -0.6137
 9898SOL    HW131135   7.835   3.174   7.644  2.0981  3.3254 -1.4885
 9898SOL    HW231136   7.895   3.271   7.743  0.4366  0.4190  2.6799
 9899SOL     OW31137   6.786   6.572  10.439 -0.2432 -0.2750 -0.2534
 9899SOL    HW131138   6.739   6.644  10.399 -0.1924 -0.7083 -1.1236
 9899SOL    HW231139   6.878   6.587  10.415 -0.1890 -0.4458 -0.1595
 9900SOL     OW31140   0.649   2.412   7.395 -0.2240  0.2815 -0.0036
 9900SOL    HW131141   0.732   2.393   7.438 -0.8038  0.2202  1.1550
 9900SOL    HW231142   0.664   2.393   7.303  0.2499 -2.5193  0.5605
 9901SOL     OW31143   5.360   2.749  11.856  0.1263  0.4078  0.1318
 9901SOL    HW131144   5.429   2.727  11.793  0.2676 -0.7168  0.6546
 9901SOL    HW231145   5.300   2.674  11.854  0.0616  0.4105  1.2211
 9902SOL     OW31146   7.170   4.725   4.846 -0.4441 -0.2572 -0.2343
 9902SOL    HW131147   7.256   4.723   4.887 -0.2049  0.2820 -0.6935
 9902SOL    HW231148   7.114   4.769   4.911  0.1274  1.3926 -0.7955
 9903SOL     OW31149   2.992   3.908   5.713 -0.2175  0.5238  0.1608
 9903SOL    HW131150   3.001   3.822   5.754  0.8849 -0.4087 -1.8544
 9903SOL    HW231151   2.940   3.891   5.634  3.1650  0.8466 -2.3477
 9904SOL     OW31152   0.623   4.351   5.957 -0.7622 -0.6927 -0.0444
 9904SOL    HW131153   0.642   4.444   5.946  1.1962 -1.0283  0.1390
 9904SOL    HW231154   0.528   4.347   5.967 -0.7565  1.4760  1.7664
 9905SOL     OW31155   5.438   2.751   3.607  0.1916 -0.0361  0.0261
 9905SOL    HW131156   5.528   2.737   3.578 -0.2826 -1.5642 -0.8169
 9905SOL    HW231157   5.416   2.839   3.577  0.7492 -0.4082 -1.5283
 9906SOL     OW31158   1.238   7.832   4.105 -0.1197 -0.3615 -0.1721
 9906SOL    HW131159   1.154   7.796   4.134 -0.4905 -1.0684 -2.0020
 9906SOL    HW231160   1.231   7.926   4.123  0.4529 -0.9217  3.6962
 9907SOL     OW31161   2.493   7.489   6.279  0.8532 -0.1832 -0.2627
 9907SOL    HW131162   2.550   7.556   6.242  0.6590  1.0994  1.6171
 9907SOL    HW231163   2.457   7.443   6.203  0.6503  2.1221 -1.6520
 9908SOL     OW31164   7.920   6.281   6.630 -0.0896  0.1170  0.6137
 9908SOL    HW131165   8.011   6.251   6.624 -0.5354 -1.1465 -0.2725
 9908SOL    HW231166   7.920   6.367   6.590  0.6394 -0.0965  0.1395
 9909SOL     OW31167   2.292   4.862   9.065  0.0457 -0.0585  0.0580
 9909SOL    HW131168   2.288   4.781   9.117 -0.6800 -0.5743 -0.7720
 9909SOL    HW231169   2.242   4.926   9.116  1.1196  0.0632  1.0105
 9910SOL     OW31170   4.365   0.475   8.568 -0.1466  0.6416  0.5041
 9910SOL    HW131171   4.377   0.526   8.488 -0.0861  0.4544  0.3932
 9910SOL    HW231172   4.388   0.535   8.639  4.0638 -0.4020  0.2365
 9911SOL     OW31173   2.563   5.642   0.182  0.5385  0.2660  0.1221
 9911SOL    HW131174   2.596   5.727   0.150  0.5397  0.8095  1.5162
 9911SOL    HW231175   2.619   5.578   0.138  2.9164  1.1199  1.6858
 9912SOL     OW31176   0.288   3.822  10.473 -0.4600  0.4585 -0.2097
 9912SOL    HW131177   0.299   3.917  10.466  0.0332  0.4084 -0.1343
 9912SOL    HW231178   0.193   3.809  10.475 -0.5427  1.0852  1.5102
 9913SOL     OW31179   2.769   4.492  12.139 -0.3417  0.5678 -0.3657
 9913SOL    HW131180   2.815   4.544  12.074 -0.3632 -0.3287 -1.1192
 9913SOL    HW231181   2.705   4.441  12.089 -0.3151 -0.1893  0.3385
 9914SOL     OW31182   6.015   6.282  11.191 -0.9726 -0.5302 -0.6663
 9914SOL    HW131183   5.938   6.248  11.144 -0.8237 -0.8037 -0.7184
 9914SOL    HW231184   5.984   6.299  11.280 -0.7021 -2.2593 -0.1967
 9915SOL     OW31185   4.768   3.098   2.883 -0.4215  0.9548  0.1418
 9915SOL    HW131186   4.836   3.165   2.876  3.1242 -2.3203 -0.4004
 9915SOL    HW231187   4.758   3.083   2.977  2.2667 -0.7522  0.2587
 9916SOL     OW31188   0.874   3.842   4.171  0.0918  0.2483 -0.0109
 9916SOL    HW131189   0.796   3.868   4.221 -0.0908 -0.7122  0.2197
 9916SOL    HW231190   0.918   3.779   4.228  0.3458 -0.1912 -0.6918
 9917SOL     OW31191   5.081   4.775   0.965 -0.1326 -0.4177  0.7791
 9917SOL    HW131192   5.072   4.870   0.962  0.3492 -0.1955  3.6111
 9917SOL    HW231193   4.995   4.741   0.938 -1.1645  0.9098  2.2759
 9918SOL     OW31194   5.428   6.600   9.080 -0.2107  0.2799 -0.0614
 9918SOL    HW131195   5.360   6.666   9.092 -0.6892 -0.1837 -0.1926
 9918SOL    HW231196   5.502   6.649   9.043 -0.5119  0.7672 -0.0323
 9919SOL     OW31197   6.241   6.588   5.808 -0.3971  0.2238  0.1315
 9919SOL    HW131198   6.166   6.616   5.860  0.0422 -0.3472  1.0954
 9919SOL    HW231199   6.202   6.543   5.733 -1.0138  0.1019  0.5159
 9920SOL     OW31200   6.922   4.305   8.547  0.2269  0.2086 -0.4703
 9920SOL    HW131201   6.859   4.246   8.505 -0.8132  0.3576  0.8347
 9920SOL    HW231202   6.869   4.375   8.584  0.9674 -0.3468  1.8113
 9921SOL     OW31203   1.144   5.601   8.006 -0.2620 -0.1661  0.1860
 9921SOL    HW131204   1.063   5.602   7.956 -0.0311 -0.3864 -0.1961
 9921SOL    HW231205   1.168   5.508   8.011  0.2473 -0.0577 -0.1665
 9922SOL     OW31206   1.073   5.745  12.025  0.2162 -0.1183  0.2869
 9922SOL    HW131207   1.112   5.665  11.990 -0.2007  0.2527 -1.0665
 9922SOL    HW231208   1.129   5.816  11.993 -0.0836  0.2220  0.5053
 9923SOL     OW31209   1.128   0.908   0.543 -0.3025  0.6469  0.2369
 9923SOL    HW131210   1.157   0.976   0.481  0.3906  1.2125  1.1556
 9923SOL    HW231211   1.036   0.894   0.521 -0.0040  0.6667 -1.0708
 9924SOL     OW31212   7.707   5.494   9.219 -0.7871  0.0379 -0.7985
 9924SOL    HW131213   7.732   5.559   9.285 -1.0900 -0.6889  0.0454
 9924SOL    HW231214   7.614   5.510   9.204 -0.5707  0.6368 -1.5554
 9925SOL     OW31215   7.451   4.143   4.814  0.3291  0.6400  0.1274
 9925SOL    HW131216   7.526   4.202   4.811  1.3554 -0.6532 -0.7057
 9925SOL    HW231217   7.376   4.199   4.795  1.3019  1.6201 -1.0300
 9926SOL     OW31218   5.283   4.645   1.788  0.0047  0.0283 -0.1281
 9926SOL    HW131219   5.354   4.581   1.795 -0.0435 -0.2387 -1.7757
 9926SOL    HW231220   5.327   4.729   1.777  0.0827 -0.1144 -0.9640
 9927SOL     OW31221   3.019   4.889  11.684 -0.1358 -0.1266 -0.0029
 9927SOL    HW131222   2.967   4.847  11.616 -0.6387  0.1359  0.2127
 9927SOL    HW231223   3.103   4.909  11.642 -0.8943  1.2255 -0.9582
 9928SOL     OW31224   1.453   5.431   7.895  0.2009  0.5333  0.1416
 9928SOL    HW131225   1.393   5.383   7.838  1.1242 -1.8817  1.0983
 9928SOL    HW231226   1.471   5.512   7.847  1.1987 -1.4906 -3.2240
 9929SOL     OW31227   7.239   4.584  11.743 -0.8342 -0.1041  0.8868
 9929SOL    HW131228   7.257   4.640  11.667 -0.4711 -0.9427  0.3319
 9929SOL    HW231229   7.166   4.529  11.715  0.8074 -2.0588  0.2161
 9930SOL     OW31230   3.371   1.349   9.106  0.6484 -0.1846  0.2922
 9930SOL    HW131231   3.292   1.379   9.061  0.7376 -0.3326  0.0356
 9930SOL    HW231232   3.422   1.428   9.121  0.6417 -0.1427  0.0867
 9931SOL     OW31233   3.989   4.875   1.308 -0.0996  0.5025 -0.4236
 9931SOL    HW131234   3.991   4.967   1.279 -0.6501  0.4345 -0.6982
 9931SOL    HW231235   4.001   4.879   1.403 -0.5731  0.8911 -0.3771
 9932SOL     OW31236   2.809   3.137  12.456 -0.0417  0.0432 -0.0953
 9932SOL    HW131237   2.872   3.065  12.453 -0.8485 -0.6361 -1.0037
 9932SOL    HW231238   2.729   3.101  12.420 -0.9062  0.9741  0.8203
 9933SOL     OW31239   2.754   7.906   3.453  0.2408  0.5638 -0.0728
 9933SOL    HW131240   2.697   7.832   3.437  1.3446 -0.3766  0.2347
 9933SOL    HW231241   2.762   7.950   3.369 -0.9550  0.7503 -0.1107
 9934SOL     OW31242   6.678   2.195  12.135 -0.0348 -0.0175  0.8187
 9934SOL    HW131243   6.735   2.243  12.196 -0.6118 -0.7141  1.9340
 9934SOL    HW231244   6.723   2.111  12.122  0.1586  0.1862  0.1568
 9935SOL     OW31245   0.102   1.552   9.872 -0.3808  0.2284 -0.0464
 9935SOL    HW131246   0.186   1.506   9.874  0.0255  0.8953 -0.9395
 9935SOL    HW231247   0.124   1.640   9.841 -1.4621  0.2841 -0.7062
 9936SOL     OW31248   0.373   3.272   8.272 -0.4283  0.1893  0.4045
 9936SOL    HW131249   0.365   3.177   8.285  0.7648 -0.0568 -0.5093
 9936SOL    HW231250   0.283   3.305   8.279 -0.7726 -0.9071  1.4187
 9937SOL     OW31251   2.518   1.453   9.171 -0.0701  0.2162  0.2190
 9937SOL    HW131252   2.550   1.446   9.081  2.3922 -1.5861  1.1105
 9937SOL    HW231253   2.541   1.542   9.198 -0.2219  0.5437 -0.7150
 9938SOL     OW31254   7.448   4.989   6.401 -0.2556  0.0683 -0.2782
 9938SOL    HW131255   7.474   5.016   6.313  0.2320  1.1222  0.1806
 9938SOL    HW231256   7.362   5.029   6.415  0.0371  0.5875  0.0391
 9939SOL     OW31257   7.593   3.618   7.236 -0.4838  0.3072  0.4970
 9939SOL    HW131258   7.590   3.623   7.332 -0.3921  0.0832  0.5138
 9939SOL    HW231259   7.676   3.659   7.212 -0.8754  1.0885  0.4556
 9940SOL     OW31260   3.843   2.999  12.252 -0.2350 -0.0016  0.1116
 9940SOL    HW131261   3.841   3.085  12.211 -0.6316 -0.3637 -0.6394
 9940SOL    HW231262   3.918   2.955  12.212  0.0168  0.0114  0.5517
 9941SOL     OW31263   6.594   0.765   8.265  0.2594 -0.1686  1.2494
 9941SOL    HW131264   6.530   0.694   8.258 -0.4147  0.4251  1.3198
 9941SOL    HW231265   6.542   0.845   8.263  0.9227  0.3057  2.2097
 9942SOL     OW31266   2.706   1.897   8.883  0.0836  0.5450  0.2669
 9942SOL    HW131267   2.712   1.896   8.787 -0.5481 -0.1998  0.2220
 9942SOL    HW231268   2.649   1.970   8.903  0.9651  1.2863  0.1364
 9943SOL     OW31269   4.821   6.623   4.820  0.2682 -0.3283  0.3170
 9943SOL    HW131270   4.745   6.568   4.802  0.4725 -0.4385 -0.2279
 9943SOL    HW231271   4.830   6.620   4.916 -1.0735  0.5996  0.4933
 9944SOL     OW31272   0.382   5.864   7.100 -0.3038  0.3056 -0.6742
 9944SOL    HW131273   0.473   5.886   7.080 -0.8445  2.0303 -1.4639
 9944SOL    HW231274   0.366   5.782   7.054  1.3751 -1.0926  1.0819
 9945SOL     OW31275   6.588   3.820   9.352 -0.1932 -0.1044  0.1444
 9945SOL    HW131276   6.638   3.881   9.406 -0.8789  0.7019 -0.1097
 9945SOL    HW231277   6.498   3.852   9.357 -0.7230 -1.5677  0.6517
 9946SOL     OW31278   5.839   5.597   0.356  0.4874 -0.6050  0.0925
 9946SOL    HW131279   5.760   5.561   0.315 -0.2209 -0.8337  1.5890
 9946SOL    HW231280   5.807   5.648   0.430  1.5949  1.7050 -0.9314
 9947SOL     OW31281   4.676   6.289   6.118 -0.2253 -0.1401  0.1583
 9947SOL    HW131282   4.759   6.245   6.102 -0.1724 -0.3796  1.0528
 9947SOL    HW231283   4.612   6.238   6.067 -0.0000 -0.6223  0.3532
 9948SOL     OW31284   4.517   3.279   9.735  0.0697  0.1974  0.4974
 9948SOL    HW131285   4.445   3.284   9.673  0.4861 -1.5423 -0.1668
 9948SOL    HW231286   4.532   3.370   9.761 -1.0858  0.7980 -0.8158
 9949SOL     OW31287   2.224   6.696   7.936  0.2000 -0.0204 -0.1114
 9949SOL    HW131288   2.233   6.773   7.992 -0.4313  1.4522 -1.9245
 9949SOL    HW231289   2.148   6.650   7.972  0.6871  0.0704  1.1014
 9950SOL     OW31290   5.407   7.664  12.366  0.5605  0.3045 -0.0337
 9950SOL    HW131291   5.331   7.610  12.387  0.6583  0.3346  0.3916
 9950SOL    HW231292   5.446   7.686  12.450  0.7227  0.7515 -0.2221
 9951SOL     OW31293   2.182   4.664   5.173  0.1925 -0.2642  0.5942
 9951SOL    HW131294   2.098   4.654   5.128  0.7892  1.3927 -0.9947
 9951SOL    HW231295   2.239   4.705   5.108  2.3683 -1.6729  1.5112
 9952SOL     OW31296   7.926   6.688   7.311  0.0773 -0.5938 -0.0771
 9952SOL    HW131297   7.925   6.690   7.407 -1.4054 -0.8695 -0.0553
 9952SOL    HW231298   7.847   6.638   7.288  1.1058 -1.6635 -1.4287
 9953SOL     OW31299   4.487   1.677   2.197  0.0353  0.2452  0.2936
 9953SOL    HW131300   4.423   1.679   2.126  1.1617 -0.5887 -0.8103
 9953SOL    HW231301   4.477   1.590   2.237  0.6749 -0.0199 -0.1023
 9954SOL     OW31302   6.838   7.940  10.351  0.1297 -0.5166 -0.4113
 9954SOL    HW131303   6.837   7.996  10.274 -0.5804 -0.6998 -0.5476
 9954SOL    HW231304   6.777   7.982  10.412  2.0424  0.6446  0.8243
 9955SOL     OW31305   4.792   3.738   3.873 -0.0264 -0.3646  0.1377
 9955SOL    HW131306   4.827   3.821   3.840  0.0934 -0.4441  0.0708
 9955SOL    HW231307   4.731   3.765   3.943 -1.8444 -0.0750 -1.4781
 9956SOL     OW31308   4.195   0.199   4.171 -0.1378 -0.7700  0.2969
 9956SOL    HW131309   4.258   0.193   4.243 -0.3914 -1.0526  0.4993
 9956SOL    HW231310   4.124   0.252   4.207 -0.3849 -1.1304  0.3438
 9957SOL     OW31311   1.727   1.799   2.926  0.0327  0.5868 -0.3469
 9957SOL    HW131312   1.678   1.789   3.007  1.0770 -2.1504  0.0692
 9957SOL    HW231313   1.667   1.771   2.857  0.2739 -0.6872 -0.0672
 9958SOL     OW31314   0.817   0.148   0.584  0.9769 -0.1331 -0.5659
 9958SOL    HW131315   0.851   0.235   0.563  2.4345 -0.5527 -0.0282
 9958SOL    HW231316   0.808   0.105   0.499 -0.5892  0.7951 -0.9258
 9959SOL     OW31317   7.529   2.468   5.301 -0.1256 -0.2358 -0.0855
 9959SOL    HW131318   7.557   2.427   5.383 -1.2114  1.6042  1.2777
 9959SOL    HW231319   7.609   2.470   5.247  0.6000 -1.4929  0.8855
 9960SOL     OW31320   4.102   5.157   9.129 -0.1490  0.7160 -0.4562
 9960SOL    HW131321   4.088   5.234   9.074 -1.7343  1.2871  0.6861
 9960SOL    HW231322   4.023   5.105   9.119 -0.6068  0.9754  1.4614
 9961SOL     OW31323   7.391   5.138  10.596 -0.2842  0.1899 -0.2062
 9961SOL    HW131324   7.418   5.201  10.663 -2.5784 -0.0116  1.0289
 9961SOL    HW231325   7.406   5.183  10.513  0.0074  1.5658  0.5530
 9962SOL     OW31326   6.427   7.135  10.611  0.1615  0.2633  0.3245
 9962SOL    HW131327   6.362   7.089  10.556 -0.4344  0.0251  1.2132
 9962SOL    HW231328   6.408   7.106  10.700 -0.0764  2.0563  0.8952
 9963SOL     OW31329   0.823   5.322   7.103  0.2003  0.2826  0.3190
 9963SOL    HW131330   0.853   5.235   7.128  0.8993  0.9107  1.7986
 9963SOL    HW231331   0.875   5.344   7.025  1.4556  0.1553  1.0944
 9964SOL     OW31332   5.596   2.281   9.142  0.1127 -0.3145 -0.3074
 9964SOL    HW131333   5.610   2.199   9.189 -0.4161 -0.2031  0.0546
 9964SOL    HW231334   5.685   2.314   9.125  0.3202 -0.3843  0.5664
 9965SOL     OW31335   5.645   3.168   9.455 -0.2340  0.3167 -0.1064
 9965SOL    HW131336   5.720   3.159   9.513 -0.8487 -0.0157  0.6575
 9965SOL    HW231337   5.662   3.106   9.384 -0.1455 -0.3245  0.4609
 9966SOL     OW31338   1.210   3.143   3.601 -0.3209  0.0923 -0.4462
 9966SOL    HW131339   1.194   3.235   3.625 -0.0722  0.5284 -1.8060
 9966SOL    HW231340   1.278   3.114   3.661 -0.5003  0.7586  0.0999
 9967SOL     OW31341   6.373   3.188   3.572  0.4270 -0.1952 -0.2004
 9967SOL    HW131342   6.330   3.204   3.488 -0.0878  1.5251  0.3462
 9967SOL    HW231343   6.321   3.237   3.635  1.6280 -0.3015  0.9085
 9968SOL     OW31344   6.530   1.317   7.070 -0.3904 -0.1445 -0.8000
 9968SOL    HW131345   6.583   1.372   7.013  0.0910 -0.6361 -0.8286
 9968SOL    HW231346   6.440   1.332   7.040 -0.4607  1.8733  0.2490
 9969SOL     OW31347   5.871   7.372   0.884 -0.3086 -0.2638 -0.2194
 9969SOL    HW131348   5.947   7.428   0.863  0.7839 -1.3536  0.6741
 9969SOL    HW231349   5.855   7.322   0.804  0.1198 -0.2422 -0.3230
 9970SOL     OW31350   4.045   4.726  10.184  0.4922 -0.1661 -0.1008
 9970SOL    HW131351   3.997   4.803  10.151  0.7195 -0.4871 -1.2161
 9970SOL    HW231352   4.133   4.759  10.200  0.9416 -0.4385 -1.7754
 9971SOL     OW31353   4.446   1.871   7.084 -0.1766 -0.3007 -0.1454
 9971SOL    HW131354   4.481   1.921   7.011 -1.5194  1.1794  0.1875
 9971SOL    HW231355   4.519   1.815   7.111  0.5649 -0.3884 -2.1377
 9972SOL     OW31356   4.036   7.547   9.519 -0.3473 -0.1826  0.3942
 9972SOL    HW131357   4.008   7.515   9.604 -1.3929 -0.8962 -0.2020
 9972SOL    HW231358   4.098   7.481   9.488 -1.1226 -0.7267 -0.0413
 9973SOL     OW31359   1.223   1.547  11.020  0.2629 -0.5823  0.2581
 9973SOL    HW131360   1.275   1.568  10.942  0.3890 -1.0860  0.2041
 9973SOL    HW231361   1.286   1.505  11.079  0.8543  2.2234  1.7673
 9974SOL     OW31362   6.365   2.039   5.884 -0.2994  0.3588  0.1291
 9974SOL    HW131363   6.378   2.033   5.979  0.0280  0.1002  0.0715
 9974SOL    HW231364   6.450   2.066   5.850 -0.7197  1.5519  0.0072
 9975SOL     OW31365   1.422   2.705   7.489  0.1352 -0.3388 -0.5297
 9975SOL    HW131366   1.377   2.734   7.568  1.6545  3.0188 -0.7376
 9975SOL    HW231367   1.378   2.624   7.465 -2.6493  0.3120  1.8234
 9976SOL     OW31368   7.917   1.019   2.470  0.2408  0.1212  0.2743
 9976SOL    HW131369   7.892   0.927   2.474  0.7151 -0.0840 -0.8941
 9976SOL    HW231370   7.921   1.048   2.561  0.2441 -1.0575  0.6567
 9977SOL     OW31371   0.099   0.720  11.254 -0.2704  0.1404 -0.1256
 9977SOL    HW131372   0.007   0.692  11.257 -0.8830  1.4313 -3.0126
 9977SOL    HW231373   0.123   0.734  11.345 -2.9105 -0.3077  0.7271
 9978SOL     OW31374   2.415   0.084   4.517 -0.2218 -0.0790  0.6209
 9978SOL    HW131375   2.498   0.037   4.528 -0.2576  0.1428  2.0782
 9978SOL    HW231376   2.361   0.054   4.590 -1.6914 -0.6957 -0.6586
 9979SOL     OW31377   5.220   4.018  11.504  0.5544  0.3827 -0.0306
 9979SOL    HW131378   5.236   4.112  11.514 -0.9869  0.7998 -1.1736
 9979SOL    HW231379   5.171   3.993  11.583  0.5450  0.6447  0.0467
 9980SOL     OW31380   3.034   6.295   8.900 -0.3345  0.1477 -0.2097
 9980SOL    HW131381   2.954   6.325   8.857 -0.6600 -2.4896 -1.6216
 9980SOL    HW231382   3.105   6.323   8.842 -0.3005  1.1710  0.2895
 9981SOL     OW31383   2.005   4.034   1.189 -0.1913 -0.1949  0.1835
 9981SOL    HW131384   1.935   4.044   1.253  0.5246  1.1299  0.7940
 9981SOL    HW231385   1.969   4.070   1.108 -1.0928 -1.8581 -0.1918
 9982SOL     OW31386   2.207   6.575   4.858  0.3183  0.1890  0.1486
 9982SOL    HW131387   2.180   6.662   4.829  2.4985  2.1629  3.4795
 9982SOL    HW231388   2.288   6.558   4.810  1.1462  1.0916  1.2010
 9983SOL     OW31389   4.546   6.223  10.698  0.2444  0.5009  0.0562
 9983SOL    HW131390   4.525   6.287  10.630 -0.4688 -1.0500 -1.2573
 9983SOL    HW231391   4.510   6.260  10.778 -3.3304  0.2367 -1.2317
 9984SOL     OW31392   6.009   1.404  11.209  0.0668  0.5009  0.1146
 9984SOL    HW131393   6.050   1.349  11.142 -1.4133  0.0572 -0.4795
 9984SOL    HW231394   5.988   1.485  11.162 -0.1626  0.5378  0.2836
 9985SOL     OW31395   3.557   2.970   4.824 -0.5572 -0.0292 -0.2810
 9985SOL    HW131396   3.592   2.895   4.871 -1.8301  0.2297  1.1415
 9985SOL    HW231397   3.617   3.042   4.844 -0.9136  0.0007  0.6917
 9986SOL     OW31398   3.308   1.174   1.035 -0.1852  0.2527 -0.4848
 9986SOL    HW131399   3.231   1.220   1.002 -1.4953 -1.4850  0.0137
 9986SOL    HW231400   3.346   1.133   0.957 -0.7432 -0.2508 -0.4992
 9987SOL     OW31401   4.571   7.178   4.624  0.3798 -0.1095  0.0220
 9987SOL    HW131402   4.662   7.178   4.595  0.2488  0.8586 -0.4245
 9987SOL    HW231403   4.572   7.221   4.710  0.5970 -1.8812  0.9514
 9988SOL     OW31404   3.149   3.283  10.635  0.1607 -0.3488  0.1865
 9988SOL    HW131405   3.094   3.208  10.659  1.7552 -0.9160  2.3900
 9988SOL    HW231406   3.125   3.351  10.698  0.6444  0.0659 -0.0705
 9989SOL     OW31407   2.971   6.878   2.886 -0.4342  0.1980 -0.3196
 9989SOL    HW131408   2.958   6.972   2.898  0.4703  0.6655 -2.5629
 9989SOL    HW231409   2.891   6.847   2.845 -0.5817  0.0537  0.0727
 9990SOL     OW31410   3.417   6.261   7.638  0.4488 -0.5175  0.1248
 9990SOL    HW131411   3.324   6.272   7.659  0.0127 -1.6787 -1.0244
 9990SOL    HW231412   3.458   6.242   7.722 -0.2155  0.7367  0.7613
 9991SOL     OW31413   4.510   2.145   9.645 -0.7545  0.6127 -0.3133
 9991SOL    HW131414   4.455   2.079   9.602 -1.4636  1.4816 -0.7776
 9991SOL    HW231415   4.453   2.221   9.654 -0.1460  0.9474  0.8226
 9992SOL     OW31416   2.272   5.294   5.588  0.2654 -0.6424  0.0622
 9992SOL    HW131417   2.339   5.335   5.533 -0.0403 -0.9800 -0.5673
 9992SOL    HW231418   2.322   5.246   5.654  0.6335 -0.1153  0.1775
 9993SOL     OW31419   1.078   5.349   1.412 -0.4824  0.2076  0.0330
 9993SOL    HW131420   1.019   5.362   1.338 -0.4083  1.9011  0.2359
 9993SOL    HW231421   1.020   5.341   1.487 -0.5314 -0.8382 -0.1028
 9994SOL     OW31422   2.156   4.627   1.897 -0.0728 -0.3040 -0.0358
 9994SOL    HW131423   2.124   4.537   1.903  0.9499 -0.7483 -0.8495
 9994SOL    HW231424   2.191   4.634   1.808  2.7996 -0.1732  0.9909
 9995SOL     OW31425   1.521   2.639   4.722 -0.0692  0.3316  0.2839
 9995SOL    HW131426   1.572   2.558   4.728 -0.2965  0.1445 -0.1554
 9995SOL    HW231427   1.510   2.668   4.812  0.3612  0.0885  0.4163
 9996SOL     OW31428   4.208   7.754   0.308  0.5533  0.0419  0.0201
 9996SOL    HW131429   4.133   7.811   0.325  1.1703  0.7570  0.4222
 9996SOL    HW231430   4.256   7.798   0.238  0.0596 -0.9540 -0.9812
 9997SOL     OW31431   5.218   3.040   7.214 -0.7388 -0.5431 -0.1522
 9997SOL    HW131432   5.191   3.112   7.271  1.2917  1.8265 -1.9238
 9997SOL    HW231433   5.149   3.033   7.149 -0.8266  0.0665 -0.1350
 9998SOL     OW31434   1.925   2.194   2.509  0.0956 -0.3638  0.0949
 9998SOL    HW131435   1.848   2.144   2.536  0.4384 -0.4558  0.9107
 9998SOL    HW231436   1.948   2.247   2.585  1.1813 -0.7522  0.0478
 9999SOL     OW31437   4.838   1.089   1.285 -0.1428 -0.3197 -0.3801
 9999SOL    HW131438   4.823   1.155   1.217  1.2432 -0.3076 -0.6856
 9999SOL    HW231439   4.874   1.014   1.239 -0.8474 -0.9772  0.1040
10000SOL     OW31440   5.321   3.853   7.192  0.1312 -0.0875 -0.4451
10000SOL    HW131441   5.236   3.816   7.172 -0.4446  0.9843 -0.0379
10000SOL    HW231442   5.353   3.889   7.110  0.9432 -1.8962 -0.9784
10001SOL     OW31443   0.470   3.839   8.630  0.0277 -0.0141  0.2368
10001SOL    HW131444   0.477   3.744   8.637  0.2048 -0.1885 -1.8895
10001SOL    HW231445   0.385   3.854   8.588 -0.0364  0.7832  0.6218
10002SOL     OW31446   2.859   1.281  11.264  0.1635 -0.7159  0.4705
10002SOL    HW131447   2.861   1.300  11.170 -1.8511  1.7817  0.7971
10002SOL    HW231448   2.925   1.214  11.277  0.5453 -1.1125 -2.7181
10003SOL     OW31449   4.544   5.254   8.892  0.1471  0.1120  0.2004
10003SOL    HW131450   4.455   5.291   8.893 -0.5179 -1.3139 -0.9694
10003SOL    HW231451   4.563   5.241   8.799  0.8625 -1.2226  0.5110
10004SOL     OW31452   1.625   0.544   7.049 -0.1482 -0.0781 -0.1779
10004SOL    HW131453   1.591   0.562   7.137 -0.5504  2.4364 -0.7706
10004SOL    HW231454   1.555   0.571   6.990  0.1805 -1.5742 -1.3388
10005SOL     OW31455   0.436   7.557   7.532  0.6844 -0.1057  0.2931
10005SOL    HW131456   0.413   7.465   7.523 -0.4192  0.0148  1.4760
10005SOL    HW231457   0.436   7.591   7.443  2.3433 -1.4894 -0.2936
10006SOL     OW31458   5.115   1.397  10.927 -0.6059  0.1383 -0.6007
10006SOL    HW131459   5.052   1.417  10.997  1.8826  1.6230  1.3835
10006SOL    HW231460   5.169   1.327  10.962  1.3433  1.6102 -0.5050
10007SOL     OW31461   1.032   2.937   1.511  0.3350  0.1722  0.2742
10007SOL    HW131462   1.122   2.909   1.522  0.0598 -0.8957 -0.0812
10007SOL    HW231463   1.026   3.020   1.560  1.2531 -0.2309  1.0950
10008SOL     OW31464   5.025   5.344  12.429 -0.0641 -0.3510  0.1471
10008SOL    HW131465   4.947   5.291  12.445 -0.2805 -0.4768 -1.1691
10008SOL    HW231466   4.995   5.434  12.432 -0.3399 -0.4077 -0.6536
10009SOL     OW31467   4.922   6.043   8.656  0.1468 -0.2467 -0.4191
10009SOL    HW131468   4.885   6.127   8.627  0.0423 -0.2453 -0.2836
10009SOL    HW231469   4.935   6.054   8.750 -0.7691 -0.7200 -0.2293
10010SOL     OW31470   4.984   3.066   7.074 -0.7148  0.2612  0.2039
10010SOL    HW131471   4.999   2.985   7.025 -1.1115  0.7787 -0.7936
10010SOL    HW231472   4.927   3.040   7.147  1.0023 -0.7852  1.2365
10011SOL     OW31473   6.570   0.801   3.701 -0.2031 -0.5493 -0.2317
10011SOL    HW131474   6.563   0.896   3.700 -2.9532 -0.6770 -0.6431
10011SOL    HW231475   6.664   0.783   3.709  0.4759  2.1600 -1.3323
10012SOL     OW31476   7.072   5.570   8.876 -0.4612 -0.3759 -0.1210
10012SOL    HW131477   7.009   5.536   8.814 -0.1354  1.0538 -1.2823
10012SOL    HW231478   7.154   5.524   8.855 -0.5041 -0.3578 -0.3281
10013SOL     OW31479   5.954   7.051   0.051 -0.3227  0.3217  0.4029
10013SOL    HW131480   5.900   7.001   0.113 -2.4233 -0.3362 -1.7878
10013SOL    HW231481   5.960   6.995  -0.026  1.5557  1.4240 -0.3224
10014SOL     OW31482   2.411   2.025   6.230  0.6737 -0.4236 -0.7070
10014SOL    HW131483   2.340   2.011   6.167  0.6784  0.5698 -0.9438
10014SOL    HW231484   2.385   2.103   6.279  1.8012  0.2214 -1.1017
10015SOL     OW31485   1.933   0.575   5.647  0.1460 -0.3288  0.6213
10015SOL    HW131486   1.854   0.591   5.595  0.0672 -2.1460  0.1227
10015SOL    HW231487   1.905   0.587   5.738 -0.2024  0.9473  0.3599
10016SOL     OW31488   6.748   7.436   2.536  0.1644  0.4535 -0.7310
10016SOL    HW131489   6.723   7.435   2.443 -2.0996  1.3300 -0.1893
10016SOL    HW231490   6.724   7.349   2.568 -1.2347  0.9140 -0.4747
10017SOL     OW31491   3.971   2.722   2.493  0.0894 -0.2994 -0.2117
10017SOL    HW131492   4.057   2.742   2.530  0.3632 -1.6353 -0.0980
10017SOL    HW231493   3.941   2.644   2.540 -1.4672  0.4889  0.1718
10018SOL     OW31494   2.152   1.095   3.913 -0.0449  0.4733 -0.2652
10018SOL    HW131495   2.058   1.076   3.913  0.2170 -0.9004  0.4841
10018SOL    HW231496   2.187   1.047   3.988  1.5595 -0.6238 -1.6412
10019SOL     OW31497   3.800   0.937  11.480  0.6266 -0.5579  0.0248
10019SOL    HW131498   3.778   0.868  11.543 -0.3435 -0.8649 -0.6274
10019SOL    HW231499   3.896   0.942  11.482  0.6925 -1.7045  0.3165
10020SOL     OW31500   0.601   2.853   4.263 -0.2326  0.3785 -0.4204
10020SOL    HW131501   0.622   2.944   4.240  1.0762  0.0577 -0.5500
10020SOL    HW231502   0.674   2.802   4.229 -0.5371 -0.6390  0.3975
10021SOL     OW31503   3.879   7.452   8.696 -0.0825  0.2372 -0.4757
10021SOL    HW131504   3.906   7.364   8.722 -0.6685  0.1736 -0.0499
10021SOL    HW231505   3.957   7.505   8.706 -0.0789  0.0458  0.6665
10022SOL     OW31506   5.515   7.364   6.012 -0.1005  0.1285 -0.3282
10022SOL    HW131507   5.445   7.303   6.037  0.2464  0.3689  1.3822
10022SOL    HW231508   5.591   7.334   6.062  0.7266  0.5283 -1.3203
10023SOL     OW31509   0.815   4.556   6.568  0.5509  0.1526  0.1587
10023SOL    HW131510   0.742   4.502   6.538 -0.9615  2.4318 -0.5123
10023SOL    HW231511   0.889   4.496   6.570 -0.7323 -1.6608 -1.7578
10024SOL     OW31512   3.059   5.156   9.575 -0.2261  0.5175  0.1943
10024SOL    HW131513   2.980   5.107   9.552 -0.7763  1.3725  0.2356
10024SOL    HW231514   3.090   5.114   9.656 -1.6592  1.2934  1.2002
10025SOL     OW31515   2.737   3.384   8.264  0.4828  0.1542 -0.0593
10025SOL    HW131516   2.672   3.404   8.196  1.8340  0.1547 -1.3932
10025SOL    HW231517   2.803   3.453   8.255  1.2078 -0.4494  0.5582
10026SOL     OW31518   6.577   7.858   8.165 -0.0453  0.1353 -0.0840
10026SOL    HW131519   6.652   7.854   8.223  0.9926  3.2313 -1.0459
10026SOL    HW231520   6.603   7.806   8.088 -0.2077 -1.3619  0.8215
10027SOL     OW31521   4.981   5.837  11.543  0.2599  0.9866  0.2825
10027SOL    HW131522   4.981   5.755  11.493  1.1623  1.0925  0.0988
10027SOL    HW231523   5.000   5.904  11.478  0.9357  1.1827  0.6814
10028SOL     OW31524   4.972   6.260  10.916  0.4124 -0.8085  0.9027
10028SOL    HW131525   4.890   6.211  10.914 -0.0469 -0.0732  1.3114
10028SOL    HW231526   4.972   6.303  11.001  0.1970  0.9011  0.0788
10029SOL     OW31527   7.289   0.638   0.611  0.2565 -0.5977  0.0210
10029SOL    HW131528   7.241   0.710   0.653 -2.7922 -0.8372 -2.6282
10029SOL    HW231529   7.279   0.564   0.670  3.1790  0.8995  2.6537
10030SOL     OW31530   2.196   1.689   1.793  0.1496  0.0080 -0.3393
10030SOL    HW131531   2.122   1.750   1.784  0.8011  1.2315  1.9467
10030SOL    HW231532   2.247   1.702   1.713  1.3483  4.0791  0.8492
10031SOL     OW31533   1.167   3.730  11.086  0.1433  0.2032  0.4296
10031SOL    HW131534   1.094   3.741  11.024  2.1388  0.5863 -2.0029
10031SOL    HW231535   1.211   3.815  11.087  1.8108 -0.6186  0.1183
10032SOL     OW31536   1.582   1.182   6.349  0.0972  0.3843  0.3690
10032SOL    HW131537   1.491   1.164   6.371  0.1389 -0.9052 -0.4197
10032SOL    HW231538   1.616   1.229   6.425 -1.0904  0.4539  0.8769
10033SOL     OW31539   0.729   7.961   5.218 -0.1824 -0.3380 -0.3717
10033SOL    HW131540   0.819   7.927   5.215  0.1827  0.1162  2.4765
10033SOL    HW231541   0.690   7.918   5.294 -1.1570  2.2058  0.6500
10034SOL     OW31542   4.721   0.885   0.488 -0.7676 -0.0280 -0.2946
10034SOL    HW131543   4.657   0.818   0.513 -0.0895 -0.5710  0.0301
10034SOL    HW231544   4.783   0.886   0.561 -0.1040  0.1021 -0.8525
10035SOL     OW31545   0.467   6.787   8.101 -0.1511 -0.3060  0.1276
10035SOL    HW131546   0.489   6.767   8.010  0.5605 -0.7372  0.3860
10035SOL    HW231547   0.377   6.756   8.111 -0.5396  0.5204 -0.6581
10036SOL     OW31548   1.524   3.556   3.319  0.1019  0.5670  0.2916
10036SOL    HW131549   1.550   3.606   3.396  0.0482  0.7945  0.1632
10036SOL    HW231550   1.511   3.622   3.251  0.6133  0.3306 -0.0418
10037SOL     OW31551   4.334   0.634   7.659 -0.0743 -1.2914 -0.3740
10037SOL    HW131552   4.365   0.680   7.581 -1.2446 -0.1828 -0.2374
10037SOL    HW231553   4.346   0.542   7.639 -2.6634 -1.2241 -2.9896
10038SOL     OW31554   5.148   3.539   9.856  0.1697 -0.0778 -0.4952
10038SOL    HW131555   5.134   3.455   9.900  0.5251  0.5448  0.8536
10038SOL    HW231556   5.063   3.581   9.858  0.0839 -0.2344 -0.8083
10039SOL     OW31557   6.447   7.477   2.667 -0.0435 -0.2597  0.2705
10039SOL    HW131558   6.534   7.445   2.692 -0.4028 -1.0154  0.6037
10039SOL    HW231559   6.387   7.429   2.724 -0.5396  2.5858  2.3644
10040SOL     OW31560   2.231   0.728   2.239  0.3776  0.5325  0.0136
10040SOL    HW131561   2.187   0.643   2.243  0.2020  0.6666  2.7836
10040SOL    HW231562   2.164   0.792   2.262  0.5074  1.5098 -2.0364
10041SOL     OW31563   4.944   6.825   5.644 -0.1364  0.2496  0.1203
10041SOL    HW131564   4.871   6.765   5.631  0.0516  0.1676 -0.6258
10041SOL    HW231565   4.958   6.827   5.739 -2.4250  1.8608  0.5001
10042SOL     OW31566   5.486   3.681   3.714 -0.1916  0.0649 -0.8192
10042SOL    HW131567   5.540   3.693   3.792  0.9735  1.2562 -1.7694
10042SOL    HW231568   5.411   3.739   3.727  1.1994  2.1480 -1.6048
10043SOL     OW31569   5.929   0.492  10.272 -0.6020  0.1313  0.0369
10043SOL    HW131570   5.914   0.585  10.284 -1.9721  0.0461 -0.7313
10043SOL    HW231571   5.951   0.459  10.359 -0.8428  1.0417  0.4503
10044SOL     OW31572   6.295   4.578   9.916 -0.2129  0.2932  0.0478
10044SOL    HW131573   6.204   4.587   9.890 -0.1851  0.3744 -0.0218
10044SOL    HW231574   6.322   4.493   9.883  0.2442  0.9990 -1.4683
10045SOL     OW31575   6.101   2.084   6.906 -0.4180 -0.1965 -0.1352
10045SOL    HW131576   6.052   2.131   6.974  2.0130  1.4987  0.6078
10045SOL    HW231577   6.085   2.134   6.826 -1.4399 -0.8089 -0.3152
10046SOL     OW31578   6.132   4.528   7.940  0.6817  0.0242  0.1885
10046SOL    HW131579   6.078   4.449   7.944  0.5397  0.0495 -1.0195
10046SOL    HW231580   6.221   4.497   7.953  0.6768 -0.4096 -0.7302
10047SOL     OW31581   6.546   1.087  11.722 -0.1525 -0.0867 -0.2143
10047SOL    HW131582   6.494   1.166  11.735 -0.1319 -0.4211  2.5072
10047SOL    HW231583   6.482   1.017  11.709 -0.1954  0.2197 -1.7618
10048SOL     OW31584   5.689   6.231  10.766  0.0644  0.1853  0.4359
10048SOL    HW131585   5.660   6.160  10.823  0.4360  0.5646  1.1159
10048SOL    HW231586   5.671   6.200  10.678 -0.4540 -0.4496  0.7560
10049SOL     OW31587   6.056   0.530   3.469 -0.3140 -0.4395  0.3029
10049SOL    HW131588   5.987   0.596   3.464  0.2313  0.0384 -1.7082
10049SOL    HW231589   6.101   0.548   3.551 -0.4264  1.4337 -0.0110
10050SOL     OW31590   5.472   3.729   8.203  0.5295 -0.0280  0.3291
10050SOL    HW131591   5.427   3.706   8.285 -1.9493 -1.1431 -1.2348
10050SOL    HW231592   5.415   3.794   8.162  1.7290  0.5140 -0.5155
10051SOL     OW31593   0.879   0.569   7.277  0.4293  0.4397 -0.2199
10051SOL    HW131594   0.893   0.587   7.184  0.1419  0.8721 -0.1878
10051SOL    HW231595   0.957   0.523   7.305  0.4841  0.2369 -0.6957
10052SOL     OW31596   2.539   7.522   5.017 -0.7444 -0.0970  0.1981
10052SOL    HW131597   2.469   7.571   5.059 -1.7371 -1.0373 -0.3317
10052SOL    HW231598   2.554   7.447   5.074 -1.1483 -0.6504 -0.4222
10053SOL     OW31599   1.717   7.796   1.572 -0.6671 -0.7045 -0.1379
10053SOL    HW131600   1.624   7.782   1.559 -0.9015 -0.4086  1.1270
10053SOL    HW231601   1.728   7.806   1.667  0.4691  0.5119 -0.3607
10054SOL     OW31602   6.767   4.028   1.279  0.2908 -0.6227 -0.1780
10054SOL    HW131603   6.734   4.073   1.202  0.7332 -0.7204 -0.4285
10054SOL    HW231604   6.861   4.017   1.263  0.4267 -0.4610  0.4652
10055SOL     OW31605   4.589   6.032  11.161 -0.1698 -0.4960  0.5071
10055SOL    HW131606   4.641   6.053  11.239  1.5752 -1.6107 -0.2910
10055SOL    HW231607   4.621   5.946  11.134 -0.6936 -0.1004 -1.4820
10056SOL     OW31608   3.058   4.539   6.909 -0.0949  0.0952 -0.1036
10056SOL    HW131609   3.149   4.522   6.934  0.1626 -0.2522 -1.2152
10056SOL    HW231610   3.058   4.534   6.813 -0.9772  1.6564 -0.2198
10057SOL     OW31611   1.460   0.347   1.306  0.1968 -0.2232  0.3686
10057SOL    HW131612   1.435   0.418   1.247  1.1803 -0.3797 -0.2680
10057SOL    HW231613   1.382   0.293   1.312  0.4616 -1.0081 -2.0097
10058SOL     OW31614   7.687   1.810   6.489  0.6535 -0.8668 -0.2882
10058SOL    HW131615   7.638   1.893   6.493  1.9975  0.0217 -1.3709
10058SOL    HW231616   7.636   1.750   6.543  1.3529  1.5273  3.4001
10059SOL     OW31617   4.465   4.215  10.479 -0.1694  0.1859  0.3177
10059SOL    HW131618   4.425   4.130  10.496 -1.6031  0.6802 -0.3950
10059SOL    HW231619   4.440   4.236  10.389  1.3228  0.7580  0.0031
10060SOL     OW31620   2.054   5.136  11.592  0.1374 -0.2854 -0.0586
10060SOL    HW131621   2.131   5.180  11.556  1.2105 -0.6973  1.5940
10060SOL    HW231622   2.091   5.066  11.647 -1.4510 -1.1264 -0.0092
10061SOL     OW31623   6.462   4.351   0.021 -0.3938  0.3275 -0.4394
10061SOL    HW131624   6.476   4.343  -0.073  1.7156  0.0374 -0.1368
10061SOL    HW231625   6.394   4.418   0.030  0.5645  1.5909 -2.1094
10062SOL     OW31626   6.816   5.376   1.321 -0.1794 -0.7951  0.3994
10062SOL    HW131627   6.827   5.291   1.365 -0.0917 -0.9282  0.1280
10062SOL    HW231628   6.792   5.437   1.390  2.5631 -0.4138  1.1104
10063SOL     OW31629   5.455   1.581   0.056 -0.0224  0.1271 -0.3008
10063SOL    HW131630   5.435   1.673   0.040 -1.9552 -0.4855 -1.6795
10063SOL    HW231631   5.430   1.536  -0.024  0.2735 -1.6979  0.5757
10064SOL     OW31632   4.584   6.270   6.457  0.1271  0.0466  0.0400
10064SOL    HW131633   4.608   6.179   6.440  1.5944  0.4145  0.0089
10064SOL    HW231634   4.534   6.296   6.380 -0.1637 -0.6710 -0.0276
10065SOL     OW31635   5.221   7.278   9.817 -0.0242  0.5943  0.8405
10065SOL    HW131636   5.148   7.272   9.880 -0.1604 -1.6893  0.5553
10065SOL    HW231637   5.180   7.264   9.732  0.7167 -0.6156  0.6696
10066SOL     OW31638   2.108   3.668   2.438  0.5382  0.6405 -0.7165
10066SOL    HW131639   2.063   3.751   2.452  1.4866  1.1738 -0.7768
10066SOL    HW231640   2.068   3.608   2.502 -1.5307  0.5719 -1.9866
10067SOL     OW31641   1.666   4.228   1.563  0.2751  0.8054  0.4379
10067SOL    HW131642   1.583   4.212   1.517  1.0613  1.5835 -1.3684
10067SOL    HW231643   1.659   4.178   1.644 -1.5411  0.0164 -0.1574
10068SOL     OW31644   2.038   5.738   2.340  0.3430  0.6274  0.2862
10068SOL    HW131645   2.004   5.828   2.337  2.7190  1.6662  1.7868
10068SOL    HW231646   2.105   5.740   2.408  2.1379 -1.7039 -1.2626
10069SOL     OW31647   0.152   0.362  11.747 -0.2816 -0.2211  0.4280
10069SOL    HW131648   0.118   0.441  11.706 -0.4655 -0.5519 -0.0682
10069SOL    HW231649   0.082   0.297  11.736 -0.4976 -0.2191  1.6050
10070SOL     OW31650   3.159   5.684  11.949  0.0196  0.1619 -0.1506
10070SOL    HW131651   3.154   5.709  12.042 -0.7529  1.8850 -0.6106
10070SOL    HW231652   3.245   5.716  11.921 -0.6978  1.8456 -0.5716
10071SOL     OW31653   6.736   4.488   9.702  0.0818 -0.5782  0.9970
10071SOL    HW131654   6.670   4.534   9.754  1.0668  1.9526  0.1566
10071SOL    HW231655   6.699   4.483   9.614  0.2097 -0.9324  0.9603
10072SOL     OW31656   2.365   7.332   7.806  0.6399 -0.5995  0.4817
10072SOL    HW131657   2.303   7.268   7.841  1.3876 -2.5130 -1.5134
10072SOL    HW231658   2.451   7.296   7.827  1.0967  0.6608  0.8511
10073SOL     OW31659   6.265   4.515   0.061  0.0682  0.5372 -0.0453
10073SOL    HW131660   6.228   4.508  -0.027  2.9049  1.0218 -1.3739
10073SOL    HW231661   6.188   4.516   0.119 -1.9058  0.4209 -2.4899
10074SOL     OW31662   1.249   0.819   3.623 -0.1925 -0.5323  0.1880
10074SOL    HW131663   1.206   0.861   3.698 -1.0468  0.0784 -0.6300
10074SOL    HW231664   1.322   0.877   3.601 -0.4093 -0.3091  0.0598
10075SOL     OW31665   3.024   7.862  11.028  0.4529  0.5111  0.1623
10075SOL    HW131666   3.084   7.861  11.102 -0.2489 -0.4377  0.7443
10075SOL    HW231667   3.022   7.771  10.998 -0.0403  0.7002 -0.3772
10076SOL     OW31668   3.514   2.943   6.100  0.0202  0.4760 -0.1567
10076SOL    HW131669   3.550   3.031   6.100 -1.3836  1.0628  0.0130
10076SOL    HW231670   3.461   2.938   6.021 -1.9866  0.6839  1.1205
10077SOL     OW31671   4.862   1.468   7.618 -0.3605 -0.6085  0.4919
10077SOL    HW131672   4.933   1.524   7.649 -1.3010  1.5565 -0.9898
10077SOL    HW231673   4.785   1.524   7.620 -1.4338 -1.9679 -0.7443
10078SOL     OW31674   7.389   6.566   8.564 -0.2494  0.5101 -0.2202
10078SOL    HW131675   7.350   6.481   8.585  0.5906 -0.1187 -1.0912
10078SOL    HW231676   7.369   6.579   8.471  1.2523  0.3395 -0.6010
10079SOL     OW31677   2.288   2.571  11.972  0.0776  0.2263 -0.3589
10079SOL    HW131678   2.209   2.615  11.940 -0.5562  1.7475  2.8892
10079SOL    HW231679   2.261   2.530  12.054  2.0597 -1.5447 -0.5143
10080SOL     OW31680   4.330   2.112  11.928  0.2074 -0.6049  0.5918
10080SOL    HW131681   4.348   2.146  11.840  1.1752 -1.5848  0.3910
10080SOL    HW231682   4.249   2.061  11.917 -0.0022 -0.2348  0.4015
10081SOL     OW31683   3.774   1.312  10.698 -0.3363 -0.1470  0.1019
10081SOL    HW131684   3.710   1.372  10.661 -0.3038 -0.4413 -0.4526
10081SOL    HW231685   3.757   1.312  10.792 -0.3517  0.7002  0.1007
10082SOL     OW31686   1.348   5.204   6.754 -0.0602 -0.0943 -0.2509
10082SOL    HW131687   1.348   5.264   6.680 -0.7712 -0.5735 -0.6480
10082SOL    HW231688   1.350   5.261   6.831 -1.0280  0.4428 -0.6200
10083SOL     OW31689   6.064   4.601   2.325 -0.0779  0.0245 -0.0088
10083SOL    HW131690   6.014   4.670   2.370  0.0753  0.2279 -0.1516
10083SOL    HW231691   6.144   4.591   2.377 -0.4129 -0.5386  0.4149
10084SOL     OW31692   3.286   7.082  10.208 -0.3073 -0.1107  0.0878
10084SOL    HW131693   3.365   7.135  10.217 -0.4204  0.2512 -0.9448
10084SOL    HW231694   3.281   7.033  10.290 -0.2193  1.5065  1.1223
10085SOL     OW31695   2.166   1.219   3.043 -0.0153 -0.1433  0.5078
10085SOL    HW131696   2.130   1.147   2.992  1.5853  0.5438 -1.7013
10085SOL    HW231697   2.261   1.206   3.041  0.2612  1.5832  0.7381
10086SOL     OW31698   4.729   6.559   2.569  0.1157 -0.2697  0.0943
10086SOL    HW131699   4.709   6.619   2.497 -0.7900  2.0325  2.1224
10086SOL    HW231700   4.648   6.555   2.621  0.7903 -1.7063  1.1255
10087SOL     OW31701   4.112   1.645   6.135 -0.0635  0.1616 -0.2326
10087SOL    HW131702   4.152   1.650   6.222 -2.7309 -2.1436  1.2857
10087SOL    HW231703   4.156   1.572   6.092  0.0366  0.1684 -0.1407
10088SOL     OW31704   6.536   5.136   7.853  0.7690  0.2340 -0.6114
10088SOL    HW131705   6.609   5.180   7.897  0.7854 -0.1186 -0.2785
10088SOL    HW231706   6.573   5.054   7.822  0.1953 -0.5927  0.7777
10089SOL     OW31707   3.198   5.984   6.443  0.6630  0.4192 -0.6182
10089SOL    HW131708   3.132   5.946   6.384  0.2333 -0.3038  0.3068
10089SOL    HW231709   3.148   6.040   6.502  0.9992  0.5495 -0.4576
10090SOL     OW31710   6.900   2.266  12.291 -0.4945 -0.1097  0.0233
10090SOL    HW131711   6.884   2.327  12.362  1.0813  1.6906 -1.0635
10090SOL    HW231712   6.914   2.182  12.334  0.8010  0.9946  1.8989
10091SOL     OW31713   1.370   0.820  11.495 -0.1883  0.2525  0.2536
10091SOL    HW131714   1.283   0.780  11.490 -0.1031 -0.0098  0.8593
10091SOL    HW231715   1.355   0.912  11.475 -0.8088  0.4878  1.7228
10092SOL     OW31716   3.120   3.462   1.771  0.0696 -0.0143  0.2973
10092SOL    HW131717   3.185   3.449   1.840 -0.7984  0.2751  1.1842
10092SOL    HW231718   3.051   3.398   1.789 -0.7993  0.9532  0.4893
10093SOL     OW31719   6.787   6.446   1.711  0.4890 -0.0048  0.5481
10093SOL    HW131720   6.699   6.467   1.742  0.0908  1.0826 -1.1487
10093SOL    HW231721   6.845   6.499   1.766  0.0856 -0.5705  1.5412
10094SOL     OW31722   0.219   7.941   2.200 -0.2342 -0.2668 -0.1362
10094SOL    HW131723   0.128   7.913   2.186 -0.9164  1.3277  0.9319
10094SOL    HW231724   0.231   8.015   2.140  0.0576  0.1339  0.4128
10095SOL     OW31725   2.024   3.813   9.589 -0.3162 -0.0109 -0.3416
10095SOL    HW131726   2.073   3.737   9.557 -0.1651  0.5180 -1.3867
10095SOL    HW231727   2.070   3.839   9.669 -0.0629 -0.6948 -0.2541
10096SOL     OW31728   6.973   5.609   8.314 -0.9864  0.0786  0.4857
10096SOL    HW131729   7.040   5.602   8.382 -1.2435  0.8192  0.8172
10096SOL    HW231730   7.023   5.621   8.233 -0.7191  1.3427  0.8229
10097SOL     OW31731   7.514   0.012   4.859 -0.5475  0.2370 -0.3028
10097SOL    HW131732   7.479   0.023   4.771  0.7142  1.1691 -0.7250
10097SOL    HW231733   7.590  -0.046   4.848 -0.4981  0.1962  0.1966
10098SOL     OW31734   3.562   2.550   0.296 -0.2166  0.1677  0.2745
10098SOL    HW131735   3.524   2.518   0.214 -0.9326 -0.5982  0.8751
10098SOL    HW231736   3.551   2.645   0.293  1.9460  0.4294 -1.5618
10099SOL     OW31737   1.168   5.580   9.457  0.5125 -0.2037 -0.2440
10099SOL    HW131738   1.138   5.659   9.413 -1.3247 -1.1481 -0.8034
10099SOL    HW231739   1.088   5.533   9.479  1.5464 -2.4755 -1.0085
10100SOL     OW31740   3.265   3.489  12.247  0.0213 -0.3153 -0.7762
10100SOL    HW131741   3.340   3.482  12.188 -0.9926 -0.8465 -2.0280
10100SOL    HW231742   3.190   3.459  12.196 -0.8724 -1.0016  0.8503
10101SOL     OW31743   5.042   6.675   3.161 -0.9380  0.8647  0.0794
10101SOL    HW131744   5.084   6.680   3.075 -1.2263  0.0085 -0.1225
10101SOL    HW231745   5.062   6.587   3.192 -1.1720  1.0348  0.7220
10102SOL     OW31746   2.159   4.489   0.443 -0.4049  0.7323 -0.2079
10102SOL    HW131747   2.116   4.409   0.410  0.1297  0.3284  0.0665
10102SOL    HW231748   2.179   4.469   0.534  2.3418  0.0622 -0.8834
10103SOL     OW31749   2.586   7.704   3.431 -0.4282 -0.2126  0.1003
10103SOL    HW131750   2.554   7.770   3.492  2.7277  1.0889  0.5255
10103SOL    HW231751   2.597   7.625   3.485  0.4628  0.3711  0.8146
10104SOL     OW31752   2.402   1.009   9.550 -0.2169  0.2052  0.1181
10104SOL    HW131753   2.317   0.985   9.512 -1.3797 -0.3374  2.8146
10104SOL    HW231754   2.462   0.942   9.519 -1.9996 -2.6644  2.2770
10105SOL     OW31755   5.569   0.993   0.855 -0.0639  0.0784  0.0377
10105SOL    HW131756   5.627   0.968   0.784 -0.0320  0.1073  0.0538
10105SOL    HW231757   5.566   1.089   0.853 -0.2173  0.0727 -0.0479
10106SOL     OW31758   4.279   1.638   7.263 -0.4903 -0.2718  0.3642
10106SOL    HW131759   4.236   1.624   7.178 -1.5593  1.2541  0.5921
10106SOL    HW231760   4.231   1.582   7.324 -0.5675 -0.4052  0.1824
10107SOL     OW31761   1.619   0.692   0.377 -0.0679 -0.1754  0.3909
10107SOL    HW131762   1.533   0.697   0.418  0.7091  0.3682  2.0554
10107SOL    HW231763   1.658   0.778   0.393  0.7820 -0.4108 -0.3452
10108SOL     OW31764   6.670   4.914   7.744  0.0019  0.6647 -0.1058
10108SOL    HW131765   6.673   4.833   7.693  1.5217  0.4094  0.3426
10108SOL    HW231766   6.744   4.907   7.804  0.1829  2.4112 -0.0870
10109SOL     OW31767   2.953   2.752   7.231 -0.0152  0.1042 -0.4548
10109SOL    HW131768   2.949   2.842   7.262 -1.4153 -0.2666  0.5339
10109SOL    HW231769   3.040   2.744   7.192 -0.1314  2.0799 -1.2354
10110SOL     OW31770   7.455   5.542  10.430 -0.3868 -0.3440  0.5559
10110SOL    HW131771   7.366   5.530  10.462 -0.2589 -1.1686  0.6145
10110SOL    HW231772   7.447   5.538  10.335 -0.5358  0.4943  0.5261
10111SOL     OW31773   7.767   4.127  11.544  0.3931 -0.0649  0.3411
10111SOL    HW131774   7.833   4.181  11.587 -0.8031  0.2099  1.8961
10111SOL    HW231775   7.684   4.170  11.563 -0.3426 -0.9587 -0.7213
10112SOL     OW31776   0.705   0.524  12.470 -0.2695  0.0092  0.1900
10112SOL    HW131777   0.797   0.497  12.463 -0.8465 -1.6061 -2.6457
10112SOL    HW231778   0.695   0.590  12.401 -0.5448  2.7250  2.6388
10113SOL     OW31779   3.870   4.185  11.036 -0.1384 -0.4590 -0.4413
10113SOL    HW131780   3.873   4.165  11.130 -2.2242 -1.3848 -0.5055
10113SOL    HW231781   3.869   4.099  10.994  0.6958 -0.0509 -1.3249
10114SOL     OW31782   5.280   4.353  10.961  0.4356 -0.5617  0.4082
10114SOL    HW131783   5.328   4.414  10.906 -0.7503  0.1250  0.1045
10114SOL    HW231784   5.318   4.267  10.940 -0.0195 -0.3311 -1.5251
10115SOL     OW31785   1.571   6.938   7.577 -0.4483 -0.7221 -0.5333
10115SOL    HW131786   1.588   6.971   7.666  0.2092 -1.3035 -0.4315
10115SOL    HW231787   1.594   7.012   7.520 -0.8511 -0.3535 -0.2299
10116SOL     OW31788   0.701   3.017   2.176  0.7214  0.0315 -0.8784
10116SOL    HW131789   0.790   3.009   2.140  0.9592  0.9678 -0.5447
10116SOL    HW231790   0.666   3.096   2.134  0.6042  0.5113  0.0949
10117SOL     OW31791   4.380   3.881   1.214  0.2220  0.0815  0.2755
10117SOL    HW131792   4.451   3.880   1.278 -0.4446  0.5003  1.0360
10117SOL    HW231793   4.387   3.798   1.168  1.1645  0.0923  0.3858
10118SOL     OW31794   5.994   7.118   1.055 -0.0780 -0.7142 -0.1978
10118SOL    HW131795   5.928   7.178   1.019  0.2579 -0.2246 -0.0004
10118SOL    HW231796   5.990   7.132   1.149 -0.2736 -1.2937 -0.1160
10119SOL     OW31797   3.530   6.954   0.023  0.4923 -0.6309  0.5044
10119SOL    HW131798   3.598   6.914  -0.032 -0.1581 -0.6627 -0.2860
10119SOL    HW231799   3.489   7.019  -0.033 -2.0323 -2.5415 -0.0270
10120SOL     OW31800   7.604   3.254   1.680 -0.6662  0.1999 -0.2589
10120SOL    HW131801   7.569   3.286   1.763  0.5560  2.8755 -0.6632
10120SOL    HW231802   7.599   3.330   1.622  0.5741 -0.9683 -1.9728
10121SOL     OW31803   1.708   2.056   2.583  0.1830  0.0491 -0.4730
10121SOL    HW131804   1.633   2.113   2.564  0.2397  0.4318  0.4070
10121SOL    HW231805   1.697   1.982   2.524 -1.2621 -0.2262  0.0823
10122SOL     OW31806   6.395   7.049   7.305 -0.3649  0.7126  0.1425
10122SOL    HW131807   6.361   7.122   7.254 -0.8032  1.1216  1.0034
10122SOL    HW231808   6.348   6.973   7.273 -1.3893  1.1222  0.6423
10123SOL     OW31809   3.826   5.820  11.570 -0.0162 -0.0706 -0.0044
10123SOL    HW131810   3.913   5.787  11.548  0.0723  1.5405 -2.4946
10123SOL    HW231811   3.772   5.798  11.494 -2.2482 -2.3122  2.0715
10124SOL     OW31812   4.720   0.765   6.143  0.6051  0.3559 -0.7167
10124SOL    HW131813   4.695   0.787   6.233  0.6459 -2.0394 -0.0390
10124SOL    HW231814   4.762   0.680   6.150  0.8261  0.2067 -3.0037
10125SOL     OW31815   7.971   7.538   9.540 -0.0918 -0.3490 -0.5760
10125SOL    HW131816   7.930   7.611   9.586 -0.1284 -0.6885 -0.0516
10125SOL    HW231817   7.898   7.485   9.509 -0.0620 -0.4163 -0.5325
10126SOL     OW31818   6.123   5.762   5.138  0.0534 -0.0485  0.5073
10126SOL    HW131819   6.104   5.834   5.077  0.8668  0.2146  0.5631
10126SOL    HW231820   6.111   5.801   5.225  2.2160  0.5351  0.5845
10127SOL     OW31821   5.495   1.130   7.718 -0.0092 -0.2242  0.8775
10127SOL    HW131822   5.526   1.103   7.631 -0.1498  1.2993  0.3127
10127SOL    HW231823   5.573   1.165   7.761 -0.6445  3.0023 -0.3009
10128SOL     OW31824   4.829   3.437   6.710 -0.4423  0.0727  0.0207
10128SOL    HW131825   4.750   3.385   6.726 -0.6932  0.6934  0.8759
10128SOL    HW231826   4.901   3.374   6.719 -0.7928 -0.3258  0.0774
10129SOL     OW31827   5.258   2.540   6.583  0.1153 -0.3266 -0.0055
10129SOL    HW131828   5.249   2.578   6.495  0.2663 -1.2662 -0.4431
10129SOL    HW231829   5.249   2.446   6.569 -1.9086 -0.3958  1.2501
10130SOL     OW31830   2.702   4.037  12.457  0.4340  0.0470 -0.4362
10130SOL    HW131831   2.759   4.013  12.383  2.0079 -3.3409  1.6293
10130SOL    HW231832   2.637   3.967  12.461 -0.7044  1.1072  0.3988
10131SOL     OW31833   4.682   3.566   7.837 -0.2688 -0.8099 -0.1828
10131SOL    HW131834   4.690   3.526   7.751 -1.0355 -0.9625 -0.1901
10131SOL    HW231835   4.636   3.648   7.822  0.4919 -0.3456 -0.0456
10132SOL     OW31836   6.300   2.672  11.958 -0.3613  0.0977 -0.2743
10132SOL    HW131837   6.380   2.651  11.909  0.4823  0.3596  0.9584
10132SOL    HW231838   6.260   2.743  11.908 -0.1520 -0.4269 -1.2302
10133SOL     OW31839   5.236   1.665   8.008  0.0227  0.0731  0.0455
10133SOL    HW131840   5.210   1.734   7.948 -2.2711 -0.4828  0.3130
10133SOL    HW231841   5.268   1.594   7.952 -1.9922 -0.4018 -0.6104
10134SOL     OW31842   6.889   6.083  10.293 -0.0678 -0.0447  0.2522
10134SOL    HW131843   6.904   5.991  10.315 -0.8886  0.1568  1.7808
10134SOL    HW231844   6.894   6.129  10.377 -2.8246  0.8578  0.0349
10135SOL     OW31845   6.403   3.803   6.292 -0.2357  0.9531  0.4263
10135SOL    HW131846   6.474   3.815   6.229 -0.4610  0.4389  0.0740
10135SOL    HW231847   6.331   3.767   6.241  0.6758 -2.8964  1.5341
10136SOL     OW31848   4.655   6.737   3.733  0.6391  0.2594  0.5546
10136SOL    HW131849   4.575   6.754   3.684 -1.0271 -0.9863  2.6477
10136SOL    HW231850   4.711   6.689   3.672 -0.6193  0.2848 -0.6663
10137SOL     OW31851   6.179   1.442   2.396 -0.0528 -0.0938  0.0441
10137SOL    HW131852   6.100   1.450   2.343  0.1819 -3.4763 -1.0598
10137SOL    HW231853   6.152   1.470   2.484 -2.4608 -0.9601 -0.3331
10138SOL     OW31854   3.854   4.359   0.943 -0.2726 -0.3948 -0.2403
10138SOL    HW131855   3.834   4.325   1.030  1.5144 -0.3457  0.2352
10138SOL    HW231856   3.845   4.284   0.885  0.2810 -0.8781  0.2776
10139SOL     OW31857   7.966   0.359  10.846 -0.1489  0.2386  0.0096
10139SOL    HW131858   8.024   0.320  10.911 -0.0216 -0.4804 -0.5179
10139SOL    HW231859   8.017   0.429  10.806  0.6064 -0.8179 -0.9098
10140SOL     OW31860   7.735   1.712  10.426  0.0960 -0.0419  0.1406
10140SOL    HW131861   7.648   1.677  10.409  1.4539 -4.0419  0.3362
10140SOL    HW231862   7.737   1.729  10.520 -0.3936 -0.1935  0.1786
10141SOL     OW31863   5.502   0.995  10.506  0.4938 -0.1042  0.2658
10141SOL    HW131864   5.554   0.923  10.470  0.4336  0.7181 -1.5373
10141SOL    HW231865   5.479   0.965  10.594  2.9140 -1.0516  0.6678
10142SOL     OW31866   7.519   4.093  11.268  0.0952  0.4819 -0.1405
10142SOL    HW131867   7.554   4.141  11.343 -0.5530 -0.5843  0.8834
10142SOL    HW231868   7.495   4.161  11.205  1.2176  1.3670  0.3519
10143SOL     OW31869   1.304   3.857   4.894  0.7471  0.5000  0.0103
10143SOL    HW131870   1.306   3.779   4.838  2.0633  0.5184  0.0094
10143SOL    HW231871   1.381   3.907   4.868  0.2738  1.4863  0.4703
10144SOL     OW31872   6.899   3.204   7.272 -0.6897  0.0306  0.0091
10144SOL    HW131873   6.943   3.233   7.192 -0.4276  1.0056  0.4928
10144SOL    HW231874   6.808   3.230   7.261 -0.4245  1.2420  0.5113
10145SOL     OW31875   4.897   6.764  10.175 -0.2283  0.5749 -0.3735
10145SOL    HW131876   4.958   6.690  10.167 -1.0455 -0.2683  0.8242
10145SOL    HW231877   4.953   6.839  10.195  0.4306 -0.2134  0.8861
10146SOL     OW31878   5.747   7.616   5.634  0.3939 -0.4530 -0.4650
10146SOL    HW131879   5.842   7.628   5.629  0.5616 -1.5617 -0.2229
10146SOL    HW231880   5.728   7.547   5.571 -0.4073  0.4241 -1.2241
10147SOL     OW31881   6.807   3.198  11.905 -0.2493 -0.5668 -0.1287
10147SOL    HW131882   6.870   3.233  11.969 -0.0884 -1.2359  0.0973
10147SOL    HW231883   6.848   3.117  11.874 -1.1854 -1.2573  0.3572
10148SOL     OW31884   6.892   5.222  11.169  0.8662  0.1071  0.3332
10148SOL    HW131885   6.865   5.183  11.252  1.8585 -0.8064  0.2428
10148SOL    HW231886   6.903   5.315  11.188  0.2088  0.0572  0.9966
10149SOL     OW31887   2.964   2.054   6.823  0.1663  0.0330  0.0756
10149SOL    HW131888   2.923   2.139   6.810  1.9808  1.0946  0.8985
10149SOL    HW231889   2.905   2.007   6.882 -1.0505  0.5518 -0.7046
10150SOL     OW31890   6.517   5.691   0.735 -0.4506 -0.1335  0.2820
10150SOL    HW131891   6.459   5.740   0.794 -1.4791  2.2489 -2.4515
10150SOL    HW231892   6.483   5.710   0.648  1.4293 -2.8743 -1.1941
10151SOL     OW31893   1.784   0.677   8.937 -0.2218 -0.2116  0.0793
10151SOL    HW131894   1.732   0.738   8.884  0.5565  1.1636  0.8431
10151SOL    HW231895   1.753   0.691   9.026  1.1221  0.3030  0.4862
10152SOL     OW31896   6.559   5.888   4.685  0.1683 -0.0478 -0.2768
10152SOL    HW131897   6.613   5.809   4.687 -1.4221 -1.1731 -0.3573
10152SOL    HW231898   6.511   5.886   4.768  0.8301  1.3797  0.1701
10153SOL     OW31899   1.000   0.604   8.567  0.1678 -0.5131 -0.5524
10153SOL    HW131900   1.040   0.678   8.521  0.8152 -0.3131  0.3330
10153SOL    HW231901   1.025   0.615   8.658 -3.4371  0.7288  0.4756
10154SOL     OW31902   3.879   1.408   4.384 -0.0798  0.2092 -0.7178
10154SOL    HW131903   3.934   1.412   4.305 -0.7884  1.3894 -1.1803
10154SOL    HW231904   3.801   1.361   4.356 -0.1548  0.2697 -0.6106
10155SOL     OW31905   1.240   7.717   7.401 -1.3263  0.0767  0.3805
10155SOL    HW131906   1.246   7.629   7.439  0.8143  0.6166  1.4175
10155SOL    HW231907   1.184   7.706   7.324 -0.9993 -2.2115  0.4041
10156SOL     OW31908   1.911   7.233   9.627  0.9399 -0.5262  0.0905
10156SOL    HW131909   1.862   7.172   9.682 -1.5889 -0.2383 -1.6561
10156SOL    HW231910   1.987   7.184   9.597  0.4863 -1.8353  1.0025
10157SOL     OW31911   4.374   3.173  10.671 -0.5482 -0.6867  0.6168
10157SOL    HW131912   4.415   3.245  10.719  1.4755 -0.8436 -0.7547
10157SOL    HW231913   4.291   3.209  10.640 -0.3039  0.5141  1.3034
10158SOL     OW31914   3.824   7.752   1.064 -0.5959 -0.0058 -0.2268
10158SOL    HW131915   3.829   7.685   1.132 -0.2814 -0.2422 -0.4785
10158SOL    HW231916   3.856   7.832   1.106 -0.6491 -0.0917 -0.0239
10159SOL     OW31917   1.158   6.036  11.899 -0.4849 -0.3591 -0.0709
10159SOL    HW131918   1.113   5.986  11.831 -0.6309 -0.7283  0.2932
10159SOL    HW231919   1.248   6.043  11.868 -0.1504 -1.9660  0.4750
10160SOL     OW31920   1.768   0.889   1.203 -0.2899 -0.7078  0.4235
10160SOL    HW131921   1.689   0.848   1.238 -1.9576  1.9302 -0.0123
10160SOL    HW231922   1.814   0.922   1.280  0.1025 -1.6624  0.6215
10161SOL     OW31923   6.173   4.741   3.259 -0.6965  1.0163 -0.3032
10161SOL    HW131924   6.200   4.649   3.256 -0.9107  0.9747 -1.5602
10161SOL    HW231925   6.164   4.760   3.353 -1.3369 -0.4427 -0.0375
10162SOL     OW31926   4.489   5.802   0.240  0.1061  0.2829  0.4032
10162SOL    HW131927   4.423   5.762   0.182 -1.3441 -0.5103  2.4902
10162SOL    HW231928   4.469   5.896   0.236 -0.9196  0.0895  0.7189
10163SOL     OW31929   1.382   7.710   0.664 -0.3226 -0.4099 -0.1096
10163SOL    HW131930   1.296   7.736   0.698 -0.2270  0.1319 -0.2621
10163SOL    HW231931   1.373   7.717   0.569  0.1239  0.4513 -0.0995
10164SOL     OW31932   6.941   7.385   4.287  0.5686 -0.1655  0.5571
10164SOL    HW131933   6.855   7.344   4.275  1.4692 -1.8790 -0.4508
10164SOL    HW231934   6.988   7.366   4.206  1.8601  0.8683  1.0339
10165SOL     OW31935   6.448   0.369   3.192 -0.1245 -0.2027 -0.5905
10165SOL    HW131936   6.384   0.389   3.260  1.5270  0.5110  0.8429
10165SOL    HW231937   6.411   0.406   3.112 -0.9790  1.2333  0.4273
10166SOL     OW31938   4.687   0.478   8.325 -0.0339 -0.1656 -0.0941
10166SOL    HW131939   4.601   0.469   8.284  0.3765 -1.4552 -0.7393
10166SOL    HW231940   4.743   0.512   8.256  0.4273 -1.3431 -0.3256
10167SOL     OW31941   7.811   0.009   5.069  0.2143  0.0154 -0.3675
10167SOL    HW131942   7.768   0.095   5.072 -2.1990 -1.1420  0.6583
10167SOL    HW231943   7.789  -0.026   4.983  1.2350  0.4032 -0.8025
10168SOL     OW31944   2.715   2.532  11.631 -0.6913 -0.0409 -0.2551
10168SOL    HW131945   2.671   2.501  11.552  3.0462 -0.6160 -2.3519
10168SOL    HW231946   2.719   2.455  11.689 -0.8286 -0.4627 -0.8025
10169SOL     OW31947   4.496   0.215   1.437 -0.0290 -0.5765 -0.4392
10169SOL    HW131948   4.506   0.156   1.512  2.0102 -0.9505 -0.9532
10169SOL    HW231949   4.408   0.253   1.448 -0.2589 -1.5414  1.4540
10170SOL     OW31950   1.623   4.358   9.366  0.0590  0.6936 -0.2814
10170SOL    HW131951   1.580   4.405   9.295  1.1485 -0.0165 -1.4649
10170SOL    HW231952   1.697   4.414   9.392  0.1562  0.5710 -0.2901
10171SOL     OW31953   6.316   7.372   8.973 -0.1105 -0.3188  0.2079
10171SOL    HW131954   6.399   7.406   9.004  0.3594 -0.3842 -0.9407
10171SOL    HW231955   6.284   7.317   9.046  1.1582 -0.8179  0.4163
10172SOL     OW31956   5.799   3.453   3.754  0.6221 -0.1362  0.2055
10172SOL    HW131957   5.811   3.533   3.806 -0.7922  0.9126 -0.9995
10172SOL    HW231958   5.874   3.399   3.776  1.0298  1.0435  1.9289
10173SOL     OW31959   7.666   2.362  12.390  0.7747 -0.3314 -0.1776
10173SOL    HW131960   7.646   2.282  12.341  1.0805 -0.9654  0.6931
10173SOL    HW231961   7.597   2.368  12.456  1.5599 -0.7059  0.7068
10174SOL     OW31962   6.304   4.493   9.161  0.3257  0.0411  0.1618
10174SOL    HW131963   6.248   4.456   9.092 -0.2494 -0.0234  0.6549
10174SOL    HW231964   6.271   4.583   9.172  1.6191  0.6781 -0.9308
10175SOL     OW31965   3.890   3.598   4.890 -0.2795 -0.1259  0.3129
10175SOL    HW131966   3.887   3.505   4.867  2.2800 -0.4788  1.1371
10175SOL    HW231967   3.954   3.636   4.831 -0.7595  0.9918  0.4803
10176SOL     OW31968   6.249   5.731  10.155  0.0123 -0.0384 -0.2113
10176SOL    HW131969   6.300   5.771  10.085 -1.4133 -1.2204 -2.0493
10176SOL    HW231970   6.260   5.637  10.143 -0.5473 -0.2800  0.9473
10177SOL     OW31971   2.958   5.322   6.925  0.1680  0.0684 -0.1192
10177SOL    HW131972   2.990   5.243   6.968 -0.6452 -0.0180  0.3383
10177SOL    HW231973   3.037   5.373   6.906  0.9733 -1.8588 -2.5428
10178SOL     OW31974   0.563   3.566   9.103  0.6838  0.1052  0.0732
10178SOL    HW131975   0.640   3.518   9.132  1.0084  1.0943  0.9076
10178SOL    HW231976   0.585   3.658   9.117 -0.0223  0.4994 -1.2364
10179SOL     OW31977   0.503   3.678   1.677  0.1570  0.4050  0.1063
10179SOL    HW131978   0.480   3.598   1.724  0.4735  0.0384 -0.3514
10179SOL    HW231979   0.420   3.726   1.672 -0.0026  0.1822  0.5230
10180SOL     OW31980   3.849   0.090   9.926 -0.1034  0.0506  0.1428
10180SOL    HW131981   3.835   0.184   9.932 -2.5994 -0.3041  0.7530
10180SOL    HW231982   3.832   0.069   9.834  1.1826  0.2525 -0.1653
10181SOL     OW31983   7.539   0.265   4.474  0.3416  0.1383  0.3274
10181SOL    HW131984   7.617   0.269   4.419 -0.6600  1.2394 -1.0907
10181SOL    HW231985   7.566   0.305   4.557  0.8485  2.1840 -0.7461
10182SOL     OW31986   0.180   4.012   3.895  0.3933  0.2531 -0.1060
10182SOL    HW131987   0.272   4.016   3.867  0.4637 -0.7743 -0.0516
10182SOL    HW231988   0.150   4.103   3.890  0.5499  0.2392 -3.0111
10183SOL     OW31989   1.500   2.696   9.114 -0.1822 -0.1989 -0.2729
10183SOL    HW131990   1.556   2.763   9.155  1.1410 -1.1322 -0.5135
10183SOL    HW231991   1.426   2.689   9.174 -0.6943  1.9129 -0.5500
10184SOL     OW31992   2.141   2.563   6.243  0.1483 -0.7899 -0.3028
10184SOL    HW131993   2.053   2.537   6.216  0.2811 -1.1001 -0.4439
10184SOL    HW231994   2.129   2.602   6.329 -0.3608  0.7712 -1.0434
10185SOL     OW31995   1.413   7.409   0.650 -0.7196 -0.3050 -0.0844
10185SOL    HW131996   1.471   7.374   0.718 -0.3495  0.5897  0.0645
10185SOL    HW231997   1.408   7.503   0.668 -1.2934 -0.1929 -0.7913
10186SOL     OW31998   0.141   5.241   6.775  0.1481 -0.3883  0.0063
10186SOL    HW131999   0.205   5.276   6.836 -0.0826 -0.2191  0.1558
10186SOL    HW232000   0.106   5.164   6.819  0.3101 -0.5299 -0.1127
10187SOL     OW32001   5.474   3.275   3.846 -0.0992 -0.4231  0.1085
10187SOL    HW132002   5.458   3.185   3.818  0.2327 -0.4133 -0.1176
10187SOL    HW232003   5.467   3.327   3.766 -1.7253 -0.0498  0.4576
10188SOL     OW32004   7.919   2.040  10.352 -0.0680 -0.4086  0.6454
10188SOL    HW132005   7.883   2.044  10.441  1.3694  0.3790  1.2302
10188SOL    HW232006   8.008   2.006  10.364  0.5024  0.6676 -0.3605
10189SOL     OW32007   0.051   1.136   1.278  0.0325 -0.5360 -0.1377
10189SOL    HW132008  -0.040   1.163   1.290  0.9337  2.5518  0.4756
10189SOL    HW232009   0.056   1.051   1.322 -2.5262 -0.7951 -0.2004
10190SOL     OW32010   0.918   2.359   0.693  0.3495  0.0045 -0.1426
10190SOL    HW132011   1.008   2.345   0.663 -0.4998 -0.3749 -2.7897
10190SOL    HW232012   0.927   2.404   0.777  3.0100 -1.7810  0.6370
10191SOL     OW32013   2.689   6.275   1.995 -0.0395 -0.3922 -0.2378
10191SOL    HW132014   2.604   6.247   2.026 -0.6311  0.6950 -0.8222
10191SOL    HW232015   2.740   6.194   1.987 -0.8200 -0.9845  0.6537
10192SOL     OW32016   7.743   2.481  11.095 -0.1878 -0.0865  0.0677
10192SOL    HW132017   7.741   2.505  11.188 -1.6244 -0.4402  0.1467
10192SOL    HW232018   7.666   2.524  11.057  0.6773  0.5055 -1.0913
10193SOL     OW32019   3.823   5.697   1.762  0.5584 -0.1536 -0.1309
10193SOL    HW132020   3.830   5.761   1.691  0.9754 -1.0252 -0.8945
10193SOL    HW232021   3.771   5.741   1.829 -0.4910  0.4306 -1.2814
10194SOL     OW32022   0.724   7.011  11.614  0.2860 -0.3696  0.0382
10194SOL    HW132023   0.721   7.107  11.616  0.1222 -0.3754  1.4371
10194SOL    HW232024   0.813   6.990  11.644 -0.4399 -0.6479  2.1662
10195SOL     OW32025   5.014   4.381   0.893 -0.2494 -0.0073 -0.4652
10195SOL    HW132026   5.012   4.340   0.807  1.3463 -2.0383  0.3655
10195SOL    HW232027   4.980   4.469   0.879 -0.8318 -0.5619 -2.9831
10196SOL     OW32028   7.866   1.182  12.133  0.3515 -0.5922 -0.5536
10196SOL    HW132029   7.947   1.209  12.177 -0.2042 -0.5002  0.4649
10196SOL    HW232030   7.874   1.216  12.044  0.0048  2.3817  0.4427
10197SOL     OW32031   2.453   4.266  12.139  0.5871 -0.0066 -0.0265
10197SOL    HW132032   2.460   4.216  12.220 -2.3883 -0.5605  0.0212
10197SOL    HW232033   2.534   4.248  12.092  1.8546 -0.6625  2.2471
10198SOL     OW32034   4.518   5.478   4.810 -0.0695  0.2427 -0.0426
10198SOL    HW132035   4.464   5.451   4.884  2.5714 -1.0373  1.5530
10198SOL    HW232036   4.522   5.573   4.817 -0.0528  0.1639  1.3764
10199SOL     OW32037   1.002   1.878   6.364 -0.3232  0.1230 -0.0177
10199SOL    HW132038   0.990   1.841   6.452 -0.5016  1.3192  0.4747
10199SOL    HW232039   1.081   1.835   6.331  0.5228  0.6279  1.2720
10200SOL     OW32040   5.105   7.467   3.834 -0.3444  0.5932  0.2035
10200SOL    HW132041   5.049   7.455   3.757 -0.5005  0.8070  0.2825
10200SOL    HW232042   5.191   7.489   3.799 -0.7432  2.0782  0.1126
10201SOL     OW32043   0.288   5.208   7.680 -0.0144 -0.6453 -0.0568
10201SOL    HW132044   0.292   5.245   7.592 -3.9734 -0.4326 -0.3273
10201SOL    HW232045   0.356   5.140   7.681  1.8892  1.0545 -2.3036
10202SOL     OW32046   2.805   2.854  11.353 -0.2498  0.4681  0.4134
10202SOL    HW132047   2.786   2.925  11.292 -1.2097  0.3055  0.5049
10202SOL    HW232048   2.874   2.889  11.410  0.1910  0.8555 -0.3388
10203SOL     OW32049   1.843   1.671   6.881  0.7740  0.4552  0.8850
10203SOL    HW132050   1.923   1.720   6.863  0.0910  1.1102 -0.6465
10203SOL    HW232051   1.856   1.633   6.968  3.0194 -0.0683  0.3763
10204SOL     OW32052   5.315   6.349   4.346 -0.5908 -0.1807  0.0950
10204SOL    HW132053   5.229   6.391   4.357 -1.0479 -0.1918 -2.6938
10204SOL    HW232054   5.370   6.417   4.309 -0.2831 -0.9703 -0.9567
10205SOL     OW32055   0.065   2.898   2.551  0.4414 -0.0011 -0.4523
10205SOL    HW132056   0.025   2.954   2.484 -0.4531  1.2483  1.0473
10205SOL    HW232057   0.148   2.942   2.572  0.5256 -0.1596 -0.4527
10206SOL     OW32058   6.930   4.900   1.353  0.1549  0.1909 -0.1635
10206SOL    HW132059   7.022   4.917   1.334  0.5974 -0.8319  0.9528
10206SOL    HW232060   6.882   4.948   1.285  1.4949  0.8840 -0.6514
10207SOL     OW32061   6.983   6.196   4.140 -0.6425  0.3497  0.0505
10207SOL    HW132062   6.954   6.275   4.093 -2.8048 -1.3990 -1.7971
10207SOL    HW232063   6.902   6.153   4.166  0.4922 -1.1569  1.2370
10208SOL     OW32064   3.972   3.579  12.171 -0.0187 -0.1327 -0.3001
10208SOL    HW132065   4.016   3.639  12.232  1.4238  0.0840 -1.4913
10208SOL    HW232066   4.000   3.492  12.199  0.7941 -0.0232 -0.7383
10209SOL     OW32067   6.706   2.443   2.657  0.6684 -0.0637  0.5234
10209SOL    HW132068   6.632   2.427   2.599  0.8999 -0.3892  0.3150
10209SOL    HW232069   6.673   2.505   2.722  0.8948  1.6496 -0.9354
10210SOL     OW32070   3.541   5.818   8.974 -0.3354 -0.1087 -0.5065
10210SOL    HW132071   3.494   5.870   9.038 -1.1895 -0.1348 -1.1027
10210SOL    HW232072   3.495   5.832   8.891 -0.5600 -1.7251 -0.7051
10211SOL     OW32073   2.951   2.931   8.022 -0.0594  0.3797  0.1422
10211SOL    HW132074   3.041   2.939   7.991  0.3280  0.4897  1.2496
10211SOL    HW232075   2.936   3.010   8.074 -1.2539  1.0267 -1.0963
10212SOL     OW32076   6.879   6.533   3.396 -0.6918 -0.2373  0.3963
10212SOL    HW132077   6.942   6.510   3.327 -0.6381 -0.2970  0.4643
10212SOL    HW232078   6.831   6.452   3.412 -1.0867 -0.0738  0.0337
10213SOL     OW32079   1.633   2.344   9.901 -0.6675 -0.3997  0.3835
10213SOL    HW132080   1.721   2.309   9.885 -0.4002  0.6172 -0.4815
10213SOL    HW232081   1.646   2.439   9.910 -1.5736 -0.3273  1.0820
10214SOL     OW32082   1.289   5.131   9.047  0.0081 -0.0171  0.1228
10214SOL    HW132083   1.321   5.114   8.958 -1.7085  1.9816 -0.9699
10214SOL    HW232084   1.350   5.194   9.083  0.3942 -0.4100  0.1654
10215SOL     OW32085   5.615   5.475   4.465 -0.0559  0.1776  0.0863
10215SOL    HW132086   5.524   5.496   4.442  0.5058  0.3141 -2.2506
10215SOL    HW232087   5.664   5.491   4.385  1.5061 -3.5006  0.1177
10216SOL     OW32088   1.530   0.709   5.184 -0.0687 -0.2989  0.0079
10216SOL    HW132089   1.504   0.644   5.250 -1.1493  0.8507  0.7625
10216SOL    HW232090   1.449   0.755   5.163  0.7027  0.8836 -0.4202
10217SOL     OW32091   0.612   5.570   6.812  0.8002 -0.2844  0.6657
10217SOL    HW132092   0.672   5.629   6.766  1.8556 -0.8708  1.2259
10217SOL    HW232093   0.639   5.483   6.785 -0.0637 -0.5518  0.6413
10218SOL     OW32094   3.784   7.192   9.791  0.6163  0.1833 -0.2735
10218SOL    HW132095   3.758   7.243   9.868 -0.8997 -0.3869 -0.3692
10218SOL    HW232096   3.839   7.122   9.826  0.9564  0.6395  0.1253
10219SOL     OW32097   1.116   0.337   4.314  0.2742 -0.5582  0.1320
10219SOL    HW132098   1.042   0.312   4.369  0.5702 -0.6941  0.4810
10219SOL    HW232099   1.080   0.399   4.251 -0.3981 -1.5695 -0.5023
10220SOL     OW32100   1.893   1.046   3.806  0.0576  0.1009 -0.2939
10220SOL    HW132101   1.813   0.999   3.830  0.2576 -1.1196 -1.8401
10220SOL    HW232102   1.924   1.001   3.728  1.0075  2.0187 -1.0748
10221SOL     OW32103   0.231   3.416   1.114 -0.7506  0.0418  0.3564
10221SOL    HW132104   0.297   3.396   1.047 -0.0901  1.6039  0.5045
10221SOL    HW232105   0.214   3.332   1.156  1.7337 -0.2992  0.8445
10222SOL     OW32106   7.610   7.059  11.096  0.5840  0.1318 -0.2885
10222SOL    HW132107   7.530   7.009  11.112  0.2840  0.9068  0.7186
10222SOL    HW232108   7.617   7.063  11.000 -1.6291  1.6244 -0.4565
10223SOL     OW32109   0.817   5.260  11.939 -0.4887 -0.1698  0.1524
10223SOL    HW132110   0.757   5.299  11.875  0.9688  1.2515 -0.4174
10223SOL    HW232111   0.893   5.319  11.939 -1.0625  0.8961  4.4019
10224SOL     OW32112   3.018   7.557   7.012  0.4455 -0.1420  0.0985
10224SOL    HW132113   2.976   7.580   6.930 -1.5484 -3.5763 -0.0351
10224SOL    HW232114   2.966   7.601   7.079 -0.2400 -0.3367 -0.3061
10225SOL     OW32115   6.325   1.557   8.648  0.1657 -0.0605 -0.0116
10225SOL    HW132116   6.282   1.487   8.697 -0.2681  1.7563  2.3805
10225SOL    HW232117   6.315   1.532   8.556 -2.2941 -1.8118  0.6450
10226SOL     OW32118   1.402   2.373   3.992 -0.0025  0.5566  0.1834
10226SOL    HW132119   1.358   2.328   4.065  0.3988 -1.3923 -0.7086
10226SOL    HW232120   1.446   2.447   4.033  0.8822 -0.9313  2.1108
10227SOL     OW32121   0.056   1.502   4.583  0.7030 -0.4864 -0.0921
10227SOL    HW132122   0.001   1.531   4.511 -0.4582  0.1845  1.0194
10227SOL    HW232123   0.032   1.559   4.656  0.8303 -2.0192  1.2210
10228SOL     OW32124   0.273   0.827   4.805 -0.1517 -0.5078 -0.2136
10228SOL    HW132125   0.289   0.824   4.711 -0.7968 -1.8252 -0.3137
10228SOL    HW232126   0.186   0.787   4.815 -0.0495 -0.4643  0.9469
10229SOL     OW32127   2.652   7.848   7.505 -0.6586  0.8429  0.4027
10229SOL    HW132128   2.675   7.859   7.413 -0.3968  1.5046  0.5376
10229SOL    HW232129   2.721   7.895   7.553  0.0744 -0.7909  1.0199
10230SOL     OW32130   5.753   7.437   7.779  0.1633 -0.0486 -0.0478
10230SOL    HW132131   5.786   7.349   7.798  1.4121 -0.0311 -1.7927
10230SOL    HW232132   5.823   7.495   7.810 -0.2313  0.2814  0.2305
10231SOL     OW32133   3.123   4.706  11.863  0.0549 -0.1795  0.3174
10231SOL    HW132134   3.060   4.766  11.823  1.3502  1.1201  0.1085
10231SOL    HW232135   3.198   4.708  11.803  2.0978  1.8579  2.7150
10232SOL     OW32136   6.063   4.675   1.239 -0.0184 -0.5187  0.2131
10232SOL    HW132137   6.159   4.671   1.242  0.0965  1.6119  0.5664
10232SOL    HW232138   6.040   4.755   1.285 -1.9837 -0.8765 -0.0360
10233SOL     OW32139   1.191   7.678   1.605  0.2147  0.4263 -0.4908
10233SOL    HW132140   1.162   7.599   1.560  2.0111 -0.8601  0.4496
10233SOL    HW232141   1.114   7.733   1.610 -1.2262 -1.4732 -0.7731
10234SOL     OW32142   0.176   3.978   6.953 -0.4551 -0.0999  0.2324
10234SOL    HW132143   0.219   4.029   7.021 -0.9794 -0.4365  0.8239
10234SOL    HW232144   0.111   4.037   6.916 -1.9601 -0.6926  1.7887
10235SOL     OW32145   2.837   5.117   3.066  0.2391 -0.0671 -0.4818
10235SOL    HW132146   2.785   5.113   2.986  1.0699 -0.3276 -1.0221
10235SOL    HW232147   2.912   5.059   3.049  1.0180  0.7530  0.0350
10236SOL     OW32148   5.596   7.321   0.973 -0.1412  0.0458  0.1640
10236SOL    HW132149   5.533   7.388   1.000 -0.7431 -0.9287  1.3135
10236SOL    HW232150   5.679   7.367   0.964 -0.7202  1.0916  0.0633
10237SOL     OW32151   6.899   5.503  10.876  0.4926  0.2630  0.2153
10237SOL    HW132152   6.874   5.534  10.963 -1.1254 -0.4141  0.0246
10237SOL    HW232153   6.986   5.465  10.889  1.2747  2.1883  1.0402
10238SOL     OW32154   4.404   2.711  10.310 -0.0405  0.0819  0.5744
10238SOL    HW132155   4.371   2.754  10.389 -0.2149 -0.3951  0.7580
10238SOL    HW232156   4.497   2.736  10.306 -0.4396  1.5922 -0.0526
10239SOL     OW32157   6.168   4.748   8.061  0.1197  0.6572  0.2244
10239SOL    HW132158   6.186   4.711   8.147  0.3188  0.5978  0.1581
10239SOL    HW232159   6.126   4.678   8.012  0.1130  0.6532  0.2357
10240SOL     OW32160   2.939   3.157   0.371 -0.2687 -0.2166 -0.3558
10240SOL    HW132161   2.935   3.246   0.336  0.7127 -0.8280 -2.1879
10240SOL    HW232162   2.863   3.113   0.333  0.4672 -0.7259 -1.2844
10241SOL     OW32163   4.640   5.115   0.995  0.1400 -0.0126 -0.1953
10241SOL    HW132164   4.577   5.058   1.038 -0.3961  0.5488 -0.2401
10241SOL    HW232165   4.611   5.204   1.014  1.4075  0.2731  0.5122
10242SOL     OW32166   2.855   5.786   2.453  0.9874  0.3052  0.6158
10242SOL    HW132167   2.915   5.855   2.482 -0.8638  1.4468  1.9609
10242SOL    HW232168   2.787   5.783   2.521 -1.0391 -0.1955 -1.2966
10243SOL     OW32169   4.043   1.002   9.656 -0.0400  0.3391  0.6494
10243SOL    HW132170   3.976   0.986   9.589  1.4087 -0.0067 -0.7673
10243SOL    HW232171   4.031   1.094   9.679  0.5355  0.9937 -1.4159
10244SOL     OW32172   2.288   5.452  10.238 -0.6730 -0.0245  0.0027
10244SOL    HW132173   2.294   5.405  10.321 -2.2775 -0.2584  0.0216
10244SOL    HW232174   2.272   5.384  10.173  2.2171 -0.0432 -0.8264
10245SOL     OW32175   5.672   6.071   5.980  0.6669 -0.5521  0.4921
10245SOL    HW132176   5.728   5.999   5.953  1.1315 -0.1383  0.3304
10245SOL    HW232177   5.640   6.109   5.898  0.3957 -0.5963  0.5764
10246SOL     OW32178   4.678   2.841   7.287  0.0470 -0.2468  0.0293
10246SOL    HW132179   4.711   2.931   7.281 -1.7319  0.4592  0.2085
10246SOL    HW232180   4.587   2.847   7.259 -0.7597 -1.6006  2.1157
10247SOL     OW32181   6.802   3.502   0.848 -0.2643  0.1416 -0.6225
10247SOL    HW132182   6.787   3.510   0.942 -1.2442  0.9479 -0.8362
10247SOL    HW232183   6.850   3.419   0.838 -0.8489 -0.3488  0.5112
10248SOL     OW32184   0.399   6.150  10.787 -0.2631 -0.3984 -0.3396
10248SOL    HW132185   0.420   6.087  10.718 -0.4959 -1.3491  0.4323
10248SOL    HW232186   0.478   6.203  10.795  1.2877 -2.7349  1.2458
10249SOL     OW32187   5.253   1.467   6.458  0.0147 -0.0040 -0.4231
10249SOL    HW132188   5.310   1.536   6.423 -0.1735  0.4906  0.2379
10249SOL    HW232189   5.245   1.405   6.386  0.6474  0.3800 -0.8369
10250SOL     OW32190   0.214   2.438   8.519  0.1284 -0.9235 -0.5479
10250SOL    HW132191   0.277   2.489   8.569 -0.4296 -0.3380 -0.4206
10250SOL    HW232192   0.169   2.385   8.584 -0.0532 -0.7483 -0.5283
10251SOL     OW32193   7.617   4.387   6.382 -0.4661  0.0092 -0.2817
10251SOL    HW132194   7.709   4.359   6.385  0.0898  1.6253 -0.7037
10251SOL    HW232195   7.589   4.385   6.474 -0.0413 -0.5980 -0.1577
10252SOL     OW32196   1.068   6.605   3.871 -0.3643 -0.0370  0.5955
10252SOL    HW132197   1.058   6.519   3.911  0.4934 -0.7605 -0.6782
10252SOL    HW232198   1.119   6.589   3.792 -1.9210  1.3429 -0.7645
10253SOL     OW32199   7.938   0.995   6.478  0.0378 -0.0117 -0.2195
10253SOL    HW132200   7.918   0.920   6.534  0.5951 -0.1200 -0.1613
10253SOL    HW232201   7.930   0.960   6.389 -1.4044  0.2996 -0.2462
10254SOL     OW32202   5.673   4.031   8.825 -1.0293 -0.5260 -0.7423
10254SOL    HW132203   5.630   3.990   8.900 -1.3563 -0.0237 -0.6522
10254SOL    HW232204   5.642   4.121   8.825  0.3420 -0.0296 -0.4237
10255SOL     OW32205   0.577   1.660   4.250 -0.1464  0.1352 -0.5240
10255SOL    HW132206   0.560   1.745   4.210 -0.9506 -0.8125 -2.3071
10255SOL    HW232207   0.499   1.608   4.231 -0.1537 -0.7022  1.4856
10256SOL     OW32208   5.864   4.870  10.779  0.0372 -0.4560  0.1680
10256SOL    HW132209   5.804   4.934  10.741 -1.2644 -0.8307  1.5313
10256SOL    HW232210   5.823   4.842  10.860  1.6808 -1.3379  0.7588
10257SOL     OW32211   5.301   0.345   6.639 -0.0619 -0.1340 -0.2582
10257SOL    HW132212   5.239   0.393   6.585 -0.9092 -1.1428 -0.2095
10257SOL    HW232213   5.262   0.258   6.650  1.4771 -0.8885 -0.4368
10258SOL     OW32214   6.225   7.259   5.859  0.0117  0.0695  0.4707
10258SOL    HW132215   6.251   7.350   5.870 -0.1045  0.2007 -0.2954
10258SOL    HW232216   6.279   7.227   5.786 -2.6814  0.6683 -1.9642
10259SOL     OW32217   1.729   2.482   3.803 -0.6600 -0.1065 -0.0760
10259SOL    HW132218   1.656   2.543   3.788 -3.0715 -3.0611 -1.5765
10259SOL    HW232219   1.740   2.481   3.898 -3.3746 -0.3121  0.3125
10260SOL     OW32220   1.729   3.606   4.629 -0.3821  0.1018  0.1039
10260SOL    HW132221   1.745   3.665   4.703  0.7500 -0.4022  0.2804
10260SOL    HW232222   1.723   3.664   4.553  0.4466  0.4784  0.3144
10261SOL     OW32223   3.924   7.609   1.537 -1.0757  0.7380 -0.2647
10261SOL    HW132224   3.893   7.532   1.585 -0.2454  0.8661  0.4885
10261SOL    HW232225   4.003   7.636   1.582 -0.4582  1.0805 -1.5046
10262SOL     OW32226   6.351   0.818   3.498 -0.1458  0.2147 -0.3191
10262SOL    HW132227   6.334   0.759   3.572 -0.9769  0.0789 -0.6011
10262SOL    HW232228   6.445   0.833   3.500  0.1393 -1.3944 -0.4296
10263SOL     OW32229   5.080   1.018  10.808 -0.3495  0.1175 -0.4364
10263SOL    HW132230   5.150   1.050  10.865  0.0480 -0.7535 -0.4220
10263SOL    HW232231   5.068   0.927  10.833 -1.4889  0.2411 -0.4549
10264SOL     OW32232   5.022   2.269  11.777 -0.1607 -0.3517 -0.1915
10264SOL    HW132233   4.928   2.255  11.768 -0.0669 -0.9434 -0.2685
10264SOL    HW232234   5.030   2.334  11.847 -0.6309 -0.1894 -0.2866
10265SOL     OW32235   1.834   5.036   7.677  0.0254  0.0595  0.1954
10265SOL    HW132236   1.751   5.079   7.655 -1.1064 -1.9018  0.3735
10265SOL    HW232237   1.881   5.101   7.731 -1.3268  1.2635 -0.0086
10266SOL     OW32238   1.839   5.907   9.115  0.2114  0.0084  0.1454
10266SOL    HW132239   1.899   5.857   9.170 -0.6654 -1.9738 -0.6177
10266SOL    HW232240   1.872   5.895   9.026 -0.2688  0.4207 -0.0960
10267SOL     OW32241   4.712   4.545  10.407 -0.1854  0.6107 -0.1151
10267SOL    HW132242   4.618   4.541  10.427 -0.2800 -0.2674 -0.6582
10267SOL    HW232243   4.733   4.638  10.406 -0.7949  0.7901  1.1429
10268SOL     OW32244   5.202   2.781   5.292  0.7438  0.6701  0.4808
10268SOL    HW132245   5.268   2.849   5.277  0.9745  0.5404  0.8945
10268SOL    HW232246   5.244   2.699   5.266  1.2595  0.4031  2.0747
10269SOL     OW32247   0.226   7.691   4.882 -0.2094 -0.2184  0.5381
10269SOL    HW132248   0.146   7.641   4.898 -0.4538  0.9012  3.4499
10269SOL    HW232249   0.198   7.783   4.888  1.3755  0.2179  2.8368
10270SOL     OW32250   3.672   1.001  12.216  0.1324  0.2364  0.1172
10270SOL    HW132251   3.707   0.942  12.283 -2.0698 -1.1763  0.1419
10270SOL    HW232252   3.596   1.042  12.258  0.0728  1.0741 -0.7831
10271SOL     OW32253   2.092   0.229   4.609  0.1221 -0.0665 -0.2271
10271SOL    HW132254   2.032   0.203   4.679 -0.1157  0.5381 -0.2026
10271SOL    HW232255   2.167   0.267   4.654  1.0715 -1.8626 -0.2016
10272SOL     OW32256   0.118   1.849   7.160 -0.2381  0.3837  0.4714
10272SOL    HW132257   0.130   1.866   7.253  0.1431  0.9286  0.3304
10272SOL    HW232258   0.067   1.924   7.129 -2.4250 -0.9360  0.6847
10273SOL     OW32259   3.553   0.296  10.902  0.8959  0.6437  0.3622
10273SOL    HW132260   3.611   0.317  10.829  1.5093 -0.3945  0.5249
10273SOL    HW232261   3.467   0.284  10.862  0.9700  1.2785 -0.0079
10274SOL     OW32262   6.879   0.404   6.453 -0.8208 -0.3750 -0.1625
10274SOL    HW132263   6.934   0.465   6.500 -1.5600  0.8074 -0.7836
10274SOL    HW232264   6.832   0.458   6.389 -2.5531 -1.3557  0.2213
10275SOL     OW32265   1.283   2.062   3.087  0.1245  0.4441  0.6090
10275SOL    HW132266   1.344   2.066   3.013  1.2353  0.4045  1.4845
10275SOL    HW232267   1.228   1.986   3.069 -2.0031  2.3957 -1.8925
10276SOL     OW32268   0.408   5.558   0.281 -0.2996 -0.1404 -0.3063
10276SOL    HW132269   0.385   5.605   0.201  0.0439 -0.7759 -0.7893
10276SOL    HW232270   0.503   5.545   0.275  0.0030  1.2232  0.9923
10277SOL     OW32271   0.258   1.929   8.466  0.0378  0.4539 -0.1607
10277SOL    HW132272   0.190   1.970   8.412 -1.1358 -1.5075 -0.2890
10277SOL    HW232273   0.288   1.998   8.525 -2.4919  1.2558  0.2857
10278SOL     OW32274   4.808   6.759   9.186 -0.2271 -0.2478  0.3821
10278SOL    HW132275   4.748   6.830   9.209  2.1864  1.8550  0.6190
10278SOL    HW232276   4.799   6.697   9.259 -0.5446  1.0694  1.5203
10279SOL     OW32277   0.228   0.520   3.764  0.0844 -0.3847  0.5646
10279SOL    HW132278   0.155   0.566   3.723  1.0218  0.3462 -0.3352
10279SOL    HW232279   0.233   0.436   3.717 -0.2728 -0.5143  0.7501
10280SOL     OW32280   3.306   1.977   0.723 -0.1479  0.1027 -0.1665
10280SOL    HW132281   3.290   2.035   0.648 -1.1858  2.2419  1.5948
10280SOL    HW232282   3.242   2.005   0.789  0.5480 -1.8763  1.4482
10281SOL     OW32283   4.632   3.490  10.536 -0.1625 -0.3723 -0.2584
10281SOL    HW132284   4.594   3.443  10.462  0.8266  0.6701 -1.4582
10281SOL    HW232285   4.574   3.565  10.550 -0.5536 -0.7643  0.2873
10282SOL     OW32286   5.341   2.974   3.263 -0.6207  0.9432 -0.5827
10282SOL    HW132287   5.361   2.928   3.182  0.2936 -2.1048  1.2002
10282SOL    HW232288   5.396   3.052   3.261 -0.4223  0.8090 -2.7291
10283SOL     OW32289   5.175   6.406   9.211  0.1857 -0.2076 -0.0602
10283SOL    HW132290   5.142   6.324   9.248  0.8903 -0.2197  0.5757
10283SOL    HW232291   5.098   6.448   9.172 -0.1396 -1.2921 -0.6396
10284SOL     OW32292   3.865   5.910   1.518  0.2570 -0.6113 -0.0952
10284SOL    HW132293   3.780   5.869   1.501  0.7332 -1.4235 -0.5700
10284SOL    HW232294   3.844   6.000   1.545 -0.8073 -1.1638  0.9792
10285SOL     OW32295   0.178   4.834   1.831  0.3074 -0.0506  0.5510
10285SOL    HW132296   0.086   4.836   1.803  0.5290 -0.5900 -0.2541
10285SOL    HW232297   0.227   4.814   1.751  1.3776  2.8283  0.3764
10286SOL     OW32298   6.038   6.664   5.957  0.4093  0.1183 -0.0631
10286SOL    HW132299   5.948   6.634   5.951 -0.0950  1.2140  1.4952
10286SOL    HW232300   6.038   6.749   5.914  0.6814  0.1643  0.0254
10287SOL     OW32301   7.783   4.188   7.563 -0.4028 -0.0490 -0.0991
10287SOL    HW132302   7.772   4.097   7.533 -1.5799 -0.8993  2.5669
10287SOL    HW232303   7.855   4.184   7.625 -1.8012  0.3504  1.6281
10288SOL     OW32304   4.959   7.522   5.133 -0.3731  0.2605  0.3468
10288SOL    HW132305   4.929   7.434   5.111  0.3590 -0.8132  3.2261
10288SOL    HW232306   4.885   7.579   5.108 -0.2710 -0.8505 -2.9866
10289SOL     OW32307   6.422   7.264   2.864 -0.1345  0.1585 -0.4472
10289SOL    HW132308   6.368   7.291   2.938 -0.4307 -0.7097 -0.3367
10289SOL    HW232309   6.500   7.225   2.903 -0.1320  0.0136 -0.5939
10290SOL     OW32310   1.615   3.870   9.159  0.4379 -0.1993 -0.0148
10290SOL    HW132311   1.678   3.799   9.176  2.8429  1.5847 -0.9276
10290SOL    HW232312   1.623   3.927   9.235 -0.5989 -0.2846  0.1639
10291SOL     OW32313   3.052   5.057   6.549  0.6620 -0.0289 -0.4529
10291SOL    HW132314   2.972   5.108   6.565  0.6015 -0.4366  0.6344
10291SOL    HW232315   3.121   5.123   6.539  0.0320  0.3765 -2.5640
10292SOL     OW32316   5.938   4.280   3.018 -0.5246 -0.0576 -0.2252
10292SOL    HW132317   5.993   4.355   3.042 -0.1213 -0.3942 -0.0893
10292SOL    HW232318   5.851   4.317   3.007 -0.5338  0.2651  0.8323
10293SOL     OW32319   4.866   6.801   7.609  0.5137  0.0057 -0.0607
10293SOL    HW132320   4.785   6.853   7.611  2.2357  2.9577 -1.2772
10293SOL    HW232321   4.871   6.767   7.520  0.3355 -0.7852  0.2129
10294SOL     OW32322   1.312   3.576   7.166  0.2542  0.2730  0.0422
10294SOL    HW132323   1.258   3.655   7.178  0.1302  0.0342  1.1436
10294SOL    HW232324   1.291   3.547   7.077  0.4518  1.5835 -0.4684
10295SOL     OW32325   6.931   3.668   6.949  0.4045  0.1348  0.0379
10295SOL    HW132326   6.926   3.748   6.898  2.6654  0.8613  0.8411
10295SOL    HW232327   6.982   3.692   7.027  0.1383 -1.8002  0.8753
10296SOL     OW32328   7.303   4.917   4.190 -0.0842 -0.1737  0.2402
10296SOL    HW132329   7.340   4.936   4.276  2.3755 -1.2616 -0.4971
10296SOL    HW232330   7.208   4.923   4.203  0.2559  1.3462  2.5886
10297SOL     OW32331   1.754   3.876  12.366  0.2784 -0.3867  0.1882
10297SOL    HW132332   1.779   3.952  12.313 -2.9790  0.2964 -0.5586
10297SOL    HW232333   1.769   3.801  12.308  1.4754 -0.1493  0.1614
10298SOL     OW32334   3.987   5.857   5.402  0.1279 -0.0746 -0.6361
10298SOL    HW132335   4.013   5.773   5.441  0.3501  0.9049  1.4431
10298SOL    HW232336   3.892   5.857   5.408  0.1857  0.3085  0.4984
10299SOL     OW32337   5.413   7.814   8.969  0.4156  0.1565  0.6845
10299SOL    HW132338   5.391   7.801   9.061 -0.2501 -1.6327  0.3084
10299SOL    HW232339   5.507   7.797   8.964  0.6333  1.1162  1.1496
10300SOL     OW32340   3.390   1.582   1.610 -0.4647  0.1041 -0.3935
10300SOL    HW132341   3.466   1.524   1.607 -0.0825  0.5792 -0.0624
10300SOL    HW232342   3.358   1.583   1.520 -0.8558 -1.1061 -0.2872
10301SOL     OW32343   2.723   4.313   2.952  0.0132  0.0296  0.3297
10301SOL    HW132344   2.665   4.237   2.959  1.7207 -1.3638  0.0186
10301SOL    HW232345   2.693   4.358   2.873 -0.0538 -1.2302 -0.4074
10302SOL     OW32346   6.692   6.618  11.262 -0.1161 -0.1704 -0.0593
10302SOL    HW132347   6.658   6.534  11.293  0.2324 -0.2914 -0.0027
10302SOL    HW232348   6.735   6.597  11.179 -0.1963 -0.0154 -0.1394
10303SOL     OW32349   1.847   0.396   3.526  0.3430 -0.2006 -0.6506
10303SOL    HW132350   1.907   0.463   3.559  1.3656 -0.6435 -1.5515
10303SOL    HW232351   1.877   0.315   3.566 -2.2830  0.0922  2.2754
10304SOL     OW32352   6.702   7.863  11.260 -0.2578 -0.6027  0.1574
10304SOL    HW132353   6.745   7.896  11.181  0.3356 -0.7860  0.3979
10304SOL    HW232354   6.762   7.886  11.331  0.9361 -3.5015  0.2029
10305SOL     OW32355   7.454   2.245   3.023 -0.7548  0.4476  0.3213
10305SOL    HW132356   7.510   2.168   3.025 -1.2148  0.1172  1.0345
10305SOL    HW232357   7.373   2.215   2.981 -0.8497  0.5909  0.3985
10306SOL     OW32358   1.537   0.107   4.865 -0.5864  0.0366  0.6261
10306SOL    HW132359   1.515   0.061   4.946  1.1462  0.4203  1.3736
10306SOL    HW232360   1.488   0.189   4.869  0.1021  0.4189  1.7229
10307SOL     OW32361   5.193   6.523   2.070  0.1343  0.3446 -0.4335
10307SOL    HW132362   5.228   6.570   2.146  2.7634  2.8249 -2.9084
10307SOL    HW232363   5.193   6.431   2.096  0.2975  1.1372  2.7245
10308SOL     OW32364   0.466   7.244  12.045 -0.0824  0.3773  0.0590
10308SOL    HW132365   0.520   7.279  11.974 -0.9803 -0.7276 -1.2090
10308SOL    HW232366   0.376   7.249  12.012 -0.5743  0.3949  1.3579
10309SOL     OW32367   7.904   0.690   7.845  0.3008 -0.3095 -0.4184
10309SOL    HW132368   7.913   0.748   7.769  0.9895  1.0731  0.6586
10309SOL    HW232369   7.810   0.674   7.852  0.3272 -1.5113 -2.2788
10310SOL     OW32370   6.992   6.247   6.190  0.4847 -0.3230  0.6491
10310SOL    HW132371   7.002   6.156   6.162 -1.4282 -0.3375 -0.1733
10310SOL    HW232372   6.985   6.296   6.108  1.6185  0.5989  1.0865
10311SOL     OW32373   3.892   0.822   4.830 -0.2409 -0.2417  0.4904
10311SOL    HW132374   3.817   0.834   4.772 -0.4524 -0.9229  0.6124
10311SOL    HW232375   3.940   0.905   4.825 -0.5684 -0.0874 -0.2091
10312SOL     OW32376   3.782   5.022   3.069  0.5382  0.4750 -0.7450
10312SOL    HW132377   3.812   5.109   3.094  0.9235 -0.3426  1.9536
10312SOL    HW232378   3.862   4.971   3.055  0.3175  0.5498 -2.4873
10313SOL     OW32379   1.366   3.543   3.734  0.3918 -0.3479 -0.0022
10313SOL    HW132380   1.304   3.471   3.730 -0.8204  0.6969 -0.7839
10313SOL    HW232381   1.443   3.511   3.687 -0.1333 -1.1257 -0.3553
10314SOL     OW32382   1.612   6.805   9.164 -0.0126  0.4594 -0.1960
10314SOL    HW132383   1.603   6.814   9.069  1.8429 -0.5632 -0.5078
10314SOL    HW232384   1.584   6.716   9.183 -0.8601  0.8153  0.3326
10315SOL     OW32385   3.329   2.878  11.009 -0.7884  0.3620  1.2501
10315SOL    HW132386   3.344   2.968  10.980 -1.0878  1.3053  3.6919
10315SOL    HW232387   3.244   2.882  11.053  0.2178 -0.5167  3.4161
10316SOL     OW32388   7.124   4.727   7.851 -0.3593 -0.0301 -0.0258
10316SOL    HW132389   7.220   4.725   7.846 -0.3023 -2.8164  0.4669
10316SOL    HW232390   7.097   4.637   7.830 -2.7322  0.1801  1.7153
10317SOL     OW32391   6.679   5.206   4.784  0.2235  0.7081 -0.3314
10317SOL    HW132392   6.601   5.153   4.803 -0.3223  1.1900 -1.1619
10317SOL    HW232393   6.698   5.189   4.692  1.3837  0.2506 -0.0250
10318SOL     OW32394   1.851   0.145  11.039  0.7277 -0.4965 -0.1884
10318SOL    HW132395   1.939   0.117  11.063 -0.0545 -1.5528  1.7566
10318SOL    HW232396   1.838   0.226  11.088  0.5770 -0.4327 -0.3348
10319SOL     OW32397   2.076   6.088   2.963 -0.0007  0.3932  0.3813
10319SOL    HW132398   2.053   5.997   2.983  1.4174 -0.3186 -1.0604
10319SOL    HW232399   2.010   6.116   2.899  0.9161 -0.4177 -0.9492
10320SOL     OW32400   4.195   5.301   7.353 -0.1339 -0.4152  0.2882
10320SOL    HW132401   4.262   5.232   7.351 -0.1451 -0.4153 -0.3249
10320SOL    HW232402   4.203   5.340   7.440  0.2363 -0.8350  0.4462
10321SOL     OW32403   2.657   2.959   5.892  0.0312 -0.2764 -0.8899
10321SOL    HW132404   2.724   3.026   5.908 -1.1841  1.0711 -1.2305
10321SOL    HW232405   2.597   2.968   5.965  1.8400 -3.7302  1.2696
10322SOL     OW32406   2.970   1.779   1.432 -0.7636  0.7229  0.3202
10322SOL    HW132407   2.998   1.689   1.417  1.0097  1.6015 -2.2924
10322SOL    HW232408   2.996   1.797   1.523  1.4088 -0.5544  0.0168
10323SOL     OW32409   3.450   4.147  11.726 -0.1609 -0.4442 -0.4977
10323SOL    HW132410   3.422   4.232  11.692 -2.8783 -1.5374 -1.2715
10323SOL    HW232411   3.545   4.155  11.735 -0.3706  2.8712  0.1355
10324SOL     OW32412   2.109   1.516   9.725  0.4155 -0.2972 -0.5724
10324SOL    HW132413   2.091   1.424   9.703 -2.1456  0.0272 -0.1233
10324SOL    HW232414   2.151   1.512   9.810 -0.0870 -1.0468 -0.3465
10325SOL     OW32415   0.251   7.194   2.609  0.4484 -0.2183  0.2847
10325SOL    HW132416   0.172   7.230   2.569  0.0041 -0.5175  0.8773
10325SOL    HW232417   0.274   7.119   2.553  1.2543  0.8225 -0.8236
10326SOL     OW32418   7.538   7.174   2.919  0.0615  0.6485  0.5499
10326SOL    HW132419   7.572   7.136   2.838  0.3352  1.5849  0.2097
10326SOL    HW232420   7.600   7.244   2.940 -1.1899  1.8631  0.3599
10327SOL     OW32421   3.141   2.756   7.763 -0.0308  0.0707  0.2759
10327SOL    HW132422   3.218   2.810   7.782  0.0479 -0.8377  3.0240
10327SOL    HW232423   3.172   2.693   7.698  1.5200 -0.0912  1.1015
10328SOL     OW32424   1.286   3.044  10.823 -0.4357 -0.8113  0.6840
10328SOL    HW132425   1.277   2.977  10.891 -0.4677 -0.5574  0.9338
10328SOL    HW232426   1.350   3.106  10.859  1.7753 -2.1769 -0.7387
10329SOL     OW32427   6.250   4.080   6.416  0.3946  0.2101  0.2374
10329SOL    HW132428   6.312   4.139   6.373  1.9697 -2.2782 -1.1922
10329SOL    HW232429   6.306   4.018   6.464 -1.1744 -0.1246  1.7489
10330SOL     OW32430   0.196   4.793   3.125  0.2286 -0.6545 -0.0016
10330SOL    HW132431   0.142   4.799   3.204  0.0180  1.6184 -0.2368
10330SOL    HW232432   0.235   4.880   3.117 -0.1380 -0.6633 -2.6602
10331SOL     OW32433   6.559   4.280   8.720  0.2964 -0.1066 -0.5661
10331SOL    HW132434   6.523   4.193   8.701  0.1323  0.4215 -2.9375
10331SOL    HW232435   6.483   4.337   8.728  0.3323 -0.3280  2.2852
10332SOL     OW32436   0.925   4.702   5.398  0.1086  0.3388 -0.2299
10332SOL    HW132437   1.002   4.656   5.429 -1.5680 -1.7046  1.2227
10332SOL    HW232438   0.920   4.681   5.305  1.2174  0.3980 -0.3082
10333SOL     OW32439   5.759   5.154  10.704  0.0268  0.0230 -0.4566
10333SOL    HW132440   5.748   5.246  10.676 -0.5600  0.6666  1.7073
10333SOL    HW232441   5.755   5.104  10.622 -0.1347  1.8805 -1.6509
10334SOL     OW32442   2.061   7.062   1.340 -0.2102 -0.2190 -0.1423
10334SOL    HW132443   2.115   7.042   1.264 -1.4620  0.1356 -1.1767
10334SOL    HW232444   2.048   6.978   1.383  1.2131 -0.2906  0.1942
10335SOL     OW32445   5.177   1.742   9.550 -0.1119 -0.6225  0.3075
10335SOL    HW132446   5.177   1.837   9.563 -1.4842 -0.6691  0.8328
10335SOL    HW232447   5.269   1.720   9.536  0.4177  0.5934  1.6220
10336SOL     OW32448   2.682   0.409   5.471 -0.7785 -0.4640  0.3077
10336SOL    HW132449   2.741   0.474   5.510  1.4474 -2.1516 -0.0707
10336SOL    HW232450   2.686   0.427   5.377  1.4750 -2.3075 -0.0272
10337SOL     OW32451   7.770   1.404   5.005 -0.0681  0.6281 -0.0590
10337SOL    HW132452   7.715   1.335   5.045 -0.5310  0.1045 -1.5227
10337SOL    HW232453   7.838   1.355   4.958  0.5444  1.2349  0.1884
10338SOL     OW32454   3.400   0.005   0.506 -0.4173 -0.4531 -0.4374
10338SOL    HW132455   3.330   0.031   0.446 -2.0644 -0.3436  1.4256
10338SOL    HW232456   3.439   0.087   0.534 -0.7920 -0.4005 -0.0642
10339SOL     OW32457   0.748   5.156   0.573 -0.0528  0.0245  0.0255
10339SOL    HW132458   0.843   5.165   0.580 -0.0237  1.0439 -1.1564
10339SOL    HW232459   0.729   5.181   0.482 -1.5156  0.5515  0.4492
10340SOL     OW32460   2.680   5.027   3.625  0.2494  0.2033  0.0572
10340SOL    HW132461   2.774   5.030   3.641  0.3166 -3.0409  0.8765
10340SOL    HW232462   2.642   5.079   3.696  1.3637 -0.0235  0.8503
10341SOL     OW32463   7.252   5.956  12.092 -0.3836  0.3379  0.1125
10341SOL    HW132464   7.194   5.999  12.029  1.8018  0.2983 -2.0954
10341SOL    HW232465   7.339   5.991  12.072  0.4694  0.1476  3.0376
10342SOL     OW32466   7.428   6.121  11.121  0.2132 -0.5371 -0.6445
10342SOL    HW132467   7.470   6.146  11.204 -0.5375 -0.2104 -0.3586
10342SOL    HW232468   7.484   6.051  11.087 -1.3953 -3.3756  1.9751
10343SOL     OW32469   4.943   3.064   8.662 -0.3470  0.2303 -0.3910
10343SOL    HW132470   4.920   2.992   8.721  0.4171 -0.3557 -0.7856
10343SOL    HW232471   4.926   3.030   8.574  1.6784 -0.1500 -0.6947
10344SOL     OW32472   2.176   0.458   9.544 -0.0113  0.7216 -0.1459
10344SOL    HW132473   2.244   0.392   9.558 -2.0069 -1.3809  0.2747
10344SOL    HW232474   2.216   0.540   9.573  1.7818 -0.6835  1.6628
10345SOL     OW32475   0.904   6.445  12.349  0.7761 -0.3170 -0.0811
10345SOL    HW132476   0.879   6.538  12.349  0.1722 -0.4754 -0.2921
10345SOL    HW232477   0.862   6.409  12.271 -0.4859 -1.1601  0.9658
10346SOL     OW32478   3.626   0.965   9.585  0.3490 -0.1748 -0.2539
10346SOL    HW132479   3.711   0.935   9.554  0.1361 -0.6203 -0.4212
10346SOL    HW232480   3.563   0.904   9.545  0.0234 -0.4304  0.6267
10347SOL     OW32481   1.112   0.659   4.663 -0.0694 -0.5631 -0.1670
10347SOL    HW132482   1.163   0.736   4.636  1.8239 -0.5700  2.9481
10347SOL    HW232483   1.039   0.696   4.713 -1.0281 -0.7428 -1.3685
10348SOL     OW32484   7.804   1.199   6.391  0.2440 -0.0819 -0.0862
10348SOL    HW132485   7.875   1.143   6.421  1.8523  1.3592 -1.0297
10348SOL    HW232486   7.764   1.151   6.318 -0.7254 -1.5276  1.3242
10349SOL     OW32487   2.817   3.568  12.110 -0.3633  0.3838  0.0982
10349SOL    HW132488   2.884   3.613  12.162  0.2311  1.0381 -1.1691
10349SOL    HW232489   2.810   3.481  12.149 -0.8168  1.2349  1.9922
10350SOL     OW32490   7.953   1.563   0.898  0.2508  0.1028 -0.2289
10350SOL    HW132491   7.886   1.561   0.830 -0.0538 -0.4500  0.0730
10350SOL    HW232492   8.036   1.572   0.851  0.0128  0.1148 -0.6475
10351SOL     OW32493   3.794   0.547   5.507  0.3138 -0.2740 -0.1083
10351SOL    HW132494   3.866   0.562   5.446  0.6531 -0.9446  0.1211
10351SOL    HW232495   3.827   0.480   5.567 -0.8916 -1.4147 -0.6673
10352SOL     OW32496   0.049   5.655   0.182 -0.3799  0.4202 -0.1042
10352SOL    HW132497  -0.013   5.683   0.250  0.9689 -0.5411  1.5910
10352SOL    HW232498   0.060   5.561   0.197  2.1149  0.6962  0.2263
10353SOL     OW32499   0.145   0.059   8.294  0.7620  0.9506  0.1706
10353SOL    HW132500   0.068   0.082   8.243 -0.7331  0.0087  1.9006
10353SOL    HW232501   0.166  -0.031   8.266 -0.0977  0.4098  1.2112
10354SOL     OW32502   3.504   5.599  10.421  0.9588 -0.0075  0.4747
10354SOL    HW132503   3.512   5.542  10.497  3.0099  0.1113  0.3999
10354SOL    HW232504   3.580   5.657  10.426 -1.2793  3.1464  0.8388
10355SOL     OW32505   2.113   3.069   5.436  0.7402  0.2671 -0.0927
10355SOL    HW132506   2.068   3.127   5.375  0.2658 -0.8131 -0.7972
10355SOL    HW232507   2.157   3.128   5.497  2.6856  1.4611 -2.4878
10356SOL     OW32508   2.326   4.820   8.566 -0.0427  0.5106 -0.0199
10356SOL    HW132509   2.359   4.738   8.529 -0.2786  0.4488 -0.0929
10356SOL    HW232510   2.270   4.792   8.639 -0.8769  0.5681 -0.6269
10357SOL     OW32511   7.848   6.368   3.940 -0.4093 -0.0482 -0.3910
10357SOL    HW132512   7.940   6.366   3.966 -0.0059  0.2953 -1.7531
10357SOL    HW232513   7.800   6.353   4.022  0.7911  1.4256  0.6327
10358SOL     OW32514   3.218   6.713  11.464  0.2191 -0.0430  0.2359
10358SOL    HW132515   3.135   6.708  11.512 -0.0390  1.0392 -0.0619
10358SOL    HW232516   3.226   6.805  11.439  2.0592  0.1190  1.2145
10359SOL     OW32517   0.041   1.916   5.713  0.2082  0.5378 -0.4860
10359SOL    HW132518  -0.002   1.867   5.784  0.9825 -0.8608 -0.9472
10359SOL    HW232519   0.002   1.880   5.633  0.8127  0.6595 -0.8362
10360SOL     OW32520   6.038   5.155  12.336  0.4745 -0.5121 -0.6341
10360SOL    HW132521   6.029   5.221  12.405  1.3704  0.8067 -1.7209
10360SOL    HW232522   6.132   5.145  12.325  0.3555 -0.4454 -1.8721
10361SOL     OW32523   6.878   5.947  11.060  0.3711 -0.2836 -0.5058
10361SOL    HW132524   6.957   5.938  11.113  0.7807 -0.5617 -1.1486
10361SOL    HW232525   6.861   6.041  11.057  0.1661 -0.2847  0.3570
10362SOL     OW32526   7.771   6.706  12.210 -0.0941 -0.3243  0.0946
10362SOL    HW132527   7.755   6.612  12.211 -1.4652 -0.1041  0.9162
10362SOL    HW232528   7.864   6.715  12.232 -0.0780 -1.4638  0.5279
10363SOL     OW32529   0.503   6.213   4.110  0.7215  0.4103  0.2928
10363SOL    HW132530   0.420   6.214   4.158  0.7252 -0.5610  0.3261
10363SOL    HW232531   0.477   6.230   4.019 -0.0799 -3.9062 -0.4646
10364SOL     OW32532   0.456   0.403   9.719 -0.2592 -0.0684  0.6529
10364SOL    HW132533   0.495   0.486   9.749 -2.1073  1.0046  0.2180
10364SOL    HW232534   0.529   0.356   9.679  0.7759  1.4746  0.6398
10365SOL     OW32535   4.771   1.749   2.879 -0.1412  0.8641  0.5390
10365SOL    HW132536   4.760   1.728   2.972 -0.0761  0.8490  0.5438
10365SOL    HW232537   4.858   1.789   2.875 -0.1660  0.9123  0.4926
10366SOL     OW32538   0.469   4.390   3.512 -0.0103  0.1282  0.2609
10366SOL    HW132539   0.448   4.302   3.544 -3.9043  0.1910 -1.5101
10366SOL    HW232540   0.477   4.443   3.592 -0.7133 -1.2626  1.3076
10367SOL     OW32541   5.771   5.907   7.852  0.2240  0.1107  0.2333
10367SOL    HW132542   5.857   5.938   7.882  0.4547  0.6361 -0.9138
10367SOL    HW232543   5.739   5.853   7.923  1.0534  0.7551  1.1176
10368SOL     OW32544   0.565   7.168   3.469  0.3785 -0.0746  0.1422
10368SOL    HW132545   0.620   7.093   3.445  0.4823 -0.9724  2.8182
10368SOL    HW232546   0.481   7.130   3.495 -0.1817  0.9214 -0.1300
10369SOL     OW32547   5.660   3.023   8.122 -0.1318 -0.0834  0.2118
10369SOL    HW132548   5.708   2.979   8.192  0.4229 -1.2342 -0.8393
10369SOL    HW232549   5.669   2.964   8.047 -0.1156  1.4327 -1.0270
10370SOL     OW32550   4.370   7.104   5.115  0.1707  0.4328 -0.1226
10370SOL    HW132551   4.379   7.010   5.132 -0.1340  0.1713 -1.2693
10370SOL    HW232552   4.326   7.139   5.192 -0.8355 -0.5984 -0.2107
10371SOL     OW32553   5.084   2.214  12.197 -0.3376  0.0895  0.7143
10371SOL    HW132554   5.125   2.155  12.261 -1.3479  0.8946  2.1523
10371SOL    HW232555   5.147   2.284  12.185  0.7799 -1.1143 -0.8394
10372SOL     OW32556   7.760   3.110   6.660  0.1772 -0.1476 -0.1609
10372SOL    HW132557   7.745   3.203   6.676  0.8020  0.4146 -2.4636
10372SOL    HW232558   7.749   3.100   6.565  1.4114 -2.1617 -0.1534
10373SOL     OW32559   1.069   4.174  10.276  0.4108  0.4197 -0.2349
10373SOL    HW132560   1.037   4.113  10.342  0.0192  0.9059  0.0315
10373SOL    HW232561   1.030   4.258  10.300  1.6972  0.9752 -0.0384
10374SOL     OW32562   3.736   6.168  12.280 -0.0007 -0.0263  0.3031
10374SOL    HW132563   3.675   6.240  12.298 -0.2909 -0.1120 -0.3270
10374SOL    HW232564   3.720   6.145  12.189 -0.4479 -1.4065  0.7060
10375SOL     OW32565   4.680   5.539   3.474  0.0221  0.4962  0.0210
10375SOL    HW132566   4.604   5.575   3.520 -1.1361  0.4724 -1.7711
10375SOL    HW232567   4.683   5.588   3.391  1.7715  0.2513 -0.0941
10376SOL     OW32568   5.104   1.673   2.530 -0.2326 -0.6613 -0.2598
10376SOL    HW132569   5.157   1.624   2.466  0.3059 -0.3764 -0.0424
10376SOL    HW232570   5.030   1.616   2.549 -2.0570  0.4247 -3.3741
10377SOL     OW32571   0.806   4.810  11.902  0.3457  0.2433  0.0713
10377SOL    HW132572   0.806   4.875  11.833  1.9580 -1.0841 -1.2751
10377SOL    HW232573   0.897   4.810  11.935  0.2150 -0.8440  0.4834
10378SOL     OW32574   4.586   5.205   7.123 -0.1718  0.0464 -0.4116
10378SOL    HW132575   4.610   5.196   7.215 -1.1788 -0.1669 -0.1462
10378SOL    HW232576   4.669   5.207   7.076  0.3470 -0.3612  0.4571
10379SOL     OW32577   0.173   6.718   0.630  0.0578  0.3041 -0.1316
10379SOL    HW132578   0.169   6.623   0.626 -0.6351  0.3243 -0.0852
10379SOL    HW232579   0.211   6.737   0.716  0.3528  0.0750 -0.2075
10380SOL     OW32580   0.737   4.679   0.188 -0.1618  0.1818 -0.1460
10380SOL    HW132581   0.755   4.739   0.260  0.5031  0.6157 -0.6622
10380SOL    HW232582   0.647   4.701   0.161  0.3343  1.5125 -0.8320
10381SOL     OW32583   4.758   2.369   0.305  0.0353  0.8788  0.0134
10381SOL    HW132584   4.790   2.383   0.394  1.3045 -0.0815 -0.2754
10381SOL    HW232585   4.664   2.387   0.311 -0.0506  0.0636  1.7131
10382SOL     OW32586   4.914   1.338   0.390 -0.4524  0.5013  0.3168
10382SOL    HW132587   4.995   1.295   0.418 -0.1677  1.0761  0.3827
10382SOL    HW232588   4.857   1.335   0.466 -0.4703  0.1496  0.2898
10383SOL     OW32589   2.005   1.829   1.519  0.3295 -0.3685  0.4743
10383SOL    HW132590   1.918   1.851   1.486 -0.6382 -1.3587  2.2004
10383SOL    HW232591   1.997   1.835   1.614  2.0634 -0.8283  0.6930
10384SOL     OW32592   5.365   0.368   3.716 -0.0641 -0.4266 -0.1034
10384SOL    HW132593   5.332   0.354   3.628 -2.2023 -0.7771  0.6927
10384SOL    HW232594   5.318   0.304   3.770  0.8260  0.1005  1.3638
10385SOL     OW32595   7.081   7.275   8.935  0.3648 -0.3992 -0.2436
10385SOL    HW132596   7.059   7.187   8.966 -0.9709  0.0530  0.1567
10385SOL    HW232597   7.140   7.310   9.002  1.4549 -1.2286 -0.7549
10386SOL     OW32598   2.291   0.506   1.911  0.4338  0.1750 -0.3712
10386SOL    HW132599   2.315   0.589   1.871  0.3754  1.3881  1.9253
10386SOL    HW232600   2.358   0.493   1.979  0.1357 -1.3863 -0.3457
10387SOL     OW32601   7.715   6.691   0.791 -0.2756  0.2225  1.0026
10387SOL    HW132602   7.760   6.659   0.713  1.2097  1.7225  1.1985
10387SOL    HW232603   7.725   6.621   0.856  3.0659  0.9946  1.5004
10388SOL     OW32604   4.111   1.514   7.894 -0.4196 -0.3848 -0.3850
10388SOL    HW132605   4.183   1.500   7.956 -0.4010 -1.4066 -0.6084
10388SOL    HW232606   4.033   1.518   7.949 -0.1529  1.2305 -0.1012
10389SOL     OW32607   7.361   6.386   2.563  0.6795 -0.4315  0.2144
10389SOL    HW132608   7.296   6.378   2.493 -0.2256  1.3968  0.7813
10389SOL    HW232609   7.330   6.326   2.632  0.0317 -0.1648  0.1589
10390SOL     OW32610   0.827   1.956   2.066  0.0311 -0.0656  0.3222
10390SOL    HW132611   0.892   1.998   2.121 -1.4325  1.3761  1.0357
10390SOL    HW232612   0.824   2.009   1.986  0.6368 -0.8941 -0.2626
10391SOL     OW32613   4.514   7.965   7.600 -0.3960 -0.0588  0.1866
10391SOL    HW132614   4.487   8.026   7.669  2.2957  0.4122  0.9304
10391SOL    HW232615   4.506   8.017   7.519 -2.3602 -0.2179  0.2159
10392SOL     OW32616   2.109   3.935   1.942 -0.4528  0.2699 -0.9120
10392SOL    HW132617   2.039   3.870   1.945  0.1751 -0.4317 -1.2508
10392SOL    HW232618   2.064   4.019   1.954 -1.2451 -0.2311 -0.2475
10393SOL     OW32619   4.841   6.663   2.879 -0.3247  0.1925 -0.0491
10393SOL    HW132620   4.867   6.577   2.845 -0.0262 -0.0856  0.8655
10393SOL    HW232621   4.766   6.645   2.935 -1.0720  0.7067 -0.8477
10394SOL     OW32622   0.611   7.876   7.493 -0.0249 -0.1213  0.0711
10394SOL    HW132623   0.613   7.903   7.584 -0.3685  1.4143 -0.3484
10394SOL    HW232624   0.537   7.924   7.455  0.1086 -0.7321 -1.0149
10395SOL     OW32625   7.643   5.941   0.702 -0.1461 -0.2041 -0.0139
10395SOL    HW132626   7.603   5.861   0.735 -0.5319  0.7680  2.0506
10395SOL    HW232627   7.661   5.923   0.610  1.6773 -3.4036  0.8046
10396SOL     OW32628   2.697   7.316   8.223  0.8465  0.3266  0.4855
10396SOL    HW132629   2.732   7.379   8.285 -1.3620  0.4138  1.7575
10396SOL    HW232630   2.698   7.362   8.139  0.4593  1.6082  1.1515
10397SOL     OW32631   5.223   0.814   7.260  0.2375 -0.0894 -0.2738
10397SOL    HW132632   5.180   0.740   7.218  1.2952 -0.4706 -0.7094
10397SOL    HW232633   5.274   0.855   7.191  0.6950  0.2628  0.2619
10398SOL     OW32634   2.703   7.838   0.094 -0.1062 -0.0307 -0.0505
10398SOL    HW132635   2.615   7.862   0.125  0.4571  0.9405  0.8764
10398SOL    HW232636   2.754   7.918   0.104  1.7118 -1.3927  2.6122
10399SOL     OW32637   1.124   5.039  10.535  0.5511  0.6898 -0.5008
10399SOL    HW132638   1.079   4.955  10.539  1.2244  0.3611  2.9911
10399SOL    HW232639   1.109   5.070  10.445 -0.3160 -2.7723 -1.7005
10400SOL     OW32640   3.919   6.813   4.270  0.2285  0.3181 -0.1593
10400SOL    HW132641   3.912   6.813   4.174  0.2538  1.1297 -0.1682
10400SOL    HW232642   3.839   6.770   4.300  0.4459 -0.3775 -0.5562
10401SOL     OW32643   1.192   7.486   6.779 -0.4665 -0.3772  0.0189
10401SOL    HW132644   1.220   7.399   6.807 -2.4886 -0.3957  2.3572
10401SOL    HW232645   1.098   7.476   6.760 -0.7124  1.2730  0.2347
10402SOL     OW32646   4.608   0.338   7.544 -0.0123  0.4267  0.0432
10402SOL    HW132647   4.523   0.380   7.527  0.5213  1.2670 -0.6383
10402SOL    HW232648   4.609   0.262   7.485  0.5802  1.6431 -1.6080
10403SOL     OW32649   2.012   2.048   3.939 -0.4688  0.3873  0.3849
10403SOL    HW132650   1.937   2.002   3.975 -0.8028 -0.1409 -0.9023
10403SOL    HW232651   2.047   1.988   3.872 -0.6396  1.7814 -1.0174
10404SOL     OW32652   5.826   0.025  10.401 -0.5912 -0.0923 -0.0732
10404SOL    HW132653   5.911  -0.014  10.423 -0.2597  0.9126  0.4977
10404SOL    HW232654   5.849   0.101  10.348 -1.1712 -0.0743 -0.3000
10405SOL     OW32655   5.799   5.811   3.585 -0.5798 -0.3081 -0.6569
10405SOL    HW132656   5.871   5.789   3.644 -1.3529  0.1679  0.4790
10405SOL    HW232657   5.779   5.728   3.540 -1.4434 -1.2674  1.3649
10406SOL     OW32658   5.065   1.952  11.466 -0.5279 -0.4939  0.1543
10406SOL    HW132659   4.987   1.911  11.505 -0.4188  0.0024  0.9087
10406SOL    HW232660   5.034   2.038  11.436 -0.0342  0.1573  1.4449
10407SOL     OW32661   5.433   0.771   6.969 -0.8828  0.3395 -0.1155
10407SOL    HW132662   5.480   0.813   7.041 -2.9845 -0.6294  1.9558
10407SOL    HW232663   5.489   0.698   6.943  0.0094  0.8167  0.4086
10408SOL     OW32664   0.764   6.136   3.754  0.1872 -0.4853  0.1410
10408SOL    HW132665   0.723   6.079   3.819 -0.0502  0.2515  0.6556
10408SOL    HW232666   0.857   6.110   3.756 -0.2175 -2.1405 -1.0208
10409SOL     OW32667   3.892   3.043   0.849 -0.0031 -0.1788 -0.2358
10409SOL    HW132668   3.905   2.951   0.826 -1.7676 -0.3053 -0.9284
10409SOL    HW232669   3.831   3.075   0.782 -2.5565  0.3982  2.1884
10410SOL     OW32670   6.288   2.644   9.274 -0.4555 -0.7207 -0.6716
10410SOL    HW132671   6.316   2.711   9.211 -1.7072  0.0422 -0.4531
10410SOL    HW232672   6.295   2.562   9.227 -1.2389 -0.1723 -1.7743
10411SOL     OW32673   4.839   7.067   9.681  0.0028  0.2819  0.1803
10411SOL    HW132674   4.864   7.067   9.773  1.5459 -0.1128 -0.2005
10411SOL    HW232675   4.747   7.040   9.681 -0.0108  0.2492  1.5928
10412SOL     OW32676   2.705   0.121   4.271 -0.4396  0.1121 -0.1656
10412SOL    HW132677   2.737   0.129   4.361 -1.7728  0.1634  0.3140
10412SOL    HW232678   2.721   0.207   4.232  1.0505 -0.1912 -0.3188
10413SOL     OW32679   1.877   1.931   1.093  0.3524  0.6992 -0.5870
10413SOL    HW132680   1.934   1.959   1.165 -0.7615  1.1001  0.1734
10413SOL    HW232681   1.904   1.984   1.018  0.6068  1.2881 -0.0895
10414SOL     OW32682   2.329   1.333  11.776  0.2232  0.4230 -0.8957
10414SOL    HW132683   2.336   1.257  11.834  3.6724  0.5210 -0.9612
10414SOL    HW232684   2.274   1.395  11.823 -0.0701 -0.9063  0.5854
10415SOL     OW32685   3.729   7.497  10.611  0.6691 -0.4260  0.1741
10415SOL    HW132686   3.661   7.436  10.582  1.2896 -1.3603  0.6555
10415SOL    HW232687   3.775   7.521  10.530  1.8744 -2.3925  0.2228
10416SOL     OW32688   6.898   3.552   5.474  0.0368  0.2190  0.7805
10416SOL    HW132689   6.858   3.636   5.454 -0.3039 -0.3702 -1.1469
10416SOL    HW232690   6.992   3.567   5.463 -0.0550  0.2397  0.0192
10417SOL     OW32691   2.575   5.992   3.591  0.5067  0.1377  0.3907
10417SOL    HW132692   2.545   6.064   3.537  1.3110 -0.8932 -1.5148
10417SOL    HW232693   2.581   6.029   3.679 -0.7183  1.8956 -0.2131
10418SOL     OW32694   0.587   5.113   8.550 -0.4129 -0.2949  0.5713
10418SOL    HW132695   0.526   5.040   8.561  0.0562 -0.9408 -0.8923
10418SOL    HW232696   0.532   5.188   8.531 -0.7574 -1.1860 -2.3625
10419SOL     OW32697   2.723   6.899  11.928  0.3037  0.2177 -0.0308
10419SOL    HW132698   2.634   6.934  11.926 -0.3547 -1.2001  1.7580
10419SOL    HW232699   2.775   6.968  11.968 -0.3017  0.4787  0.3210
10420SOL     OW32700   6.819   3.270   7.743 -0.3437  0.0847 -0.4398
10420SOL    HW132701   6.745   3.220   7.709  1.4940 -2.2731 -1.3061
10420SOL    HW232702   6.843   3.225   7.824  0.2162  0.7007 -0.2621
10421SOL     OW32703   1.588   2.411   6.262 -0.4026 -0.2047 -0.0373
10421SOL    HW132704   1.564   2.469   6.190 -0.4457  0.7011  0.6817
10421SOL    HW232705   1.570   2.463   6.341 -0.6976 -1.2939  0.6376
10422SOL     OW32706   0.961   3.187   6.773 -0.0629 -0.0932  0.3519
10422SOL    HW132707   1.014   3.249   6.722 -0.6005  0.5303  0.5472
10422SOL    HW232708   0.995   3.194   6.862 -0.0845 -0.1275  0.3630
10423SOL     OW32709   2.653   1.551  11.160  0.1455  0.1101 -0.0862
10423SOL    HW132710   2.587   1.616  11.186  2.0582  1.2343  2.2656
10423SOL    HW232711   2.642   1.479  11.222  0.4040 -0.2095 -0.4084
10424SOL     OW32712   2.501   5.748   9.541  0.0949 -0.5163  0.0118
10424SOL    HW132713   2.448   5.803   9.600 -1.0908  0.5702 -1.9610
10424SOL    HW232714   2.583   5.795   9.531 -0.1137 -0.1588 -0.0315
10425SOL     OW32715   5.664   7.450   2.968  0.1126 -0.1886  0.0403
10425SOL    HW132716   5.577   7.423   2.996 -0.2159 -0.7907 -1.4931
10425SOL    HW232717   5.683   7.396   2.892  1.8313 -0.0575  0.3361
10426SOL     OW32718   4.715   1.606   4.611 -0.2597  0.3476  0.7963
10426SOL    HW132719   4.807   1.630   4.619 -0.6353  1.3851  2.7740
10426SOL    HW232720   4.704   1.532   4.672 -0.6198 -0.2257  0.0649
10427SOL     OW32721   1.892   2.859   2.404  0.9499  0.1489 -0.3150
10427SOL    HW132722   1.839   2.931   2.440  2.7839  1.1545  0.4872
10427SOL    HW232723   1.889   2.791   2.471  3.5382  1.6285  1.4882
10428SOL     OW32724   4.877   3.579   8.329 -0.1927 -0.0221 -0.4209
10428SOL    HW132725   4.971   3.559   8.330  0.2896  2.0513  0.0886
10428SOL    HW232726   4.848   3.549   8.243  1.2183  0.3605 -1.0753
10429SOL     OW32727   6.810   7.851   4.239  0.2242 -0.4973 -0.0916
10429SOL    HW132728   6.724   7.833   4.200 -0.7792  2.9957  0.1822
10429SOL    HW232729   6.801   7.821   4.329 -1.0344  0.4617  0.1411
10430SOL     OW32730   4.327   2.488   0.146  0.0483  0.0154 -0.4242
10430SOL    HW132731   4.376   2.423   0.096  0.2517 -0.5980  0.5399
10430SOL    HW232732   4.273   2.533   0.081  1.2202  0.0951 -1.3648
10431SOL     OW32733   3.618   6.473  10.260  0.2450  0.2243 -0.2940
10431SOL    HW132734   3.548   6.518  10.212 -2.1952 -1.8894  1.0042
10431SOL    HW232735   3.661   6.418  10.195  0.9825  1.7780 -1.1763
10432SOL     OW32736   5.453   4.061   7.953 -0.3883 -0.6086  0.3514
10432SOL    HW132737   5.454   4.127   7.884  0.3940 -0.9938 -0.0256
10432SOL    HW232738   5.367   4.020   7.948  0.1731 -1.6567 -1.4053
10433SOL     OW32739   1.236   1.018   4.393  0.7427 -0.2940  0.0547
10433SOL    HW132740   1.260   1.086   4.457  0.2421 -0.9651  0.9904
10433SOL    HW232741   1.146   1.041   4.367 -0.0659 -1.4909  1.6428
10434SOL     OW32742   7.283   1.027   7.832 -0.6765  0.1376 -0.1507
10434SOL    HW132743   7.332   0.958   7.787  0.0300 -0.7392  1.8657
10434SOL    HW232744   7.346   1.098   7.844 -1.2600  0.9767 -1.7528
10435SOL     OW32745   4.106   5.252   9.870  0.3575  0.0226  0.0606
10435SOL    HW132746   4.174   5.251   9.803 -0.3363  2.1179 -0.7459
10435SOL    HW232747   4.035   5.199   9.834  0.1238  0.8668 -0.7586
10436SOL     OW32748   2.529   2.876  11.369 -0.2770 -0.0033 -0.1111
10436SOL    HW132749   2.523   2.897  11.276  0.8690  2.7692  0.3474
10436SOL    HW232750   2.621   2.854  11.384 -0.7997 -2.3648  0.0948
10437SOL     OW32751   4.138   7.798   9.484  0.1181 -0.1845 -0.5579
10437SOL    HW132752   4.153   7.774   9.392  0.5133 -0.6744 -0.3722
10437SOL    HW232753   4.088   7.726   9.520  0.8618 -0.5025 -0.1283
10438SOL     OW32754   5.387   3.558   9.116 -0.1263 -0.7702  0.0750
10438SOL    HW132755   5.360   3.549   9.024 -1.2693  0.5558  0.2449
10438SOL    HW232756   5.344   3.485   9.161  0.1309 -1.2006 -0.3589
10439SOL     OW32757   6.019   0.439   4.906 -0.5255 -0.2741 -0.0519
10439SOL    HW132758   6.041   0.441   4.999  0.3409  0.8874 -0.2603
10439SOL    HW232759   5.953   0.508   4.897 -0.3777 -0.1720 -0.3458
10440SOL     OW32760   0.023   2.743   8.634  0.1826  0.0928 -0.5328
10440SOL    HW132761   0.009   2.837   8.625  0.7370  0.1381 -1.0062
10440SOL    HW232762  -0.015   2.706   8.554 -1.2333 -0.2354  0.2443
10441SOL     OW32763   3.468   1.471  11.165  0.5832 -0.1834 -0.3240
10441SOL    HW132764   3.545   1.430  11.205  2.4116  2.3813 -0.9833
10441SOL    HW232765   3.455   1.423  11.083  3.4110  1.1562 -1.6747
10442SOL     OW32766   4.228   4.451   2.754  0.1447 -0.4790  0.4851
10442SOL    HW132767   4.181   4.369   2.760 -0.7357 -0.1783 -1.6144
10442SOL    HW232768   4.166   4.513   2.715  1.3277  0.7214  0.3949
10443SOL     OW32769   4.024   5.940   9.731 -0.3502  0.2699 -0.3916
10443SOL    HW132770   4.037   5.976   9.643 -2.5215  1.1537 -0.4039
10443SOL    HW232771   4.095   5.977   9.783  1.2184 -0.5795 -1.8012
10444SOL     OW32772   4.250   6.527   8.751  0.2342  0.3288 -0.1293
10444SOL    HW132773   4.345   6.530   8.760  0.2106  0.7355 -0.0047
10444SOL    HW232774   4.230   6.434   8.742  0.4654  0.0327  1.9030
10445SOL     OW32775   4.608   2.361  11.567  0.4672  0.3543  0.6513
10445SOL    HW132776   4.685   2.419  11.570  1.6799 -1.0723 -0.9088
10445SOL    HW232777   4.586   2.357  11.474 -1.7117  0.9446  1.0995
10446SOL     OW32778   6.461   2.672  11.279 -0.0918  0.2594  0.2599
10446SOL    HW132779   6.413   2.605  11.328 -1.6006 -0.1281 -1.6295
10446SOL    HW232780   6.398   2.744  11.269  0.5349  0.7539 -0.2275
10447SOL     OW32781   0.675   5.172   7.447 -0.2265  0.1053 -0.0214
10447SOL    HW132782   0.698   5.251   7.398 -3.1204  0.4318 -1.0753
10447SOL    HW232783   0.634   5.115   7.381 -0.1562 -1.3572  1.1601
10448SOL     OW32784   7.667   5.289   7.513  0.0692 -0.0843  0.1517
10448SOL    HW132785   7.609   5.329   7.578  0.5490  0.0142  0.5272
10448SOL    HW232786   7.755   5.313   7.542  0.2994 -0.2776 -0.3815
10449SOL     OW32787   7.722   3.521   9.144 -0.4423 -0.1255  0.7137
10449SOL    HW132788   7.801   3.476   9.172 -0.6750  0.2572  2.0560
10449SOL    HW232789   7.652   3.458   9.159 -0.4930 -0.1504  0.3695
10450SOL     OW32790   1.944   2.280   1.257 -0.3796  0.1944 -0.0439
10450SOL    HW132791   1.854   2.252   1.240 -1.0856  2.8417 -1.2692
10450SOL    HW232792   1.935   2.367   1.295  1.6583 -0.6301  2.5935
10451SOL     OW32793   1.031   4.321   0.204  0.3221 -0.4018  0.1707
10451SOL    HW132794   0.976   4.338   0.281  0.0416  0.2304 -0.1586
10451SOL    HW232795   1.079   4.241   0.225  0.8688  0.2124  1.3559
10452SOL     OW32796   5.249   6.871  11.353  0.5590 -0.8304  0.0191
10452SOL    HW132797   5.254   6.966  11.366  2.3968 -0.6661 -1.4731
10452SOL    HW232798   5.271   6.858  11.261 -0.0682 -2.6936  0.1004
10453SOL     OW32799   4.663   1.763   1.153 -0.3442  0.0705  0.8288
10453SOL    HW132800   4.610   1.692   1.116  0.6141 -0.3729  0.2555
10453SOL    HW232801   4.753   1.739   1.130 -0.1306  3.0938 -2.3643
10454SOL     OW32802   5.108   7.158   8.614 -0.2045  0.1168 -0.1806
10454SOL    HW132803   5.106   7.179   8.708 -1.4875 -3.5464  0.7581
10454SOL    HW232804   5.091   7.064   8.610  3.6412 -0.7147 -3.8787
10455SOL     OW32805   5.089   2.831   6.962 -0.0365  0.2155  0.1101
10455SOL    HW132806   5.120   2.742   6.945  0.1531  0.6415 -2.0959
10455SOL    HW232807   5.122   2.883   6.888 -4.5606  1.0323 -1.6771
10456SOL     OW32808   5.366   6.094  10.065 -0.2779 -0.0272 -0.3812
10456SOL    HW132809   5.443   6.134  10.025  0.2041  0.8062  1.3013
10456SOL    HW232810   5.389   6.002  10.075  0.4828  0.2079  0.0644
10457SOL     OW32811   6.192   1.822   9.606  0.2805 -0.7391 -0.0230
10457SOL    HW132812   6.183   1.850   9.515 -0.0796 -0.2841  0.1467
10457SOL    HW232813   6.171   1.729   9.605  0.8224 -0.8624 -0.4901
10458SOL     OW32814   2.294   4.807   8.221 -0.3247 -0.1819 -0.0352
10458SOL    HW132815   2.223   4.825   8.283  1.0997 -2.0984  2.2691
10458SOL    HW232816   2.374   4.832   8.267  0.6835  0.0749 -1.8294
10459SOL     OW32817   1.294   6.627   1.992  0.2171 -0.0896  0.2908
10459SOL    HW132818   1.244   6.666   2.064 -0.5332  0.5458 -0.5460
10459SOL    HW232819   1.354   6.696   1.964  0.8207 -0.4877  0.5915
10460SOL     OW32820   3.194   1.753   3.793  0.2875 -0.3208  0.1189
10460SOL    HW132821   3.269   1.813   3.786 -1.4302  1.8430 -0.6750
10460SOL    HW232822   3.154   1.775   3.877  0.4897 -1.4360  0.5146
10461SOL     OW32823   6.435   6.618   2.084  0.1868 -0.0137  0.2066
10461SOL    HW132824   6.426   6.615   2.179 -0.3434  0.1168  0.1643
10461SOL    HW232825   6.353   6.656   2.054  0.7102  0.7923 -0.2436
10462SOL     OW32826   2.220   6.091   9.948  0.2709  0.3302 -0.1102
10462SOL    HW132827   2.274   6.054   9.877  1.0994  1.4707 -0.0958
10462SOL    HW232828   2.212   6.020  10.011 -1.4723 -1.1315 -1.8305
10463SOL     OW32829   6.539   7.293   5.215  0.1776 -1.0535  0.5579
10463SOL    HW132830   6.490   7.337   5.284  0.9556  0.0951  0.4185
10463SOL    HW232831   6.472   7.257   5.157 -0.4868 -0.7617  1.1283
10464SOL     OW32832   0.761   0.925  12.166  0.3264  0.4216 -0.0168
10464SOL    HW132833   0.764   0.922  12.070  0.2401 -1.3271  0.0049
10464SOL    HW232834   0.836   0.979  12.191  1.1409 -0.2163 -1.0238
10465SOL     OW32835   2.763   7.746   5.049  0.0816  0.2885  0.3460
10465SOL    HW132836   2.814   7.810   5.099  2.0895  2.9276 -4.4419
10465SOL    HW232837   2.672   7.775   5.059  0.7847  2.9615 -0.3155
10466SOL     OW32838   7.981   6.017  11.667  0.2095  0.2034  0.4746
10466SOL    HW132839   7.974   6.098  11.716  0.3791 -0.5513  1.8013
10466SOL    HW232840   7.971   5.948  11.733  2.1625 -0.8682 -0.2682
10467SOL     OW32841   7.559   7.235   1.673 -0.1059  0.5483 -0.1644
10467SOL    HW132842   7.612   7.266   1.600 -0.3082 -0.9071 -0.9758
10467SOL    HW232843   7.589   7.285   1.748  0.2766  1.9158 -1.1924
10468SOL     OW32844   6.987   1.045   8.988 -0.2782 -0.1147  0.2166
10468SOL    HW132845   7.026   1.084   8.910 -0.3122 -1.9444 -0.7663
10468SOL    HW232846   6.946   1.118   9.033  1.4268  1.3255 -0.4271
10469SOL     OW32847   4.543   2.088   4.712  0.2393 -1.2537  0.2205
10469SOL    HW132848   4.589   2.012   4.747  0.0682 -0.6720  1.7720
10469SOL    HW232849   4.471   2.104   4.772  0.3946  0.2596  0.0685
10470SOL     OW32850   0.103   7.033   4.370 -0.2262  0.4617 -0.3220
10470SOL    HW132851   0.180   7.090   4.369  1.0662 -1.2278 -0.1051
10470SOL    HW232852   0.084   7.016   4.278 -0.2943  0.7859 -0.3709
10471SOL     OW32853   4.866   2.659   3.359 -0.7353  0.7213  0.0271
10471SOL    HW132854   4.929   2.608   3.308  0.1536  1.3357  0.4787
10471SOL    HW232855   4.904   2.664   3.447 -1.3121  1.2830  0.2567
10472SOL     OW32856   7.844   2.752  10.221  0.2362 -0.2666 -0.0110
10472SOL    HW132857   7.812   2.668  10.189 -0.4786 -0.0194  0.0374
10472SOL    HW232858   7.909   2.780  10.156 -0.0958 -0.4857 -0.4366
10473SOL     OW32859   5.631   3.941  12.371  0.1573  0.2954  0.0896
10473SOL    HW132860   5.719   3.976  12.383  0.3508  0.3110 -1.2795
10473SOL    HW232861   5.626   3.917  12.279 -0.8114 -1.0136  0.4429
10474SOL     OW32862   1.654   0.029   6.781  0.3110 -0.5376 -0.2541
10474SOL    HW132863   1.743   0.041   6.748  0.5879  1.1272  0.9473
10474SOL    HW232864   1.637   0.108   6.833 -2.4689  0.0437 -1.7954
10475SOL     OW32865   5.317   4.221  12.220 -0.0679 -0.4839 -0.2896
10475SOL    HW132866   5.394   4.263  12.182  0.2101  1.6000  2.2891
10475SOL    HW232867   5.250   4.227  12.152  0.5954  2.3263 -0.8122
10476SOL     OW32868   6.392   4.759   3.727 -0.2544  0.7834 -0.2865
10476SOL    HW132869   6.370   4.752   3.820 -0.4196  0.3056 -0.3613
10476SOL    HW232870   6.348   4.684   3.686 -1.1322  1.6108 -0.9170
10477SOL     OW32871   6.953   4.418   0.776  0.2377 -0.1077 -0.1902
10477SOL    HW132872   6.886   4.433   0.709  0.9732  1.6021 -0.5668
10477SOL    HW232873   7.036   4.425   0.729  0.7368  0.1237  0.7161
10478SOL     OW32874   7.588   0.026   0.419 -0.3110 -0.1112 -0.1464
10478SOL    HW132875   7.592  -0.044   0.485 -0.5994 -0.1659 -0.1857
10478SOL    HW232876   7.498   0.023   0.387 -1.0319  1.7949  1.5012
10479SOL     OW32877   7.839   0.052   3.703 -0.5556  0.5387  0.0207
10479SOL    HW132878   7.867   0.012   3.621  2.3708  2.4579 -0.0705
10479SOL    HW232879   7.910   0.035   3.764 -0.2090  3.5137  0.5945
10480SOL     OW32880   3.939   5.920   6.435 -0.6018  0.0089  0.0028
10480SOL    HW132881   3.996   5.848   6.408  0.7281  0.9925  0.1074
10480SOL    HW232882   3.909   5.896   6.523 -1.6815 -1.2733 -0.6826
10481SOL     OW32883   5.343   3.098   4.838 -0.0268 -0.2065  0.7082
10481SOL    HW132884   5.360   3.034   4.907 -1.3334  0.1348  1.3762
10481SOL    HW232885   5.248   3.099   4.830  0.0614  0.5205 -0.3876
10482SOL     OW32886   0.783   3.854   3.404  0.2990  0.2747  0.7018
10482SOL    HW132887   0.850   3.890   3.345  1.3346 -0.4205  1.4227
10482SOL    HW232888   0.808   3.886   3.490  0.4257 -0.9926  1.1569
10483SOL     OW32889   1.520   2.281   4.357  0.3624  0.3901 -0.4159
10483SOL    HW132890   1.582   2.210   4.348  0.9871  0.8173  0.3600
10483SOL    HW232891   1.574   2.360   4.365 -0.3145  0.9788 -1.3837
10484SOL     OW32892   5.951   1.998   3.293  0.2769  0.2271  0.4039
10484SOL    HW132893   5.930   2.091   3.304  0.6062  0.4701 -0.8814
10484SOL    HW232894   5.896   1.954   3.358 -0.0142  1.2969  0.9185
10485SOL     OW32895   3.284   1.313   3.272 -0.9768  0.3211 -0.1566
10485SOL    HW132896   3.328   1.375   3.331 -0.5100  0.9534 -1.1415
10485SOL    HW232897   3.277   1.360   3.189  1.7636 -1.7834 -1.7366
10486SOL     OW32898   5.883   5.227   4.630 -0.3923 -0.6284 -0.6362
10486SOL    HW132899   5.866   5.297   4.567 -0.3288 -0.6451 -0.6719
10486SOL    HW232900   5.902   5.272   4.712  0.4419 -0.5801 -0.8470
10487SOL     OW32901   6.715   6.487   5.610 -0.0495  0.3704  0.0740
10487SOL    HW132902   6.701   6.399   5.576  1.7385 -0.6248  1.7484
10487SOL    HW232903   6.732   6.540   5.532  1.8844 -1.3951 -0.8063
10488SOL     OW32904   7.538   7.571   0.027  0.4310 -0.0550  0.4081
10488SOL    HW132905   7.617   7.567  -0.026  0.1549  0.6244 -0.0579
10488SOL    HW232906   7.566   7.609   0.110  1.1441 -2.3542  1.3008
10489SOL     OW32907   0.764   1.293   9.849 -0.0108 -0.0044 -0.8537
10489SOL    HW132908   0.850   1.299   9.808 -0.1882 -0.1581 -1.2515
10489SOL    HW232909   0.778   1.326   9.938  0.7154 -1.1103 -0.5384
10490SOL     OW32910   3.419   3.409   7.824  0.0261  0.2663  0.7681
10490SOL    HW132911   3.351   3.462   7.784 -1.6066 -2.2715 -0.0858
10490SOL    HW232912   3.385   3.386   7.910  0.4574  0.1189  0.9050
10491SOL     OW32913   4.218   7.034   0.399  0.5829  0.3150 -0.1630
10491SOL    HW132914   4.124   7.032   0.419  0.3357 -1.8333 -1.2209
10491SOL    HW232915   4.235   7.124   0.372 -1.3521  0.5767 -0.6857
10492SOL     OW32916   4.936   1.980   4.693  0.2848  0.7406  0.4451
10492SOL    HW132917   4.990   1.957   4.618  1.3239  0.8671  1.1248
10492SOL    HW232918   4.927   2.075   4.688 -1.1579  0.5918 -0.4833
10493SOL     OW32919   7.502   7.749   6.280 -0.2550 -0.2675  0.0463
10493SOL    HW132920   7.508   7.836   6.240 -0.7409 -0.3248 -0.1579
10493SOL    HW232921   7.514   7.688   6.207 -0.0684 -0.3746  0.1646
10494SOL     OW32922   4.066   0.570   4.830 -0.0903 -0.2454 -0.1189
10494SOL    HW132923   4.036   0.626   4.758  1.4265 -0.6022 -1.0919
10494SOL    HW232924   4.141   0.523   4.793  0.9704 -0.1639  1.8108
10495SOL     OW32925   0.623   7.091   4.341  0.1161  0.1659  0.1142
10495SOL    HW132926   0.672   7.012   4.316 -1.1238 -0.5874 -0.0691
10495SOL    HW232927   0.604   7.079   4.434  0.0364  0.3039  0.1165
10496SOL     OW32928   7.538   4.321   8.678 -0.2646  0.5527  0.2446
10496SOL    HW132929   7.469   4.312   8.744 -0.6822 -0.3355 -0.2845
10496SOL    HW232930   7.499   4.375   8.610  0.0884  1.2844  0.6192
10497SOL     OW32931   3.609   1.177  11.856 -0.1927  0.6491 -0.3611
10497SOL    HW132932   3.550   1.124  11.909  0.0714  0.6676 -0.0495
10497SOL    HW232933   3.569   1.264  11.856  0.2617  0.8638  0.5262
10498SOL     OW32934   2.852   7.604   2.491 -0.0504 -0.1844 -0.7870
10498SOL    HW132935   2.918   7.663   2.526 -1.0309 -0.1629  1.1712
10498SOL    HW232936   2.790   7.661   2.445  0.2284  0.0088 -0.9294
10499SOL     OW32937   4.560   5.560   0.829  0.6024  0.2316  0.5172
10499SOL    HW132938   4.511   5.641   0.847  1.1885  0.4339  1.3137
10499SOL    HW232939   4.497   5.490   0.843  0.3615  0.5135  0.8766
10500SOL     OW32940   4.398   4.668   2.468 -0.1189 -0.1599 -0.3692
10500SOL    HW132941   4.363   4.582   2.445 -0.9050  0.0033  0.1418
10500SOL    HW232942   4.485   4.650   2.504 -0.1261 -0.7030 -0.6109
10501SOL     OW32943   7.575   6.931  10.144  0.2235 -0.1173 -0.0167
10501SOL    HW132944   7.622   6.942  10.061 -1.0358  1.7924 -0.5238
10501SOL    HW232945   7.641   6.950  10.211  1.1951 -1.4628 -0.5339
10502SOL     OW32946   1.537   4.104  10.978 -0.2053 -0.2263 -0.5413
10502SOL    HW132947   1.586   4.024  10.955 -1.8928 -1.5183  0.1283
10502SOL    HW232948   1.599   4.157  11.028  2.1852  0.6803 -4.0841
10503SOL     OW32949   1.036   4.897   7.506  0.5331 -0.4857 -0.0766
10503SOL    HW132950   1.022   4.840   7.431 -2.4492 -0.1105  0.1011
10503SOL    HW232951   0.988   4.977   7.484  0.8443  0.2025  1.6171
10504SOL     OW32952   3.274   6.750   6.739 -0.5280 -0.0998 -0.8298
10504SOL    HW132953   3.237   6.757   6.828  2.1501 -1.4964  0.5140
10504SOL    HW232954   3.240   6.667   6.706 -0.7195 -0.0728 -0.7061
10505SOL     OW32955   3.261   6.270  11.793 -0.1412 -0.0576  0.0189
10505SOL    HW132956   3.240   6.353  11.835 -0.0081 -1.0281  2.1119
10505SOL    HW232957   3.356   6.263  11.798  0.0386  0.4237 -1.7776
10506SOL     OW32958   7.126   2.182   9.029 -0.5808  0.1185 -0.3770
10506SOL    HW132959   7.044   2.134   9.038 -0.6215  0.5224  1.9365
10506SOL    HW232960   7.192   2.113   9.016 -0.4916 -0.9113  3.8976
10507SOL     OW32961   0.597   2.526   1.551  0.3601 -0.2253 -0.2221
10507SOL    HW132962   0.563   2.438   1.541  1.0121 -0.5382  0.2690
10507SOL    HW232963   0.687   2.521   1.518 -0.4607  0.9353 -3.0219
10508SOL     OW32964   1.146   7.777  12.145 -0.2889  0.3428  0.4013
10508SOL    HW132965   1.159   7.853  12.088 -0.9350  0.9884  1.1011
10508SOL    HW232966   1.159   7.810  12.234 -1.7996 -0.0579  0.8035
10509SOL     OW32967   4.270   1.553   4.429 -0.1276 -0.1411  0.4798
10509SOL    HW132968   4.271   1.490   4.357  0.7838  1.0072 -0.5523
10509SOL    HW232969   4.280   1.500   4.508  0.8998 -1.2758 -0.3813
10510SOL     OW32970   1.156   1.534   0.970 -0.5598  0.5838 -0.0460
10510SOL    HW132971   1.230   1.523   0.910 -1.0604 -0.8765 -0.4510
10510SOL    HW232972   1.108   1.451   0.963 -0.8580  0.5326  2.0747
10511SOL     OW32973   7.213   7.918  10.054  0.1095  0.1549  0.0099
10511SOL    HW132974   7.287   7.863  10.031 -0.9804 -0.8689 -1.2367
10511SOL    HW232975   7.186   7.888  10.140 -0.8804 -1.8129 -0.9164
10512SOL     OW32976   3.117   2.987   1.099  0.1025  0.1134  0.3913
10512SOL    HW132977   3.074   3.049   1.157 -0.1245  0.6774 -0.3548
10512SOL    HW232978   3.099   3.021   1.011  2.1279  0.4079  0.0459
10513SOL     OW32979   2.669   3.382   8.540  0.3866  0.2670  0.9394
10513SOL    HW132980   2.670   3.376   8.445  0.5831 -0.4448  0.9763
10513SOL    HW232981   2.756   3.352   8.567  0.6342  1.2666  1.3085
10514SOL     OW32982   1.496   5.173   4.121  0.1292  0.0584 -0.2125
10514SOL    HW132983   1.455   5.260   4.132 -1.7048 -0.9715  2.1613
10514SOL    HW232984   1.432   5.123   4.070  0.2457 -0.4386  0.1225
10515SOL     OW32985   6.606   3.112   5.280 -0.2810 -0.2715  0.0275
10515SOL    HW132986   6.634   3.203   5.291 -0.1438 -0.4208  0.9923
10515SOL    HW232987   6.627   3.070   5.363  2.1443 -1.8806 -1.2787
10516SOL     OW32988   0.826   4.018   4.985 -0.4112  0.5143 -0.3009
10516SOL    HW132989   0.856   4.076   4.915  2.5707  0.1487  0.5260
10516SOL    HW232990   0.800   4.077   5.055 -1.3703  0.8521 -0.9203
10517SOL     OW32991   6.088   2.335   4.898  0.0047  0.5064  0.5151
10517SOL    HW132992   6.137   2.391   4.839 -0.3800  0.5297  0.2104
10517SOL    HW232993   6.108   2.246   4.868 -0.5360  0.5308  0.0608
10518SOL     OW32994   3.716   4.441  12.418 -0.0487 -0.3027  0.1987
10518SOL    HW132995   3.656   4.368  12.433 -2.8792  1.6344 -0.8991
10518SOL    HW232996   3.690   4.507  12.482  0.9529  0.5873 -0.2753
10519SOL     OW32997   7.046   5.327   6.101 -0.2048 -0.0989 -0.0274
10519SOL    HW132998   7.081   5.372   6.024  0.1086  1.7673  1.1310
10519SOL    HW232999   7.104   5.353   6.172 -0.4205 -1.8678  0.8439
10520SOL     OW33000   6.858   2.232   0.780  0.8054  0.2180  0.7638
10520SOL    HW133001   6.920   2.209   0.850  0.9220 -0.6256  0.3929
10520SOL    HW233002   6.804   2.154   0.770  1.1155  0.1434 -0.4323
10521SOL     OW33003   5.537   4.454   7.701  0.1788 -0.3207 -0.0997
10521SOL    HW133004   5.452   4.455   7.745  0.3153 -2.7469  0.3649
10521SOL    HW233005   5.520   4.494   7.616 -0.8811  1.2884  0.8073
10522SOL     OW33006   6.485   7.355  11.652  0.3262 -0.2181  0.1156
10522SOL    HW133007   6.428   7.338  11.727 -0.6810  2.5928  0.1071
10522SOL    HW233008   6.485   7.273  11.603 -2.0966 -0.9496  1.1794
10523SOL     OW33009   7.620   5.752  10.204 -0.4177  0.1511 -0.5810
10523SOL    HW133010   7.535   5.726  10.171  0.2635 -1.2304 -1.3453
10523SOL    HW233011   7.623   5.716  10.293 -0.4450 -0.2230 -0.7308
10524SOL     OW33012   3.407   0.558   1.547 -0.8824  0.2810  0.3830
10524SOL    HW133013   3.475   0.537   1.483 -0.8500 -0.3425  0.6197
10524SOL    HW233014   3.349   0.482   1.547 -0.8836  0.2754  1.0940
10525SOL     OW33015   1.591   5.197   6.499  0.7909 -0.2483 -0.0252
10525SOL    HW133016   1.498   5.197   6.519  1.3201 -3.0162  3.6324
10525SOL    HW233017   1.626   5.270   6.550  0.9916 -1.9331  2.4946
10526SOL     OW33018   4.221   3.309   9.979 -0.2788  0.2856  0.1245
10526SOL    HW133019   4.224   3.356   9.896  0.5290 -0.7248 -0.4466
10526SOL    HW233020   4.273   3.363  10.039  0.5704  0.1932 -0.4974
10527SOL     OW33021   3.534   6.663   6.603 -0.0199  0.0774 -0.4002
10527SOL    HW133022   3.469   6.600   6.571 -0.5441  0.5224 -0.2087
10527SOL    HW233023   3.595   6.610   6.654  1.4585 -0.8743 -2.9196
10528SOL     OW33024   4.467   6.776  10.003  0.1010 -0.0411 -0.2702
10528SOL    HW133025   4.473   6.828  10.083 -0.7060 -0.1603 -0.1249
10528SOL    HW233026   4.381   6.735  10.007  0.4339 -0.8175 -0.7319
10529SOL     OW33027   3.497   1.088   6.065  0.5291 -0.0646  0.0212
10529SOL    HW133028   3.581   1.045   6.051 -0.3985 -1.9649 -0.0082
10529SOL    HW233029   3.500   1.119   6.155  0.8344 -1.1409  0.3874
10530SOL     OW33030   4.932   2.982   8.387  0.3396  0.0328  0.3329
10530SOL    HW133031   4.961   3.035   8.313  0.2146 -0.6300 -0.2027
10530SOL    HW233032   4.998   2.914   8.395  0.6504  0.4217  1.1975
10531SOL     OW33033   6.199   4.652   6.937  0.2274  0.3281 -0.0236
10531SOL    HW133034   6.106   4.676   6.942 -0.2793 -1.4783  0.0167
10531SOL    HW233035   6.242   4.711   6.999 -1.1075  0.3207  0.9652
10532SOL     OW33036   1.010   2.532   7.104 -0.6943  0.2582 -0.5275
10532SOL    HW133037   1.019   2.515   7.197 -0.0828  0.2116 -0.5899
10532SOL    HW233038   0.928   2.488   7.079 -0.3071 -0.6604 -0.2289
10533SOL     OW33039   2.686   1.543   6.791  0.0721  0.1577 -0.0794
10533SOL    HW133040   2.686   1.453   6.822  0.8526  0.2155  0.1180
10533SOL    HW233041   2.759   1.548   6.729 -1.1172  0.1897 -1.5362
10534SOL     OW33042   0.603   0.221  11.979 -0.2553  0.4192 -1.0223
10534SOL    HW133043   0.668   0.286  12.008 -0.3799  0.9532 -1.9159
10534SOL    HW233044   0.523   0.272  11.964 -0.8929 -0.2279  0.0388
10535SOL     OW33045   2.016   4.897   5.652 -0.9466  0.6912 -0.1710
10535SOL    HW133046   2.023   4.939   5.566 -1.5277  1.8310  0.3156
10535SOL    HW233047   2.106   4.881   5.679 -0.7699 -0.2855 -1.2683
10536SOL     OW33048   0.167   6.570   7.735 -0.3900  0.1173  0.1194
10536SOL    HW133049   0.136   6.502   7.675  0.2957 -0.7499  0.7188
10536SOL    HW233050   0.258   6.546   7.752  1.0594  3.0914 -2.3722
10537SOL     OW33051   5.105   3.064   2.886  0.2988  0.8567  0.7156
10537SOL    HW133052   5.057   3.138   2.849  1.1813  1.3316  0.5107
10537SOL    HW233053   5.087   3.068   2.980 -1.5848 -0.0859  0.4575
10538SOL     OW33054   2.716   2.562   9.330 -0.1641 -0.4383 -0.1807
10538SOL    HW133055   2.790   2.572   9.390 -0.5168 -1.0608  0.3644
10538SOL    HW233056   2.757   2.553   9.244  0.3157  1.4173 -0.1925
10539SOL     OW33057   6.799   7.767   3.782 -0.3849  1.0661  0.0943
10539SOL    HW133058   6.817   7.823   3.706 -1.6542  1.0084 -0.2710
10539SOL    HW233059   6.709   7.787   3.806 -0.0629  0.9477  1.4923
10540SOL     OW33060   6.070   7.533   0.797 -0.4904  0.1693 -0.2180
10540SOL    HW133061   6.055   7.617   0.840 -0.7765 -0.0296  0.0699
10540SOL    HW233062   6.061   7.552   0.703 -1.2190  0.3226 -0.1178
10541SOL     OW33063   3.890   2.054   6.292  0.2262  0.4673  0.1081
10541SOL    HW133064   3.878   2.043   6.198 -0.1984 -0.5147  0.2638
10541SOL    HW233065   3.802   2.045   6.328  0.3984  0.7595  0.6110
10542SOL     OW33066   5.261   4.465   3.382  0.1968  0.4038  0.1339
10542SOL    HW133067   5.246   4.375   3.354  1.1267  1.0973 -2.9348
10542SOL    HW233068   5.176   4.509   3.370  0.4586  0.5707 -1.2272
10543SOL     OW33069   3.709   1.083   0.875  0.1084  0.0476  0.4629
10543SOL    HW133070   3.658   1.005   0.894  0.5844 -0.4596 -0.2867
10543SOL    HW233071   3.788   1.051   0.831 -0.6990  1.0769 -1.9428
10544SOL     OW33072   7.633   1.415   4.134 -0.1201  0.1502 -0.1812
10544SOL    HW133073   7.576   1.340   4.149  0.6724 -0.2594  0.9492
10544SOL    HW233074   7.721   1.377   4.130  0.3879  1.0976  1.3505
10545SOL     OW33075   7.933   7.802  12.063 -0.1884  1.0298 -0.1657
10545SOL    HW133076   7.865   7.757  12.114  0.7471  0.2271  0.4296
10545SOL    HW233077   7.910   7.894  12.068 -0.9553  0.8180  0.4468
10546SOL     OW33078   7.725   1.385  10.432 -0.0357  0.3423 -0.1884
10546SOL    HW133079   7.799   1.416  10.484  1.0197 -0.5267 -1.1190
10546SOL    HW233080   7.686   1.315  10.485  0.8605 -0.3446 -0.4011
10547SOL     OW33081   5.053   6.755   8.370  0.3449  0.1548 -0.5721
10547SOL    HW133082   5.134   6.802   8.350  0.7936  0.3961  1.5727
10547SOL    HW233083   5.053   6.681   8.310  3.0512 -0.7998  0.4575
10548SOL     OW33084   6.894   2.544   3.922  0.0225  0.1135  0.1982
10548SOL    HW133085   6.908   2.611   3.856 -0.2714  0.2317  0.2500
10548SOL    HW233086   6.981   2.510   3.942  0.0873 -0.1037 -0.4334
10549SOL     OW33087   3.169   6.825   2.185  0.1592 -0.4756 -0.5289
10549SOL    HW133088   3.111   6.776   2.126  0.5766 -1.4526 -0.1586
10549SOL    HW233089   3.183   6.909   2.141 -2.0558  0.0738 -0.3180
10550SOL     OW33090   4.442   4.769   4.552  0.1321 -0.2758  0.1183
10550SOL    HW133091   4.421   4.676   4.563 -0.6948 -0.2322 -0.9303
10550SOL    HW233092   4.501   4.771   4.477 -0.4310  0.1030 -0.3221
10551SOL     OW33093   5.238   7.478   5.737 -0.0750 -0.0544  0.0590
10551SOL    HW133094   5.212   7.463   5.646  1.1617 -0.5972 -0.2259
10551SOL    HW233095   5.175   7.542   5.769 -1.5942 -1.1278 -0.6453
10552SOL     OW33096   0.459   1.927   0.125  0.2279 -0.5113 -0.8869
10552SOL    HW133097   0.510   1.856   0.164  0.7784 -0.0405 -0.7393
10552SOL    HW233098   0.518   1.968   0.062  0.9305  1.5746  0.9829
10553SOL     OW33099   1.244   5.210  11.865  0.2560  0.4441 -0.1479
10553SOL    HW133100   1.253   5.197  11.960  0.8068 -0.2838 -0.2900
10553SOL    HW233101   1.178   5.145  11.839  0.8520 -0.0721 -0.4096
10554SOL     OW33102   0.268   6.951   6.349 -0.0098  0.4003  0.2499
10554SOL    HW133103   0.359   6.938   6.377 -0.0638 -1.0320 -0.1463
10554SOL    HW233104   0.271   6.940   6.254 -0.2001  2.9551 -0.1155
10555SOL     OW33105   7.170   1.240   1.978  0.4933  0.4049 -0.3664
10555SOL    HW133106   7.126   1.280   1.903  2.1748  1.7484 -0.6792
10555SOL    HW233107   7.150   1.297   2.052 -1.2676 -0.9850  0.3099
10556SOL     OW33108   7.281   4.015   6.961  0.0172  0.4419  0.0758
10556SOL    HW133109   7.202   4.048   7.002 -0.7412 -0.0071 -0.9874
10556SOL    HW233110   7.351   4.073   6.993 -0.4298 -0.1971  2.3556
10557SOL     OW33111   1.598   0.638   6.447 -0.2107 -0.5491 -0.1214
10557SOL    HW133112   1.659   0.606   6.380 -0.8122 -0.5692 -0.6761
10557SOL    HW233113   1.632   0.723   6.472  0.8612 -1.1788  0.6504
10558SOL     OW33114   3.990   0.198   0.680  0.3310  0.6067 -0.1546
10558SOL    HW133115   4.034   0.138   0.620 -1.4440 -2.0296  1.0064
10558SOL    HW233116   4.042   0.193   0.761 -0.6817 -0.6532  0.4464
10559SOL     OW33117   7.333   1.820   3.952 -0.1896 -0.1450  0.1517
10559SOL    HW133118   7.424   1.791   3.950  0.5997  2.1544  0.3610
10559SOL    HW233119   7.295   1.783   3.872  1.3012 -0.0404 -0.6384
10560SOL     OW33120   7.058   3.782   3.539 -0.3432 -0.4500  0.1871
10560SOL    HW133121   7.112   3.728   3.481 -1.0327 -0.8181 -0.1337
10560SOL    HW233122   7.081   3.753   3.627  0.9382  0.3294  0.1320
10561SOL     OW33123   6.848   6.510   6.767  0.5881  0.2700 -0.2479
10561SOL    HW133124   6.905   6.536   6.839 -0.2107  2.1272 -0.2454
10561SOL    HW233125   6.869   6.571   6.696 -1.9284  1.5842  0.0236
10562SOL     OW33126   5.528   7.173   5.046  0.1664  0.3183 -0.1022
10562SOL    HW133127   5.524   7.103   4.980  0.2678 -0.1485  0.3797
10562SOL    HW233128   5.470   7.241   5.012  1.6419  0.9045 -1.6091
10563SOL     OW33129   4.281   3.133   5.035  0.2357  0.2244  0.1742
10563SOL    HW133130   4.356   3.187   5.013  1.3561 -1.4752 -0.4395
10563SOL    HW233131   4.245   3.107   4.950  0.9607 -1.5660  0.3632
10564SOL     OW33132   1.894   6.400   0.774  0.1438 -0.2751  0.3487
10564SOL    HW133133   1.858   6.375   0.859  0.2638 -0.1287  0.4441
10564SOL    HW233134   1.957   6.469   0.794 -1.1556  1.0578 -0.0431
10565SOL     OW33135   0.893   3.851   6.997  0.2552 -0.0022 -0.0398
10565SOL    HW133136   0.825   3.903   6.956  0.5004  0.1992 -0.1974
10565SOL    HW233137   0.962   3.846   6.931  0.7634  0.5400  0.4378
10566SOL     OW33138   2.583   7.190   0.532  0.2926  0.1667  0.0017
10566SOL    HW133139   2.496   7.214   0.564  0.4949  1.1990 -0.1977
10566SOL    HW233140   2.566   7.121   0.467 -0.2644 -0.5419  0.8735
10567SOL     OW33141   4.709   7.660  11.017  0.1421 -0.1042 -0.6978
10567SOL    HW133142   4.630   7.712  11.002 -0.3420 -1.2005 -2.1208
10567SOL    HW233143   4.753   7.658  10.933  0.7877 -0.9717 -0.3507
10568SOL     OW33144   4.175   5.219   0.578 -0.0926 -0.2410 -0.0023
10568SOL    HW133145   4.120   5.292   0.548 -1.7781 -1.2821  0.4348
10568SOL    HW233146   4.165   5.221   0.673  0.1202 -0.8402  0.0305
10569SOL     OW33147   2.139   0.634   7.190  0.0582 -0.0062 -0.5543
10569SOL    HW133148   2.048   0.603   7.196  0.0305  0.0598 -0.6223
10569SOL    HW233149   2.191   0.554   7.190  0.0197 -0.0352 -0.1963
10570SOL     OW33150   0.354   7.738   3.794  0.2792  0.2494  0.2213
10570SOL    HW133151   0.259   7.737   3.785  0.3298 -0.0746 -0.3105
10570SOL    HW233152   0.376   7.652   3.831  0.2933  0.6541  1.1854
10571SOL     OW33153   1.526   0.631   9.395 -0.2483 -0.3520 -0.7105
10571SOL    HW133154   1.586   0.687   9.346  1.8010 -0.9490  0.9988
10571SOL    HW233155   1.449   0.623   9.338  0.9930  0.9842 -2.6874
10572SOL     OW33156   2.678   4.945   8.096  0.6875  0.5566  0.3246
10572SOL    HW133157   2.625   4.965   8.019 -0.0653  0.1787  0.7218
10572SOL    HW233158   2.733   5.021   8.109  0.6350  0.7253 -0.4395
10573SOL     OW33159   2.023   2.205   4.195  0.8755  0.1320  0.7529
10573SOL    HW133160   1.971   2.246   4.126 -0.0427  1.0854  1.9564
10573SOL    HW233161   2.047   2.277   4.252 -1.5198 -0.9937  3.4291
10574SOL     OW33162   5.458   7.638   5.464  0.6900  0.6650  0.2558
10574SOL    HW133163   5.372   7.622   5.503 -0.6411  0.6085 -2.4313
10574SOL    HW233164   5.507   7.556   5.478 -0.4084 -0.0194  0.2124
10575SOL     OW33165   3.135   0.870   3.333 -0.4255 -0.8217 -0.3803
10575SOL    HW133166   3.200   0.800   3.327 -0.1500 -0.7122  1.0051
10575SOL    HW233167   3.059   0.829   3.373 -0.2453 -0.3422  0.4882
10576SOL     OW33168   2.654   3.969   5.736 -0.2109  0.0602 -0.0966
10576SOL    HW133169   2.699   3.908   5.678 -0.7965  0.2003 -0.7104
10576SOL    HW233170   2.701   3.962   5.819 -0.7599 -1.8673  0.1143
10577SOL     OW33171   0.395   3.281   0.605  0.2623  0.4955  0.5202
10577SOL    HW133172   0.465   3.300   0.668  0.6436  1.9371 -0.2888
10577SOL    HW233173   0.410   3.343   0.534 -0.3489 -0.8708 -0.8503
10578SOL     OW33174   2.421   4.230  11.321 -0.2411  0.2003  0.3212
10578SOL    HW133175   2.445   4.278  11.242 -0.7643 -0.2520 -0.1227
10578SOL    HW233176   2.399   4.142  11.290 -1.9757  0.4428  0.7353
10579SOL     OW33177   5.110   4.785   2.543  0.0085 -0.5455 -0.2171
10579SOL    HW133178   5.136   4.737   2.622  1.0723 -0.6768 -0.6279
10579SOL    HW233179   5.119   4.720   2.473 -0.0829 -0.1838 -0.5631
10580SOL     OW33180   2.083   6.188   4.525 -0.0824  0.0524  0.1908
10580SOL    HW133181   2.046   6.100   4.538  0.0217  0.0861  0.7353
10580SOL    HW233182   2.027   6.246   4.576  0.3001  0.1979  0.4557
10581SOL     OW33183   1.695   7.986   8.946  0.2475  0.6055 -0.0447
10581SOL    HW133184   1.653   7.994   8.860  1.6262 -1.2684 -0.9598
10581SOL    HW233185   1.778   8.034   8.937  0.5538  0.1117  0.1149
10582SOL     OW33186   6.620   3.337   0.294  0.0524  0.3923  0.2248
10582SOL    HW133187   6.596   3.328   0.202  0.1753  0.0961  0.2218
10582SOL    HW233188   6.536   3.338   0.341 -0.0190  0.7968  0.0876
10583SOL     OW33189   4.914   1.590   3.487  0.4070  0.4224  0.2658
10583SOL    HW133190   4.963   1.619   3.410  0.8473  1.3048  0.8520
10583SOL    HW233191   4.878   1.671   3.524  0.0100 -0.0164  0.8521
10584SOL     OW33192   5.251   3.841  11.748  0.9420 -0.3554 -0.3804
10584SOL    HW133193   5.256   3.925  11.794  1.1157  0.6248 -2.0826
10584SOL    HW233194   5.324   3.790  11.783 -0.3230 -0.6111  2.1125
10585SOL     OW33195   7.905   3.227   9.738 -0.1017  0.6996 -0.1624
10585SOL    HW133196   7.906   3.179   9.655 -1.0945 -0.5299  0.5054
10585SOL    HW233197   7.981   3.193   9.786  0.1303  0.9858 -0.3197
10586SOL     OW33198   6.091   2.872   9.892  0.1373 -0.6921  0.2830
10586SOL    HW133199   5.999   2.896   9.903 -0.0259 -0.8316 -0.6237
10586SOL    HW233200   6.140   2.941   9.936 -0.3762  0.0127 -0.2283
10587SOL     OW33201   7.062   4.390   5.811 -0.2987  0.5306  0.2040
10587SOL    HW133202   6.990   4.449   5.833 -0.1472  0.4365  0.9957
10587SOL    HW233203   7.089   4.416   5.723 -1.2348  0.6290 -0.0669
10588SOL     OW33204   3.643   0.075   0.001 -0.1266  0.0296  0.4214
10588SOL    HW133205   3.640   0.018   0.078  0.4973 -0.8471 -0.1896
10588SOL    HW233206   3.555   0.073  -0.035  0.1850 -1.5555 -0.3051
10589SOL     OW33207   2.510   1.424   9.817 -1.0211 -0.5025  0.1334
10589SOL    HW133208   2.511   1.508   9.861 -3.7245 -0.8335  0.9687
10589SOL    HW233209   2.559   1.439   9.736 -0.9105  1.6748  0.5574
10590SOL     OW33210   3.731   6.139   5.114 -0.0579 -0.4330 -0.5109
10590SOL    HW133211   3.647   6.168   5.150 -0.3077  0.5177 -1.7876
10590SOL    HW233212   3.709   6.065   5.057  0.1437 -0.9722  0.0984
10591SOL     OW33213   1.644   6.915   3.785  0.0185  0.0914 -0.2651
10591SOL    HW133214   1.638   6.934   3.879  0.5040  2.5454 -0.6505
10591SOL    HW233215   1.722   6.964   3.756 -0.9270  0.5630 -2.1741
10592SOL     OW33216   2.519   5.925   5.551  0.1590  0.4767  0.1001
10592SOL    HW133217   2.539   5.967   5.635 -0.9476  1.3080 -0.0305
10592SOL    HW233218   2.539   5.991   5.486  0.1636  0.1470 -0.2346
10593SOL     OW33219   1.464   6.464   8.381  0.1198 -0.1363  0.2620
10593SOL    HW133220   1.440   6.536   8.322  0.3076  0.1746  0.5595
10593SOL    HW233221   1.438   6.385   8.335  0.2999  0.1037 -0.2565
10594SOL     OW33222   5.032   4.567  11.303 -0.5817  0.3550  0.5971
10594SOL    HW133223   5.098   4.573  11.373 -0.8946  0.7666  0.8581
10594SOL    HW233224   5.007   4.474  11.302 -1.6673  0.5939  2.0563
10595SOL     OW33225   5.197   5.333   7.888 -0.0777  0.2249  0.4040
10595SOL    HW133226   5.151   5.285   7.820  0.1095  0.0680  0.3854
10595SOL    HW233227   5.180   5.425   7.869  2.1055  0.3334 -1.4376
10596SOL     OW33228   2.455   1.007   0.901  0.2686 -0.6072 -0.1012
10596SOL    HW133229   2.541   1.046   0.884 -0.0856 -0.3436 -1.4486
10596SOL    HW233230   2.468   0.913   0.886  0.4405 -0.6312  0.2004
10597SOL     OW33231   2.665   6.466   8.260  0.0514  0.4937 -0.2930
10597SOL    HW133232   2.631   6.422   8.182 -0.0836  0.0561  0.0086
10597SOL    HW233233   2.629   6.555   8.255 -1.1748  0.0301  0.0403
10598SOL     OW33234   4.979   6.243   2.550 -0.0662  0.5323  0.9045
10598SOL    HW133235   5.024   6.207   2.474  1.4553 -0.3614  2.1608
10598SOL    HW233236   4.975   6.337   2.533 -1.0639  0.2020 -0.8975
10599SOL     OW33237   2.289   1.493   7.724  0.4181 -1.0775 -0.1666
10599SOL    HW133238   2.272   1.582   7.692 -2.3854 -1.2171  0.7186
10599SOL    HW233239   2.366   1.503   7.780  0.2186  0.7766 -0.1505
10600SOL     OW33240   7.909   0.107  10.453 -0.7059 -0.2234  0.2215
10600SOL    HW133241   7.882   0.015  10.451  1.4583 -0.9099  0.1886
10600SOL    HW233242   7.859   0.147  10.382 -0.0866 -1.8763 -1.2219
10601SOL     OW33243   1.647   1.246   9.645  0.2022 -0.4504 -0.1632
10601SOL    HW133244   1.572   1.237   9.704  1.0982  3.3896  1.9009
10601SOL    HW233245   1.626   1.323   9.592  2.5557  0.7135  0.4709
10602SOL     OW33246   6.866   0.399   0.181  0.0996 -0.3391  0.1193
10602SOL    HW133247   6.870   0.443   0.266 -1.5740 -3.3119  1.8981
10602SOL    HW233248   6.947   0.347   0.178 -0.7257 -1.7528  0.9124
10603SOL     OW33249   7.545   3.667  10.449  0.1383 -0.2459 -0.0934
10603SOL    HW133250   7.582   3.587  10.487  1.5600  1.0197  1.3532
10603SOL    HW233251   7.506   3.639  10.366  1.2194 -2.2992  0.0289
10604SOL     OW33252   2.412   2.308   1.153 -0.7381  0.3110 -0.4373
10604SOL    HW133253   2.384   2.307   1.062 -0.6745  1.0800 -0.4683
10604SOL    HW233254   2.468   2.230   1.162 -0.3452  0.4987 -1.1762
10605SOL     OW33255   5.653   0.765   0.144  0.5550 -0.3583 -0.0957
10605SOL    HW133256   5.640   0.670   0.152  0.4860 -0.3876 -0.5416
10605SOL    HW233257   5.658   0.781   0.050  2.2139 -0.1349  0.0060
10606SOL     OW33258   7.867   7.603   2.351 -0.1110 -0.2648  0.3184
10606SOL    HW133259   7.857   7.510   2.372 -0.6488 -0.3669 -0.3448
10606SOL    HW233260   7.801   7.647   2.405  1.5101 -0.0120  2.2080
10607SOL     OW33261   2.860   7.953  12.196  0.1671 -0.3530  0.2857
10607SOL    HW133262   2.779   7.960  12.245 -1.3235  0.7018 -2.1640
10607SOL    HW233263   2.929   7.974  12.260 -1.7866  3.1008  1.5106
10608SOL     OW33264   0.742   5.208   2.939  0.6617 -0.5262 -0.0961
10608SOL    HW133265   0.756   5.299   2.915 -3.0161  0.6639  1.5376
10608SOL    HW233266   0.730   5.210   3.034  0.1164 -2.6739 -0.0691
10609SOL     OW33267   0.145   6.271   6.077 -0.6062 -0.0433 -0.3659
10609SOL    HW133268   0.164   6.364   6.066 -0.0731 -0.2890 -1.7396
10609SOL    HW233269   0.066   6.269   6.132 -0.6156  1.2134 -0.3084
10610SOL     OW33270   5.796   7.920   0.883  0.1920 -0.2467  0.0105
10610SOL    HW133271   5.787   7.990   0.819  2.4576 -1.4847 -1.7854
10610SOL    HW233272   5.737   7.851   0.852 -0.5337  0.0517  0.6727
10611SOL     OW33273   5.006   4.904   1.903 -0.2398  0.1162  0.2235
10611SOL    HW133274   4.988   4.995   1.881  0.8298  0.4438  0.6490
10611SOL    HW233275   4.932   4.855   1.866 -0.3300  1.0444 -0.8763
10612SOL     OW33276   7.139   1.795  10.526  0.6154 -0.0450 -0.2245
10612SOL    HW133277   7.156   1.709  10.564 -1.9643  0.6689  3.0409
10612SOL    HW233278   7.045   1.809  10.539  0.8810  3.1726 -0.7960
10613SOL     OW33279   0.018   6.097   3.686  0.0846 -0.1794 -0.2226
10613SOL    HW133280  -0.007   6.186   3.662 -1.0855 -0.6977 -1.0254
10613SOL    HW233281   0.004   6.046   3.607 -1.1049 -1.4300  0.7439
10614SOL     OW33282   2.738   6.649   3.259 -0.0249  0.0912 -0.2017
10614SOL    HW133283   2.729   6.744   3.267 -0.9913 -0.0317  0.3349
10614SOL    HW233284   2.832   6.632   3.267  0.1569  1.0065 -0.3739
10615SOL     OW33285   0.925   7.445   1.000  0.7572  0.0026 -0.2284
10615SOL    HW133286   0.866   7.393   0.947 -0.9958  1.0610  0.5728
10615SOL    HW233287   0.925   7.402   1.086  0.3227  0.5815  0.0667
10616SOL     OW33288   2.439   3.155   6.558 -0.7656  0.2791  0.3946
10616SOL    HW133289   2.360   3.150   6.612 -0.7926  1.4328  0.4778
10616SOL    HW233290   2.494   3.220   6.602 -0.2422  0.2962 -0.2730
10617SOL     OW33291   4.584   1.525   5.357  0.0673  0.1473  0.0017
10617SOL    HW133292   4.627   1.593   5.409 -1.0931  0.0571  1.1429
10617SOL    HW233293   4.532   1.574   5.293 -0.0596  0.3114  0.2282
10618SOL     OW33294   4.210   0.952   1.151 -0.8631 -0.0557 -0.5060
10618SOL    HW133295   4.248   0.916   1.231 -0.5896 -0.1292 -0.6651
10618SOL    HW233296   4.125   0.987   1.177  0.1828  2.0425  0.3183
10619SOL     OW33297   3.858   0.245   9.080 -0.6043  0.0223  0.5905
10619SOL    HW133298   3.798   0.170   9.085  0.0070 -0.4021  1.9197
10619SOL    HW233299   3.942   0.207   9.056 -0.6732  0.5247 -0.5074
10620SOL     OW33300   0.752   0.639  10.588  0.4618 -0.4151  0.0016
10620SOL    HW133301   0.830   0.639  10.533  0.5698 -0.9918  0.1426
10620SOL    HW233302   0.757   0.720  10.638 -0.6156  1.1065 -2.1834
10621SOL     OW33303   0.772   7.027   4.776 -0.1608  0.2289  0.8371
10621SOL    HW133304   0.757   6.943   4.818 -0.8004 -0.5467 -0.8355
10621SOL    HW233305   0.798   7.086   4.847  0.7936 -1.4865  1.9627
10622SOL     OW33306   2.592   0.327   3.940  0.0419  0.1832  0.5563
10622SOL    HW133307   2.550   0.329   4.026  0.3677  0.8299  0.7071
10622SOL    HW233308   2.676   0.372   3.953  0.1199  0.2378 -0.0866
10623SOL     OW33309   3.394   5.732   2.110 -0.2701  0.2900 -0.4422
10623SOL    HW133310   3.407   5.825   2.129 -0.0858  0.3474 -0.8405
10623SOL    HW233311   3.303   5.726   2.082 -0.1083  0.4568 -1.0222
10624SOL     OW33312   7.636   0.588   3.826 -0.1243  0.3186 -0.3923
10624SOL    HW133313   7.566   0.646   3.797  0.1241  1.1345  0.5851
10624SOL    HW233314   7.717   0.636   3.808  0.2271 -0.7155 -1.7287
10625SOL     OW33315   6.183   5.761   3.030  0.3465  0.4798 -0.6375
10625SOL    HW133316   6.107   5.814   3.007  0.9436  2.2741  1.3087
10625SOL    HW233317   6.151   5.698   3.095  0.9294  2.9602  2.2390
10626SOL     OW33318   7.034   2.272   1.714 -0.1338  0.5550 -0.1539
10626SOL    HW133319   7.046   2.366   1.728 -1.1426  0.6714 -0.0388
10626SOL    HW233320   6.966   2.246   1.777  3.0407 -1.1305  3.0282
10627SOL     OW33321   5.188   5.123   0.054 -0.2326 -0.4177  0.1891
10627SOL    HW133322   5.125   5.182   0.013  0.0880  0.0085  0.3106
10627SOL    HW233323   5.202   5.054  -0.012  0.2289  0.2264 -0.4135
10628SOL     OW33324   1.676   4.720   3.051 -0.3888  0.2164 -0.6723
10628SOL    HW133325   1.720   4.740   2.969  0.4819  0.2958 -0.1937
10628SOL    HW233326   1.618   4.646   3.030  0.1742 -0.0680 -1.2499
10629SOL     OW33327   4.741   0.022   4.041 -0.2802 -0.1085 -0.0133
10629SOL    HW133328   4.678  -0.031   4.090 -0.2823  1.4650  1.7962
10629SOL    HW233329   4.780   0.079   4.106  0.8468  1.0511 -1.6262
10630SOL     OW33330   0.245   3.210   7.344  0.5288 -0.1901  0.1780
10630SOL    HW133331   0.269   3.299   7.318  0.5030 -0.0693  0.5622
10630SOL    HW233332   0.329   3.163   7.347  0.4486 -0.4404 -0.9702
10631SOL     OW33333   2.418   3.573  11.907 -0.2479 -0.3018  0.1305
10631SOL    HW133334   2.505   3.612  11.905 -0.5365  0.3195 -1.0547
10631SOL    HW233335   2.433   3.482  11.879  0.0641 -0.2909  0.2555
10632SOL     OW33336   5.126   5.187  10.830  0.3707 -0.0607 -0.3266
10632SOL    HW133337   5.032   5.171  10.822  0.1839  1.5142 -2.1455
10632SOL    HW233338   5.163   5.153  10.748  0.9878  1.4859 -0.7430
10633SOL     OW33339   0.063   3.386   8.304  0.3220 -0.1498 -0.5797
10633SOL    HW133340   0.105   3.466   8.273  0.3656  0.3357  0.6718
10633SOL    HW233341   0.044   3.403   8.396  0.3120 -1.5828 -0.2977
10634SOL     OW33342   4.562   0.323  10.139 -0.5089 -0.4427  0.0110
10634SOL    HW133343   4.657   0.316  10.152 -0.5973 -0.2463  0.8421
10634SOL    HW233344   4.550   0.320  10.044  0.3083 -0.7210 -0.0903
10635SOL     OW33345   5.806   4.925   3.427 -0.3603 -0.0364 -0.5599
10635SOL    HW133346   5.862   4.900   3.354 -0.3486 -1.6134 -0.0460
10635SOL    HW233347   5.739   4.856   3.431 -0.4338  0.0791  0.8399
10636SOL     OW33348   3.571   6.878  10.639 -0.0881  0.3490 -0.2920
10636SOL    HW133349   3.506   6.948  10.634  1.1829  1.4865 -1.6610
10636SOL    HW233350   3.526   6.800  10.606 -0.9561  0.9507 -0.5356
10637SOL     OW33351   4.020   6.272   1.217  0.1074  0.1914  0.6046
10637SOL    HW133352   3.954   6.223   1.168  1.4687 -1.6206  0.4908
10637SOL    HW233353   4.069   6.321   1.150 -0.9696  1.4095  0.6746
10638SOL     OW33354   5.161   7.159   3.277  0.2649  0.7093  0.0806
10638SOL    HW133355   5.216   7.237   3.267  0.9838  0.0113 -1.6902
10638SOL    HW233356   5.214   7.087   3.244 -1.7152  0.0125 -1.7845
10639SOL     OW33357   0.375   6.667   3.648  0.1687  0.2571  0.2236
10639SOL    HW133358   0.457   6.663   3.598  0.2105 -1.7109  0.3546
10639SOL    HW233359   0.364   6.578   3.683 -3.3853 -0.3916 -2.0127
10640SOL     OW33360   4.384   7.947   6.750 -0.0165 -0.0056  0.0363
10640SOL    HW133361   4.394   7.889   6.826 -2.1262 -0.8184 -0.2584
10640SOL    HW233362   4.470   7.945   6.707  1.1810  0.3018  2.2206
10641SOL     OW33363   4.521   6.835   7.139  0.1860  0.9274  0.0225
10641SOL    HW133364   4.557   6.848   7.226  1.3700  0.7727 -0.4255
10641SOL    HW233365   4.452   6.901   7.130 -0.2599  0.6440  1.2288
10642SOL     OW33366   3.193   2.954   6.079  0.0861 -0.2517  0.2423
10642SOL    HW133367   3.136   2.895   6.128 -1.3662  2.3620  1.9219
10642SOL    HW233368   3.177   2.931   5.987 -2.3492 -0.8326  0.7329
10643SOL     OW33369   4.840   4.580   9.917 -0.1655 -0.0047  0.0656
10643SOL    HW133370   4.876   4.525   9.987 -1.7506 -0.1104  0.8382
10643SOL    HW233371   4.916   4.623   9.879  0.7656 -0.0920  1.7400
10644SOL     OW33372   2.671   2.894   9.518 -0.0338  0.0243  0.1568
10644SOL    HW133373   2.765   2.894   9.506 -0.1772  0.2666 -1.0648
10644SOL    HW233374   2.655   2.965   9.580  0.5646  0.1274  0.1962
10645SOL     OW33375   5.752   2.549   7.723  0.0131  0.8743 -0.4305
10645SOL    HW133376   5.776   2.632   7.764  1.0521  1.0247 -1.3011
10645SOL    HW233377   5.657   2.544   7.732  0.1536  1.0697  1.6445
10646SOL     OW33378   3.138   1.603   4.188 -0.1630  0.0966 -0.0183
10646SOL    HW133379   3.164   1.524   4.141  3.0116  1.0759 -0.1397
10646SOL    HW233380   3.135   1.671   4.121  0.2945  0.7040  0.5689
10647SOL     OW33381   6.255   7.385   0.906 -0.6552  0.4170 -0.3554
10647SOL    HW133382   6.184   7.426   0.856  0.6732  2.4710 -0.6569
10647SOL    HW233383   6.324   7.451   0.908  0.7675 -1.0402  1.0353
10648SOL     OW33384   2.294   3.466   6.744  0.1481  0.2722  0.7482
10648SOL    HW133385   2.205   3.448   6.716  0.4487  0.0748 -0.1127
10648SOL    HW233386   2.341   3.484   6.663  0.7450  1.0188  1.2456
10649SOL     OW33387   6.523   4.014   7.434  0.3790  0.3193  0.3530
10649SOL    HW133388   6.518   4.075   7.360  1.8703  0.3470  0.2440
10649SOL    HW233389   6.435   4.014   7.471  0.0206  1.5375 -0.4385
10650SOL     OW33390   5.455   7.108   5.564 -0.4177 -0.1326  0.0370
10650SOL    HW133391   5.462   7.194   5.606 -0.5886 -0.1280  0.0574
10650SOL    HW233392   5.546   7.079   5.555 -0.3597  0.0386  0.0523
10651SOL     OW33393   0.918   6.709   7.325 -0.0403  0.4432 -0.3667
10651SOL    HW133394   0.930   6.708   7.230 -0.1149 -0.5878 -0.3727
10651SOL    HW233395   0.842   6.653   7.341  2.3588 -2.8315  0.5888
10652SOL     OW33396   0.490   7.815   3.585  0.3237 -0.1248  0.7408
10652SOL    HW133397   0.433   7.791   3.658 -0.1668  0.3952  0.5413
10652SOL    HW233398   0.518   7.732   3.547 -1.9774 -0.4370 -0.4357
10653SOL     OW33399   1.021   3.415   7.531  0.0274 -0.2651 -0.3233
10653SOL    HW133400   1.101   3.381   7.570 -1.4262 -1.2411  2.0478
10653SOL    HW233401   0.975   3.338   7.499 -1.0968 -0.0415  0.6786
10654SOL     OW33402   2.693   4.647   9.145 -0.0147 -0.4279  0.0495
10654SOL    HW133403   2.778   4.684   9.120  0.2264  1.3162  2.9135
10654SOL    HW233404   2.633   4.676   9.077  1.4874 -0.8599 -1.5188
10655SOL     OW33405   4.374   4.478  10.287 -0.0829 -0.5803 -0.7591
10655SOL    HW133406   4.433   4.527  10.230 -0.2845 -0.6431 -1.0231
10655SOL    HW233407   4.366   4.393  10.245  0.7761 -1.0752  0.0281
10656SOL     OW33408   1.271   2.222   4.187 -0.1172 -0.1888 -0.7269
10656SOL    HW133409   1.334   2.240   4.257 -0.2222  0.0867 -0.7012
10656SOL    HW233410   1.234   2.136   4.209  1.3333 -1.0457 -1.5511
10657SOL     OW33411   1.894   6.263  11.306  0.0011  0.8237  0.0148
10657SOL    HW133412   1.965   6.238  11.246 -0.3080  0.5537 -0.2438
10657SOL    HW233413   1.858   6.342  11.267 -0.2091  0.6403 -0.1675
10658SOL     OW33414   4.373   2.527   5.215  0.4908  0.1865 -0.2259
10658SOL    HW133415   4.338   2.551   5.130  0.6145  1.0307 -0.0486
10658SOL    HW233416   4.427   2.602   5.241  1.7066 -0.7040 -0.0959
10659SOL     OW33417   6.271   7.825  12.376  0.5122 -0.0848 -0.7385
10659SOL    HW133418   6.332   7.898  12.392 -0.8935  1.0065 -0.2273
10659SOL    HW233419   6.271   7.816  12.280  1.1563  0.1686 -0.7703
10660SOL     OW33420   0.979   3.968   3.269 -0.0841  0.5682 -0.9261
10660SOL    HW133421   0.974   4.064   3.259 -1.4826  0.4714 -1.4289
10660SOL    HW233422   1.072   3.949   3.268  0.2423  1.9657 -0.4987
10661SOL     OW33423   2.395   7.931   7.408  0.1505 -0.0241 -0.0999
10661SOL    HW133424   2.354   8.010   7.445 -0.7959 -0.6558  0.2441
10661SOL    HW233425   2.487   7.938   7.433 -0.3766 -0.2474  2.1406
10662SOL     OW33426   3.097   6.950  10.946 -0.0387  0.6037 -0.3195
10662SOL    HW133427   3.091   6.866  10.902  1.3198  1.0798 -1.5102
10662SOL    HW233428   3.090   6.929  11.039 -2.2262 -0.5097 -0.6718
10663SOL     OW33429   5.679   4.592  11.647  0.2792 -0.6930 -0.1273
10663SOL    HW133430   5.695   4.686  11.648  0.9928 -0.8098  0.0240
10663SOL    HW233431   5.732   4.557  11.718  0.7204 -1.3057 -0.7327
10664SOL     OW33432   2.420   7.108   4.031  0.6887 -0.6828  0.3296
10664SOL    HW133433   2.430   7.086   4.124 -0.6377  1.9646  1.2123
10664SOL    HW233434   2.326   7.102   4.015  0.2946  2.9348  0.4453
10665SOL     OW33435   6.106   3.480  10.450  0.1172 -0.2039 -0.2735
10665SOL    HW133436   6.145   3.567  10.460 -2.7048  1.0330  1.0437
10665SOL    HW233437   6.091   3.472  10.355  1.4371  0.2030 -0.5416
10666SOL     OW33438   0.498   2.208  10.559 -0.5950 -0.5256 -0.6977
10666SOL    HW133439   0.556   2.277  10.594 -0.4279  0.5349 -2.8770
10666SOL    HW233440   0.425   2.256  10.520 -0.9919 -1.6325 -1.3600
10667SOL     OW33441   6.713   7.088   1.856 -0.0494  0.4116  0.4193
10667SOL    HW133442   6.673   7.116   1.938  0.7884  1.7191  0.4219
10667SOL    HW233443   6.768   7.162   1.830 -0.6881  0.2388 -1.5898
10668SOL     OW33444   3.057   0.235  11.204  0.2557  0.1612 -0.4728
10668SOL    HW133445   3.029   0.171  11.138  1.2249 -0.4854 -0.2738
10668SOL    HW233446   2.976   0.261  11.248 -0.1215 -1.1254 -0.3729
10669SOL     OW33447   7.677   2.027  12.336 -0.3233  0.3530 -0.1882
10669SOL    HW133448   7.689   2.066  12.249  1.6393  1.7197  0.6330
10669SOL    HW233449   7.724   1.944  12.331 -0.3681  0.3417 -0.4718
10670SOL     OW33450   2.438   1.432   8.349 -0.7051  0.1237 -0.6544
10670SOL    HW133451   2.454   1.428   8.443  0.3333  0.1977 -0.8106
10670SOL    HW233452   2.525   1.420   8.310 -1.4630 -3.0262 -1.6939
10671SOL     OW33453   7.685   4.739   6.632  0.4022  0.0991 -0.1779
10671SOL    HW133454   7.619   4.698   6.576 -0.7033  0.1853  1.0058
10671SOL    HW233455   7.682   4.831   6.609 -1.7598  0.5386  1.6048
10672SOL     OW33456   0.453   3.457   6.475  0.0157  0.2496  0.0115
10672SOL    HW133457   0.357   3.452   6.476  0.0807 -2.1043 -0.5568
10672SOL    HW233458   0.478   3.439   6.566 -0.0492  1.2977  0.2578
10673SOL     OW33459   2.174   6.541   9.549  0.2266  0.3107 -0.3179
10673SOL    HW133460   2.160   6.538   9.454 -0.4943 -1.1563 -0.1949
10673SOL    HW233461   2.165   6.634   9.571  0.7342  0.7287 -1.7155
10674SOL     OW33462   0.221   2.878   0.403 -0.3357  0.0291 -0.5632
10674SOL    HW133463   0.222   2.958   0.457 -4.4948  1.7958 -2.5637
10674SOL    HW233464   0.178   2.813   0.458  2.3516 -0.7408  0.7904
10675SOL     OW33465   2.908   0.406   3.172  0.2187  0.1038  0.0324
10675SOL    HW133466   2.886   0.491   3.134  0.5681  0.5330  0.7656
10675SOL    HW233467   3.004   0.403   3.171  0.2235 -1.1677 -1.8642
10676SOL     OW33468   2.134   4.746  11.538  0.2340 -0.1568  0.2108
10676SOL    HW133469   2.053   4.741  11.589  0.7175  2.0185  1.2948
10676SOL    HW233470   2.117   4.693  11.460 -2.0300 -0.1685  0.6601
10677SOL     OW33471   5.367   4.920   4.032  0.0758  0.0733 -0.7006
10677SOL    HW133472   5.385   5.014   4.023  0.4217  0.1090  0.2263
10677SOL    HW233473   5.339   4.909   4.123 -1.1213 -0.5563 -1.1217
10678SOL     OW33474   4.304   5.795   2.273  0.0518 -0.0575 -0.3233
10678SOL    HW133475   4.270   5.770   2.187  0.0661  0.0841 -0.3696
10678SOL    HW233476   4.226   5.802   2.328 -0.2114  2.0349 -0.8571
10679SOL     OW33477   6.414   3.440  12.256 -0.2964 -0.4197 -0.2673
10679SOL    HW133478   6.416   3.345  12.273  0.6363 -0.2386  0.7219
10679SOL    HW233479   6.339   3.471  12.307  0.3451 -0.4057  0.6833
10680SOL     OW33480   5.021   6.971   5.237  0.8764 -0.2114 -0.3504
10680SOL    HW133481   5.103   6.958   5.188  2.4169  0.5851  1.8363
10680SOL    HW233482   5.049   7.013   5.319 -1.5497 -1.3685  1.1696
10681SOL     OW33483   6.529   1.260   2.530 -0.2440  0.3917 -0.0642
10681SOL    HW133484   6.439   1.237   2.552 -0.3013  0.1285 -0.5639
10681SOL    HW233485   6.561   1.307   2.607 -0.4054 -0.5918  0.6150
10682SOL     OW33486   1.526   4.264  10.064  0.1635  0.2998  0.6052
10682SOL    HW133487   1.594   4.270   9.996 -0.4980  0.4142 -0.0570
10682SOL    HW233488   1.514   4.355  10.093  0.5837  0.2248  1.0098
10683SOL     OW33489   1.889   3.461   0.495  0.7019  0.3862  0.3171
10683SOL    HW133490   1.976   3.480   0.459  1.5059  0.0341  1.9701
10683SOL    HW233491   1.877   3.368   0.481  0.0175  0.6564 -1.0392
10684SOL     OW33492   7.373   0.086   9.422 -0.1087  0.1671  0.4098
10684SOL    HW133493   7.370   0.144   9.346  0.1833  0.1186  0.3612
10684SOL    HW233494   7.281   0.064   9.439 -0.1999  0.4388  0.2716
10685SOL     OW33495   5.353   4.400   4.745 -0.1619 -0.0404 -0.1712
10685SOL    HW133496   5.310   4.382   4.828 -0.2429  0.4550 -0.1034
10685SOL    HW233497   5.292   4.368   4.679 -0.3117  0.0017 -0.0532
10686SOL     OW33498   4.722   1.284   1.862  0.2908  0.2161 -0.7241
10686SOL    HW133499   4.756   1.363   1.905  0.5669  0.0327 -0.5985
10686SOL    HW233500   4.761   1.212   1.912 -0.3737 -0.0012 -0.5050
10687SOL     OW33501   4.002   0.309  10.189 -0.0294 -0.1060  0.4574
10687SOL    HW133502   3.909   0.324  10.175 -0.2079 -0.2845  1.3849
10687SOL    HW233503   4.015   0.216  10.170 -0.4186 -0.5308  2.1018
10688SOL     OW33504   1.814   7.878   7.380 -0.4653 -0.3284 -0.2500
10688SOL    HW133505   1.909   7.877   7.388 -0.4331 -1.2640 -0.6074
10688SOL    HW233506   1.792   7.794   7.340 -1.3176  0.5652 -1.7542
10689SOL     OW33507   3.587   6.239   6.854 -0.4368 -0.2617  0.8283
10689SOL    HW133508   3.548   6.276   6.775 -0.8510  2.2730  2.1385
10689SOL    HW233509   3.619   6.153   6.826 -0.9051  0.3719 -1.9783
10690SOL     OW33510   0.661   4.415   9.297  0.1052  0.0614 -0.0910
10690SOL    HW133511   0.578   4.464   9.303  0.3625  0.4225  0.7340
10690SOL    HW233512   0.728   4.482   9.284  0.3313 -0.1717 -0.1357
10691SOL     OW33513   1.387   3.415  12.123 -0.2840 -0.4602  0.7018
10691SOL    HW133514   1.381   3.330  12.078 -0.6785 -0.2168  0.2924
10691SOL    HW233515   1.308   3.462  12.097  0.5239  0.5206 -0.0752
10692SOL     OW33516   7.203   5.817   1.372 -0.2253 -0.2771 -0.0388
10692SOL    HW133517   7.206   5.769   1.455 -1.9791  0.2378  0.3684
10692SOL    HW233518   7.269   5.775   1.318  2.6851  0.8484  2.3646
10693SOL     OW33519   6.216   3.568   2.981 -0.2982 -0.2525 -0.0541
10693SOL    HW133520   6.166   3.598   3.057  1.4175 -0.2592  1.1293
10693SOL    HW233521   6.155   3.577   2.907 -1.5627  1.0744  1.0906
10694SOL     OW33522   3.725   5.589   6.685  0.2533 -0.4839 -0.0097
10694SOL    HW133523   3.685   5.518   6.633 -0.9921  0.3155 -0.1851
10694SOL    HW233524   3.737   5.550   6.772  0.6246 -1.2495 -0.3870
10695SOL     OW33525   1.446   7.356   5.529  0.2112  0.2504  0.2082
10695SOL    HW133526   1.465   7.272   5.570 -0.9043 -0.9005 -1.4826
10695SOL    HW233527   1.363   7.385   5.569  0.0732  0.0384  0.0767
10696SOL     OW33528   1.831   7.501   4.892 -0.3109 -0.3312 -0.0274
10696SOL    HW133529   1.762   7.565   4.877 -1.6836 -1.8790 -0.5256
10696SOL    HW233530   1.790   7.416   4.878  1.5629 -1.3390  0.1814
10697SOL     OW33531   4.496   6.522   2.701  0.0069  0.0389 -0.2578
10697SOL    HW133532   4.408   6.485   2.689 -0.2790 -0.1010  1.8891
10697SOL    HW233533   4.482   6.600   2.754  0.9484  1.5916 -2.1498
10698SOL     OW33534   4.041   4.923   0.511  0.4550 -0.2642  0.3410
10698SOL    HW133535   4.050   5.013   0.543  1.0514  0.4285 -1.6323
10698SOL    HW233536   3.953   4.918   0.474  1.5375  0.6552 -2.6461
10699SOL     OW33537   0.092   2.554   8.826  0.4134  0.2528  0.3708
10699SOL    HW133538   0.064   2.601   8.747 -0.1439  1.9340  1.5040
10699SOL    HW233539   0.095   2.622   8.894 -0.3972 -1.3683  2.1033
10700SOL     OW33540   1.228   1.084   1.855 -0.1557 -0.8776 -0.8179
10700SOL    HW133541   1.145   1.060   1.895  1.2088 -4.0584  0.4501
10700SOL    HW233542   1.206   1.104   1.764 -2.2322 -2.1647 -0.6639
10701SOL     OW33543   6.408   6.433   4.330  0.0496  0.4777  0.1277
10701SOL    HW133544   6.459   6.489   4.388 -1.6053 -0.1556  2.3310
10701SOL    HW233545   6.361   6.374   4.389  1.3163 -2.9625 -1.9927
10702SOL     OW33546   7.722   1.029   1.891  0.3472 -0.0528 -0.0827
10702SOL    HW133547   7.762   1.102   1.844 -0.9683  0.8155  0.1016
10702SOL    HW233548   7.681   1.069   1.967  0.1201 -1.0814  0.3548
10703SOL     OW33549   3.917   0.645   1.186  0.9105 -0.1343  0.2246
10703SOL    HW133550   3.865   0.708   1.236  0.3733  0.8130 -1.4175
10703SOL    HW233551   3.967   0.597   1.251 -1.8817 -0.9783  1.9008
10704SOL     OW33552   7.337   5.063   0.192  0.4906  0.5911 -0.4223
10704SOL    HW133553   7.322   5.157   0.177 -1.4618  0.1715 -1.5147
10704SOL    HW233554   7.329   5.052   0.286 -0.0829  1.4336 -0.3568
10705SOL     OW33555   3.813   3.067   3.415  0.2889  0.5464  0.5013
10705SOL    HW133556   3.877   3.080   3.344  0.7376  1.6183  1.0752
10705SOL    HW233557   3.858   3.009   3.477 -0.0751 -0.3311 -0.0415
10706SOL     OW33558   2.113   2.880   7.860  0.2132 -0.0760 -0.3021
10706SOL    HW133559   2.069   2.806   7.901 -0.3544  1.5120  2.1622
10706SOL    HW233560   2.205   2.871   7.887 -0.0423  0.6184  0.8649
10707SOL     OW33561   7.764   6.601   6.745 -0.4933  0.1325 -0.7325
10707SOL    HW133562   7.690   6.541   6.747 -0.7312  0.3963 -1.2718
10707SOL    HW233563   7.812   6.577   6.666  0.6519 -0.7929  0.2168
10708SOL     OW33564   0.525   2.471   0.301 -0.2028 -0.0608 -0.4989
10708SOL    HW133565   0.588   2.455   0.371  1.8676 -0.2744 -2.2727
10708SOL    HW233566   0.514   2.566   0.300 -1.1057 -0.1416  0.7824
10709SOL     OW33567   0.011   3.927   0.070  0.2036 -0.5725  0.0236
10709SOL    HW133568  -0.069   3.979   0.077  0.8505  0.6103 -0.8647
10709SOL    HW233569  -0.019   3.837   0.063 -1.0603 -0.1318 -0.5192
10710SOL     OW33570   1.061   1.574   6.461  0.3426 -0.5671  0.2446
10710SOL    HW133571   1.103   1.569   6.546  0.3997 -0.1309  0.2465
10710SOL    HW233572   1.122   1.625   6.407  0.6075 -1.3893 -0.2451
10711SOL     OW33573   0.825   3.355   0.947  0.1514  0.0159 -0.2433
10711SOL    HW133574   0.812   3.449   0.935  1.4486  0.5224  1.8962
10711SOL    HW233575   0.754   3.329   1.007  0.6780 -0.0386  0.3662
10712SOL     OW33576   5.092   5.312   5.525  0.3706 -0.0106  0.5515
10712SOL    HW133577   5.180   5.283   5.551  0.3065  0.5455  1.4375
10712SOL    HW233578   5.081   5.278   5.437  1.5605  0.0700  0.3490
10713SOL     OW33579   7.898   5.485   0.822  0.0389 -0.1888  0.3030
10713SOL    HW133580   7.973   5.450   0.773 -0.4673 -1.4252  0.3869
10713SOL    HW233581   7.858   5.549   0.763 -0.5428 -1.6248 -0.9004
10714SOL     OW33582   0.030   5.470  12.017 -0.0218 -0.1164  0.0306
10714SOL    HW133583  -0.024   5.538  11.977  1.3901  0.9065 -0.1985
10714SOL    HW233584   0.052   5.411  11.945  1.8446  1.2792 -0.6153
10715SOL     OW33585   1.596   5.385   3.575 -0.0858  0.2763 -0.2354
10715SOL    HW133586   1.560   5.459   3.624  0.4347  0.3797 -0.0093
10715SOL    HW233587   1.552   5.308   3.611  1.3441  0.1811  1.4378
10716SOL     OW33588   6.360   1.071   3.216 -0.1028 -0.1234 -0.2445
10716SOL    HW133589   6.365   1.165   3.234 -2.5533  0.0878 -0.2760
10716SOL    HW233590   6.301   1.065   3.140 -0.4010 -1.6942  0.0814
10717SOL     OW33591   1.999   3.144   6.103 -0.2251 -0.2916 -0.5184
10717SOL    HW133592   2.068   3.098   6.150  0.6761 -0.5286 -2.0042
10717SOL    HW233593   1.924   3.084   6.104  0.4927 -1.2226 -1.2528
10718SOL     OW33594   6.381   5.792  11.290 -0.2267 -0.4230  0.1990
10718SOL    HW133595   6.380   5.699  11.270  0.1844 -0.1853 -1.0008
10718SOL    HW233596   6.462   5.824  11.249 -0.8180  0.6269 -0.1715
10719SOL     OW33597   6.745   4.944   4.188 -0.3563  0.2636  0.2184
10719SOL    HW133598   6.655   4.974   4.182 -0.1219  0.8362 -0.5764
10719SOL    HW233599   6.738   4.851   4.208 -1.1100  0.4388  0.7885
10720SOL     OW33600   0.977   1.149   4.322 -0.3379 -0.0198 -0.0909
10720SOL    HW133601   1.043   1.218   4.319  1.4075 -1.6610 -1.1854
10720SOL    HW233602   0.913   1.181   4.386  1.7970  1.3735  1.5050
10721SOL     OW33603   5.730   3.698   8.139 -0.0476  0.0523 -0.0128
10721SOL    HW133604   5.642   3.707   8.175 -0.6897 -2.1465 -0.8362
10721SOL    HW233605   5.728   3.748   8.057 -0.5423 -0.0158 -0.0427
10722SOL     OW33606   4.932   7.848   7.574 -0.5630 -0.1738  0.1470
10722SOL    HW133607   4.969   7.793   7.643 -0.5216  0.3875  0.5860
10722SOL    HW233608   5.008   7.881   7.526 -0.2753  2.2368  2.0046
10723SOL     OW33609   0.361   0.733  10.088  0.2154 -0.0895 -0.1312
10723SOL    HW133610   0.294   0.720  10.155  0.4344  1.3149  0.3938
10723SOL    HW233611   0.432   0.674  10.114 -0.1392 -0.3571  0.2511
10724SOL     OW33612   1.224   2.232   0.021 -0.2378  0.1658 -0.1187
10724SOL    HW133613   1.269   2.249  -0.062 -0.3660  0.2353 -0.1742
10724SOL    HW233614   1.185   2.145   0.009  0.0684  0.0066  0.0106
10725SOL     OW33615   4.778   6.398   3.837 -0.6339 -0.4567  0.4746
10725SOL    HW133616   4.808   6.378   3.925 -1.3911 -0.5364  0.7236
10725SOL    HW233617   4.686   6.423   3.848 -0.4775  0.4529 -0.1717
10726SOL     OW33618   6.779   0.169   6.331  0.0590 -0.3323  0.2019
10726SOL    HW133619   6.834   0.224   6.386  0.1753 -0.5026  0.2571
10726SOL    HW233620   6.725   0.230   6.281  0.9601 -0.1258 -0.5495
10727SOL     OW33621   6.526   4.626   6.414  0.0641  0.1481 -0.3209
10727SOL    HW133622   6.502   4.653   6.325 -1.5997  2.1806  0.6817
10727SOL    HW233623   6.444   4.623   6.462  1.0377  0.0518  1.4389
10728SOL     OW33624   5.422   2.222   6.863 -0.5986 -0.2874  0.2146
10728SOL    HW133625   5.444   2.144   6.913  1.4981 -0.8527 -1.4541
10728SOL    HW233626   5.503   2.273   6.862 -1.0759  0.4765 -1.2142
10729SOL     OW33627   0.184   2.507  12.440 -0.4850 -0.5224  0.3585
10729SOL    HW133628   0.232   2.546  12.513 -0.5357 -0.6319  0.4526
10729SOL    HW233629   0.213   2.555  12.363 -1.0183  0.1251  0.5540
10730SOL     OW33630   0.871   2.486   9.307  0.3997 -0.0404  0.2092
10730SOL    HW133631   0.890   2.454   9.395 -1.2433  1.1914  1.0754
10730SOL    HW233632   0.919   2.569   9.301 -2.1112  1.6350  1.3385
10731SOL     OW33633   7.855   6.340   7.196 -0.0153 -0.1604  0.1437
10731SOL    HW133634   7.918   6.398   7.238 -0.0015 -1.5398  2.2008
10731SOL    HW233635   7.776   6.393   7.186  0.8321  0.9898 -0.6035
10732SOL     OW33636   6.243   7.528   3.266  0.0209 -0.1916 -0.5004
10732SOL    HW133637   6.258   7.519   3.172 -0.5455  0.8310 -0.7050
10732SOL    HW233638   6.312   7.587   3.296  1.3897 -2.0424  0.1084
10733SOL     OW33639   1.604   4.636   6.621  0.5377  0.2815 -0.1848
10733SOL    HW133640   1.605   4.686   6.703 -1.3338 -2.6430  1.8365
10733SOL    HW233641   1.529   4.671   6.573  0.5290  0.8161  0.2056
10734SOL     OW33642   4.464   2.915   8.371 -0.2587  0.4530 -0.2306
10734SOL    HW133643   4.517   2.986   8.405  0.2560 -0.7479  1.6265
10734SOL    HW233644   4.510   2.835   8.398 -1.5212 -0.6043 -1.0590
10735SOL     OW33645   5.255   2.096   3.590  0.1136  0.2642  0.0518
10735SOL    HW133646   5.173   2.049   3.605  0.2081  0.2027  0.3761
10735SOL    HW233647   5.289   2.061   3.508  0.0965 -0.1086  0.2054
10736SOL     OW33648   6.033   5.541  12.020  0.0527 -0.6188  0.1134
10736SOL    HW133649   6.111   5.491  11.996 -0.4067 -0.7131 -1.2167
10736SOL    HW233650   5.960   5.480  12.007 -0.2766 -0.4869  1.2080
10737SOL     OW33651   7.013   7.874   2.541 -1.1793 -0.5867 -0.2712
10737SOL    HW133652   6.963   7.883   2.622 -2.8418  4.4374 -1.4318
10737SOL    HW233653   7.103   7.894   2.566 -1.7698  1.5123  0.3993
10738SOL     OW33654   0.727   3.387   1.245  0.0262  0.3645 -0.1651
10738SOL    HW133655   0.660   3.320   1.231  0.4048 -0.0800  0.0827
10738SOL    HW233656   0.807   3.337   1.264  0.2606  0.8890  0.2763
10739SOL     OW33657   2.110   1.245   1.834  0.1614 -0.2997  0.4462
10739SOL    HW133658   2.167   1.309   1.875 -0.7524  0.3345  0.7693
10739SOL    HW233659   2.074   1.194   1.907 -0.1572 -0.2809  0.3073
10740SOL     OW33660   1.627   1.357   7.760 -0.3044  0.1314 -0.2169
10740SOL    HW133661   1.553   1.402   7.717  1.2693  1.3341 -1.8019
10740SOL    HW233662   1.689   1.427   7.779 -0.5794 -0.4688  3.4721
10741SOL     OW33663   3.312   0.310  10.584 -0.3293  0.1402  0.2808
10741SOL    HW133664   3.298   0.285  10.675  0.7685  1.1980  0.7550
10741SOL    HW233665   3.371   0.243  10.550  2.6528  1.9152  1.5653
10742SOL     OW33666   6.852   2.981  12.456 -0.1690 -0.1504 -0.2735
10742SOL    HW133667   6.861   3.069  12.421  0.6545  0.4643  1.3640
10742SOL    HW233668   6.822   2.994  12.546 -0.3258 -1.5619 -0.0901
10743SOL     OW33669   7.055   4.555   9.608 -0.4995  0.1468 -0.1102
10743SOL    HW133670   7.000   4.476   9.602 -0.5600  0.1496  0.3973
10743SOL    HW233671   6.992   4.627   9.616 -0.6664  0.6958 -4.0433
10744SOL     OW33672   0.074   4.384   8.747  0.0547 -0.0102 -0.3520
10744SOL    HW133673  -0.021   4.376   8.746 -0.0137  0.5579 -2.3438
10744SOL    HW233674   0.107   4.301   8.712  0.3330 -0.3265  0.6164
10745SOL     OW33675   1.013   1.923   8.404 -0.2476  0.0087 -0.1932
10745SOL    HW133676   0.931   1.884   8.431 -0.6141  0.5660 -0.4657
10745SOL    HW233677   1.007   1.927   8.308 -1.0173  2.3437 -0.1131
10746SOL     OW33678   4.418   6.153   0.004  0.5901  0.5197  0.0330
10746SOL    HW133679   4.486   6.220  -0.008  2.9459 -1.8553 -1.0493
10746SOL    HW233680   4.440   6.113   0.088  0.5711 -0.2804 -0.3365
10747SOL     OW33681   3.527   1.903   2.039  0.9425 -0.3305 -0.4411
10747SOL    HW133682   3.567   1.934   2.120 -0.1600  1.6215 -0.5948
10747SOL    HW233683   3.509   1.810   2.056  1.7912 -0.2489  1.0939
10748SOL     OW33684   0.869   1.013   3.956  0.0546 -0.4627 -0.2144
10748SOL    HW133685   0.947   0.986   3.907  2.0489  0.0728  2.4770
10748SOL    HW233686   0.868   1.109   3.948  0.2128 -0.3981  0.4836
10749SOL     OW33687   4.010   3.841   1.127  0.3778  0.1909  0.3307
10749SOL    HW133688   4.063   3.805   1.056 -0.4649  0.3867 -0.4168
10749SOL    HW233689   3.936   3.780   1.135 -0.4451  1.0861 -0.1560
10750SOL     OW33690   3.965   3.115  12.036  0.2019 -0.2715 -0.1147
10750SOL    HW133691   3.925   3.036  12.000  1.2421  0.0983 -2.2606
10750SOL    HW233692   3.950   3.182  11.968 -0.6576  1.3984  1.6397
10751SOL     OW33693   7.324   5.794   6.626  0.6373  0.4714 -0.1258
10751SOL    HW133694   7.339   5.864   6.562 -0.3033  1.2371  0.4566
10751SOL    HW233695   7.291   5.721   6.574 -1.5355  1.5563 -0.4194
10752SOL     OW33696   6.637   7.528   6.031 -0.0441  0.6057  0.0827
10752SOL    HW133697   6.579   7.595   6.065  0.5027  1.5942 -0.8474
10752SOL    HW233698   6.707   7.577   5.987 -0.5000 -0.5548 -2.0843
10753SOL     OW33699   3.968   7.920   4.146 -0.4207  0.2100  0.0059
10753SOL    HW133700   3.940   7.986   4.210 -0.3067 -0.4623  0.7617
10753SOL    HW233701   4.053   7.890   4.177 -0.7687 -0.7718  0.0466
10754SOL     OW33702   0.024   4.827   3.315 -0.4981  0.3779 -0.0145
10754SOL    HW133703   0.042   4.878   3.394 -1.1075 -0.4173  0.6442
10754SOL    HW233704  -0.054   4.868   3.277 -0.0340  0.9445 -0.3790
10755SOL     OW33705   5.837   0.102   1.105  0.0720  0.2027 -0.6272
10755SOL    HW133706   5.859   0.055   1.025 -0.7378 -0.4207 -0.4986
10755SOL    HW233707   5.749   0.137   1.090  0.4518  1.2517 -0.5215
10756SOL     OW33708   6.859   7.125   6.129  0.1072 -0.3262  0.8769
10756SOL    HW133709   6.780   7.150   6.081 -0.1260  0.1057  1.4686
10756SOL    HW233710   6.831   7.051   6.183 -0.1067  0.2914  1.6396
10757SOL     OW33711   7.957   5.414   9.108 -0.4253 -0.1134 -0.1162
10757SOL    HW133712   7.876   5.418   9.158  0.1075  1.8842  0.6557
10757SOL    HW233713   7.990   5.325   9.123 -2.0268 -0.6760  0.2271
10758SOL     OW33714   5.507   3.432   3.601 -0.6165  0.4359 -0.3829
10758SOL    HW133715   5.497   3.523   3.629  2.8288  0.2999  1.9353
10758SOL    HW233716   5.535   3.439   3.510  2.9561  2.1215  0.6533
10759SOL     OW33717   7.039   4.397  11.928  0.1565  0.4214 -0.3307
10759SOL    HW133718   6.974   4.356  11.985 -0.4212 -0.6323 -1.7050
10759SOL    HW233719   7.056   4.482  11.969  0.1876 -0.4991  1.7152
10760SOL     OW33720   7.334   0.991   4.831  0.2701 -0.4175  0.0611
10760SOL    HW133721   7.265   0.947   4.782  0.3371 -0.7706  0.2883
10760SOL    HW233722   7.390   0.921   4.864 -0.1023 -0.2104  1.1497
10761SOL     OW33723   6.985   3.727   5.757 -0.3141 -0.3077  0.0338
10761SOL    HW133724   7.006   3.634   5.756 -0.1272 -0.3549  2.4666
10761SOL    HW233725   6.889   3.730   5.753 -0.3218 -0.5958 -0.0061
10762SOL     OW33726   5.669   2.125  10.894  0.2643  0.5068 -0.1286
10762SOL    HW133727   5.595   2.114  10.954  0.1889 -0.9659 -0.4536
10762SOL    HW233728   5.734   2.173  10.945 -0.6961  1.3598  0.3370
10763SOL     OW33729   7.526   0.246   6.240  0.2208  0.6093  0.4223
10763SOL    HW133730   7.525   0.186   6.315 -2.3744 -0.3512 -0.2711
10763SOL    HW233731   7.553   0.191   6.166  0.9349  1.0928  0.3171
10764SOL     OW33732   4.476   0.781  10.082 -0.5121 -0.2078  0.0934
10764SOL    HW133733   4.570   0.767  10.075 -0.9466 -2.7255 -2.2451
10764SOL    HW233734   4.459   0.858  10.028  0.1468  0.0024  0.1846
10765SOL     OW33735   5.263   3.938  10.799 -0.1760 -0.2887  0.0776
10765SOL    HW133736   5.254   3.943  10.704 -1.1575 -1.4232  0.0837
10765SOL    HW233737   5.198   3.998  10.834  0.0099 -0.0636  0.0369
10766SOL     OW33738   4.531   4.901   0.687 -0.3636  0.0659 -0.4105
10766SOL    HW133739   4.555   4.992   0.674 -0.2971  0.3222  1.2945
10766SOL    HW233740   4.588   4.852   0.628  2.1490  0.8985  1.1902
10767SOL     OW33741   2.619   2.506   7.442 -0.8255  0.7542 -0.1473
10767SOL    HW133742   2.708   2.506   7.407 -0.7906  0.0973 -0.0756
10767SOL    HW233743   2.610   2.591   7.484  0.5908 -0.0078  1.8865
10768SOL     OW33744   5.906   4.127   1.960  0.2979  0.4116  0.0399
10768SOL    HW133745   5.829   4.118   2.015 -0.2553 -0.3300 -0.8424
10768SOL    HW233746   5.979   4.105   2.018 -0.0948  1.5664  1.0012
10769SOL     OW33747   6.893   4.448   3.192  0.1352 -0.7515  0.4317
10769SOL    HW133748   6.889   4.397   3.111 -0.2757 -0.4803  0.2751
10769SOL    HW233749   6.891   4.539   3.163 -0.7172 -0.6521  0.7661
10770SOL     OW33750   2.985   0.207   8.433 -0.1020 -0.1493  0.1431
10770SOL    HW133751   2.975   0.233   8.525 -0.9740 -0.0206  0.0175
10770SOL    HW233752   3.062   0.255   8.403 -0.1476  0.2506  0.6477
10771SOL     OW33753   6.377   0.412   2.926 -0.7234  0.0762  0.3267
10771SOL    HW133754   6.349   0.322   2.914  0.5465 -0.3993  0.7342
10771SOL    HW233755   6.372   0.451   2.839  0.8449 -1.0458 -0.3104
10772SOL     OW33756   1.508   1.875   3.745  0.4710 -0.1882  1.0487
10772SOL    HW133757   1.513   1.853   3.652 -0.1161 -0.9772  1.1910
10772SOL    HW233758   1.497   1.791   3.789  0.1254  0.2276  1.7833
10773SOL     OW33759   6.269   5.899  10.377 -0.3941 -0.1456  0.0824
10773SOL    HW133760   6.245   5.841  10.305 -0.2271  0.2538 -0.3006
10773SOL    HW233761   6.266   5.843  10.455  0.1925 -0.7653 -0.3322
10774SOL     OW33762   2.208   1.037   2.139  0.0605  0.1047  0.4486
10774SOL    HW133763   2.299   1.024   2.166 -0.1073 -0.0017  0.9624
10774SOL    HW233764   2.192   1.130   2.155  0.3004  0.2886 -0.3276
10775SOL     OW33765   2.432   3.341   9.515  0.5877  0.3371  0.3774
10775SOL    HW133766   2.462   3.265   9.565  0.8275  0.8015  0.9632
10775SOL    HW233767   2.456   3.416   9.570  2.5097  0.9963 -1.2486
10776SOL     OW33768   2.549   5.941   4.839  0.0414  0.0175  0.1447
10776SOL    HW133769   2.580   5.877   4.904  0.8621  0.6639  0.3997
10776SOL    HW233770   2.453   5.936   4.846  0.0700 -1.5895 -0.2489
10777SOL     OW33771   3.852   0.827   4.175 -0.3541  0.1086  0.0530
10777SOL    HW133772   3.845   0.840   4.081 -1.5778 -2.2833 -0.2499
10777SOL    HW233773   3.932   0.874   4.200  0.8855 -0.5310 -2.4152
10778SOL     OW33774   1.834   4.730   7.712 -0.0342 -0.8044 -0.0550
10778SOL    HW133775   1.765   4.757   7.652  0.6876 -0.1837 -0.6292
10778SOL    HW233776   1.839   4.801   7.776 -0.7495 -1.4282  0.7127
10779SOL     OW33777   5.621   0.084   7.446  0.0666  0.4522 -0.4997
10779SOL    HW133778   5.659   0.171   7.458  0.2332  0.3476 -0.2510
10779SOL    HW233779   5.527   0.098   7.455  0.0214  0.7571 -1.4029
10780SOL     OW33780   1.919   3.228  12.373 -0.5627  0.3743  0.0106
10780SOL    HW133781   1.909   3.322  12.361 -0.0849  0.4557  0.2429
10780SOL    HW233782   1.907   3.214  12.467  2.2057  0.5883  0.4721
10781SOL     OW33783   0.247   0.290   5.426 -0.1276 -0.3747  0.1866
10781SOL    HW133784   0.278   0.376   5.453  0.4743 -0.8361  0.9864
10781SOL    HW233785   0.326   0.240   5.408 -0.4267 -1.1576  0.9803
10782SOL     OW33786   3.703   2.225   4.991  0.2378  0.5584  0.4219
10782SOL    HW133787   3.660   2.141   4.973 -2.2191  1.8678 -0.3309
10782SOL    HW233788   3.710   2.267   4.905  0.4559  1.5388  0.9036
10783SOL     OW33789   1.306   5.687  12.475 -0.0569 -0.3149  0.0068
10783SOL    HW133790   1.356   5.619  12.430 -4.7515 -2.4017 -2.6556
10783SOL    HW233791   1.301   5.759  12.412  0.0024  0.1542  0.5224
10784SOL     OW33792   0.171   4.580   2.930  0.6081  0.5360 -0.2639
10784SOL    HW133793   0.189   4.665   2.971 -0.8870  1.2312 -0.9928
10784SOL    HW233794   0.128   4.529   2.999  2.5253 -0.0807  0.5405
10785SOL     OW33795   5.930   4.672  11.838  0.5774  0.4556 -0.0677
10785SOL    HW133796   5.876   4.686  11.916 -1.0684  1.2741 -1.2795
10785SOL    HW233797   6.017   4.701  11.863 -0.1425  1.6738  1.1713
10786SOL     OW33798   1.405   4.242   8.693 -0.1164 -0.0373 -0.5499
10786SOL    HW133799   1.446   4.253   8.778  0.4160  0.2392 -0.8370
10786SOL    HW233800   1.409   4.147   8.676 -2.3834 -0.4441  0.7763
10787SOL     OW33801   6.433   2.932   9.560  0.0429  0.1022 -0.5483
10787SOL    HW133802   6.519   2.928   9.518 -0.5377 -0.1561 -1.7684
10787SOL    HW233803   6.403   2.841   9.561 -0.2876  0.2143 -0.2899
10788SOL     OW33804   2.900   4.844   4.985  0.3311  0.1771 -0.2677
10788SOL    HW133805   2.829   4.820   5.045  0.1375 -0.7550 -0.8337
10788SOL    HW233806   2.969   4.879   5.040  0.7351 -1.9698  0.6949
10789SOL     OW33807   1.041   1.129   8.986 -0.0366 -1.0350  0.0516
10789SOL    HW133808   1.074   1.055   9.036  1.2283 -0.8518 -0.4749
10789SOL    HW233809   1.112   1.152   8.926  0.3405  1.7083  1.3530
10790SOL     OW33810   4.094   1.693  10.551 -0.2575 -0.1882 -0.3272
10790SOL    HW133811   4.180   1.667  10.518  0.0809  0.0528  0.3420
10790SOL    HW233812   4.086   1.648  10.635  0.2584  1.6718  0.7602
10791SOL     OW33813   7.097   0.258   0.131  0.0954 -0.4104 -0.5800
10791SOL    HW133814   7.156   0.327   0.100 -0.6708  0.6993  0.3641
10791SOL    HW233815   7.155   0.183   0.146  0.9126 -0.0675 -1.8296
10792SOL     OW33816   1.870   5.119   0.292  0.0754 -0.3595 -0.6746
10792SOL    HW133817   1.883   5.027   0.269  0.2720 -0.1089 -1.6411
10792SOL    HW233818   1.812   5.152   0.224 -0.2290  0.1593 -0.1663
10793SOL     OW33819   6.418   7.658   0.988 -0.0445 -0.1016  0.1820
10793SOL    HW133820   6.474   7.714   0.933  0.4464  0.6626  1.4252
10793SOL    HW233821   6.360   7.718   1.033 -3.6901 -0.9641 -2.8174
10794SOL     OW33822   0.274   6.999   2.108  0.3155  0.3091 -0.1481
10794SOL    HW133823   0.271   7.086   2.148  1.4929  0.5623 -0.5563
10794SOL    HW233824   0.256   7.015   2.015 -0.6535 -0.0497 -0.0315
10795SOL     OW33825   2.250   1.517   9.109 -0.3501  0.1447 -0.2576
10795SOL    HW133826   2.336   1.480   9.130 -0.3197  0.3530 -0.0026
10795SOL    HW233827   2.196   1.499   9.186 -0.8691 -0.9696 -0.8583
10796SOL     OW33828   2.464   6.783   9.060  1.0672 -0.1952  0.2368
10796SOL    HW133829   2.527   6.712   9.065  1.4557  0.1129 -0.1315
10796SOL    HW233830   2.378   6.740   9.062  1.2898 -0.6291  0.5391
10797SOL     OW33831   1.433   0.586   5.436 -0.0321 -0.4040 -0.3474
10797SOL    HW133832   1.431   0.492   5.420  0.0625 -0.7601  1.5200
10797SOL    HW233833   1.479   0.595   5.520  0.0602  1.3161 -0.5509
10798SOL     OW33834   1.885   4.305   7.251  0.2364  0.1442 -0.5141
10798SOL    HW133835   1.869   4.373   7.316  0.4646  0.1348 -0.4473
10798SOL    HW233836   1.891   4.224   7.301  0.2855  0.1189 -0.5614
10799SOL     OW33837   2.689   0.698   6.701 -0.4044 -0.2915 -0.2908
10799SOL    HW133838   2.734   0.661   6.777 -2.3509 -0.4333  0.8798
10799SOL    HW233839   2.639   0.625   6.664 -0.5275  0.0801 -0.8868
10800SOL     OW33840   3.239   1.325   9.412 -0.4241 -0.3086 -0.6192
10800SOL    HW133841   3.178   1.313   9.339 -0.0545  2.5946 -1.5167
10800SOL    HW233842   3.231   1.244   9.463 -4.4748 -0.3741 -1.0474
10801SOL     OW33843   6.742   1.352  10.863 -0.3973  0.5635 -0.3543
10801SOL    HW133844   6.763   1.317  10.777 -0.7384  0.8249 -0.5474
10801SOL    HW233845   6.654   1.388  10.853 -0.2919  0.9265  0.0078
10802SOL     OW33846   7.106   2.673   6.435  0.3277  0.2262 -0.0356
10802SOL    HW133847   7.069   2.630   6.513  1.7588 -1.4187 -0.1883
10802SOL    HW233848   7.150   2.602   6.388  0.5182  1.4235 -1.7357
10803SOL     OW33849   4.729   7.962   2.477  0.5281 -0.0674 -0.1012
10803SOL    HW133850   4.776   8.043   2.495  0.4962  0.1786 -1.1128
10803SOL    HW233851   4.712   7.963   2.383 -1.7289 -0.0217  0.2372
10804SOL     OW33852   1.460   6.122  10.199 -0.3517  0.5702  0.1266
10804SOL    HW133853   1.509   6.045  10.228  0.8997  0.9783 -0.8336
10804SOL    HW233854   1.432   6.100  10.110 -1.5455  0.5235  0.5020
10805SOL     OW33855   7.670   3.702   9.854  0.4334 -0.3978 -0.3308
10805SOL    HW133856   7.689   3.670   9.766 -0.0058 -0.1617 -0.5178
10805SOL    HW233857   7.704   3.791   9.855  0.5497 -0.4439 -0.2219
10806SOL     OW33858   5.489   5.336   2.971  0.5506 -0.2109  0.2034
10806SOL    HW133859   5.475   5.422   2.932 -0.6722 -0.1348  0.7429
10806SOL    HW233860   5.565   5.347   3.027  0.2368  0.5993  0.4843
10807SOL     OW33861   2.633   3.161   9.647 -0.3401  0.0879  0.4580
10807SOL    HW133862   2.578   3.099   9.695  1.6909 -1.4813  0.9019
10807SOL    HW233863   2.689   3.200   9.714  0.7599 -0.2017 -0.2574
10808SOL     OW33864   2.087   0.673  10.982 -0.7578 -0.0254 -0.1423
10808SOL    HW133865   2.087   0.699  11.075  0.0419 -0.9889  0.1430
10808SOL    HW233866   2.001   0.700  10.950 -0.3606  2.0556  0.3744
10809SOL     OW33867   5.672   1.292   0.830 -0.0848 -0.0644 -0.1606
10809SOL    HW133868   5.642   1.371   0.876  1.3419  0.4069  0.0274
10809SOL    HW233869   5.663   1.314   0.738 -0.8518 -0.1575 -0.1120
10810SOL     OW33870   2.204   7.698   4.885 -0.5980  0.6846  0.3177
10810SOL    HW133871   2.255   7.678   4.964  0.8631 -0.5646 -0.8753
10810SOL    HW233872   2.260   7.670   4.813 -2.4541  0.4942 -1.1265
10811SOL     OW33873   6.817   4.164   9.122 -0.1258 -0.2353 -0.0666
10811SOL    HW133874   6.832   4.195   9.033 -0.1944  0.9447  0.3182
10811SOL    HW233875   6.856   4.076   9.124  1.5949  0.4660 -0.7264
10812SOL     OW33876   1.898   0.033   5.824 -0.2631  1.1204  0.0147
10812SOL    HW133877   1.959   0.080   5.767  1.1153 -0.6238 -0.0531
10812SOL    HW233878   1.845  -0.020   5.764  0.2914  0.2793  0.2540
10813SOL     OW33879   2.317   2.859   5.636 -0.1805 -0.4216 -0.1386
10813SOL    HW133880   2.368   2.837   5.558 -0.2408 -1.3342  0.0782
10813SOL    HW233881   2.240   2.801   5.632 -0.9495  0.5645 -0.1882
10814SOL     OW33882   6.639   2.428   3.955  0.0890  0.3107  0.0032
10814SOL    HW133883   6.722   2.471   3.976 -1.0855  1.9164  1.7539
10814SOL    HW233884   6.588   2.495   3.910 -0.0037 -0.9391 -1.8610
10815SOL     OW33885   2.538   7.878   6.064  0.6856  0.5520 -0.2154
10815SOL    HW133886   2.461   7.933   6.078  0.3913 -0.3876  2.2987
10815SOL    HW233887   2.504   7.800   6.021  0.2475  0.2522  0.6515
10816SOL     OW33888   3.504   6.281   5.266  0.4936 -0.1935  0.0090
10816SOL    HW133889   3.419   6.323   5.282  0.0451 -1.1572  0.2117
10816SOL    HW233890   3.558   6.351   5.229 -0.0600  0.7105  0.8520
10817SOL     OW33891   6.538   6.330   5.290 -0.0367  0.0396  0.3982
10817SOL    HW133892   6.447   6.348   5.313 -0.9991 -0.6830 -2.4106
10817SOL    HW233893   6.561   6.400   5.228  1.5018  0.4571  1.3951
10818SOL     OW33894   6.523   3.585   2.047 -0.1139  0.6069  0.2160
10818SOL    HW133895   6.608   3.629   2.043 -0.1480  0.7200  0.7108
10818SOL    HW233896   6.524   3.539   2.131 -1.0834  1.7413  0.8905
10819SOL     OW33897   3.873   0.634   5.018 -0.0025  0.0067 -0.2637
10819SOL    HW133898   3.805   0.687   4.976  1.9588  2.3940 -0.6638
10819SOL    HW233899   3.944   0.632   4.955 -0.2762 -4.1567 -0.7100
10820SOL     OW33900   5.339   7.032   7.380  0.4212 -0.0471 -0.2587
10820SOL    HW133901   5.425   7.075   7.376  1.2235 -1.6545 -0.8060
10820SOL    HW233902   5.277   7.105   7.380  1.7785  1.1775  0.7273
10821SOL     OW33903   7.445   3.818   6.089 -0.3991  0.1865 -0.2202
10821SOL    HW133904   7.516   3.869   6.051  1.2429 -0.4315  1.8100
10821SOL    HW233905   7.388   3.796   6.015  0.3341  2.5246 -1.5677
10822SOL     OW33906   3.649   0.874   6.348 -0.5151  0.5049 -0.2173
10822SOL    HW133907   3.722   0.815   6.329 -0.6566  0.0603  0.5339
10822SOL    HW233908   3.571   0.818   6.341 -0.6370  0.5445  0.6966
10823SOL     OW33909   2.207   5.585   8.506 -0.0440  0.3042 -0.0582
10823SOL    HW133910   2.265   5.510   8.499 -0.9120 -0.5008  1.1322
10823SOL    HW233911   2.146   5.576   8.432  0.0239 -0.0022 -0.0763
10824SOL     OW33912   0.738   6.032  12.477  0.1481 -0.1586  0.1580
10824SOL    HW133913   0.676   6.054  12.407  0.9267  1.2169 -0.1228
10824SOL    HW233914   0.788   6.112  12.491  2.3727 -1.4157 -0.1164
10825SOL     OW33915   5.895   2.215  10.035 -0.3347  0.0671 -0.1210
10825SOL    HW133916   5.932   2.136  10.075  2.3329  2.1560  1.9439
10825SOL    HW233917   5.825   2.241  10.094 -0.6835 -0.3252 -0.3618
10826SOL     OW33918   7.883   2.931   3.053  0.3839  0.3527  0.4930
10826SOL    HW133919   7.858   2.847   3.013  1.0678  0.6602 -0.6350
10826SOL    HW233920   7.964   2.955   3.009  1.7128  0.2873  2.7525
10827SOL     OW33921   1.546   0.918  12.056 -0.1643 -0.2903  0.6565
10827SOL    HW133922   1.553   0.969  12.136 -0.5266  0.7338  0.0468
10827SOL    HW233923   1.625   0.864  12.055 -0.8096 -1.3464  2.3887
10828SOL     OW33924   4.790   5.945   9.141 -0.6099 -0.4327  0.3096
10828SOL    HW133925   4.866   5.957   9.085 -0.5323 -1.8715  0.0572
10828SOL    HW233926   4.716   5.940   9.081 -1.0184  1.5914  0.5951
10829SOL     OW33927   1.849   4.492   3.843 -0.0119 -0.6634 -0.7331
10829SOL    HW133928   1.922   4.468   3.785  0.3991 -0.3480 -0.3522
10829SOL    HW233929   1.785   4.422   3.831 -0.1752 -0.3229 -1.9845
10830SOL     OW33930   7.648   7.292   0.317 -0.0981  0.2167  0.0886
10830SOL    HW133931   7.731   7.288   0.269  0.3006 -2.5249  0.8123
10830SOL    HW233932   7.582   7.307   0.250  0.8463  1.3594 -0.6398
10831SOL     OW33933   2.779   3.294   9.811 -0.4927 -0.8810  0.0557
10831SOL    HW133934   2.760   3.282   9.904 -1.3971 -0.5817 -0.0762
10831SOL    HW233935   2.874   3.282   9.804  0.0229  1.7336  1.4375
10832SOL     OW33936   3.866   0.847   7.438 -0.3388 -0.3091  0.2956
10832SOL    HW133937   3.805   0.773   7.439  0.8001 -1.2745  1.0417
10832SOL    HW233938   3.824   0.913   7.383 -1.4148 -1.4841 -0.3192
10833SOL     OW33939   0.522   6.057  11.978 -0.0789  0.2924  0.0074
10833SOL    HW133940   0.441   6.098  11.946  0.1012  0.5366 -0.1294
10833SOL    HW233941   0.591   6.090  11.921 -0.1252 -1.3482 -1.0827
10834SOL     OW33942   5.126   4.881   3.185  0.0207 -0.1100 -0.1514
10834SOL    HW133943   5.121   4.918   3.096  0.6983  0.4060  0.0219
10834SOL    HW233944   5.058   4.928   3.233 -0.3933 -0.4363 -0.4060
10835SOL     OW33945   3.457   5.959   4.135 -0.0748 -0.2011 -0.3286
10835SOL    HW133946   3.469   5.963   4.040  0.5298 -1.7886 -0.3422
10835SOL    HW233947   3.455   5.866   4.156 -1.5427  0.0849  1.0777
10836SOL     OW33948   1.936   5.371   7.487 -0.1810 -0.3658  0.0476
10836SOL    HW133949   2.019   5.419   7.478 -0.2444 -0.5181 -1.7124
10836SOL    HW233950   1.959   5.281   7.464 -0.7341 -0.5287  0.1387
10837SOL     OW33951   4.977   0.924  11.761  0.3918 -0.4651 -0.1629
10837SOL    HW133952   4.891   0.942  11.723  0.9393 -0.1289 -1.2935
10837SOL    HW233953   5.001   0.837  11.728  1.1104  0.0582 -1.0773
10838SOL     OW33954   6.588   0.517   8.760 -0.2454  0.2381  0.5516
10838SOL    HW133955   6.554   0.506   8.672  0.7097  0.6965  0.1054
10838SOL    HW233956   6.664   0.460   8.764 -0.2257  0.2932  1.0423
10839SOL     OW33957   7.365   1.495   7.266  0.5631  0.0346 -0.0634
10839SOL    HW133958   7.383   1.411   7.308 -0.0388  0.2817  0.7129
10839SOL    HW233959   7.434   1.504   7.200  2.4194  0.2562  1.7910
10840SOL     OW33960   2.106   2.704  11.186  0.2127 -0.3041 -0.5460
10840SOL    HW133961   2.105   2.775  11.251  0.2967 -0.0556 -0.8129
10840SOL    HW233962   2.048   2.734  11.117  0.5613 -0.3206 -0.8454
10841SOL     OW33963   3.472   3.218   7.202 -0.7079  0.3895 -0.4644
10841SOL    HW133964   3.484   3.124   7.212  2.0075  0.8328  1.5994
10841SOL    HW233965   3.558   3.251   7.179 -1.5619  2.4077 -1.0169
10842SOL     OW33966   1.629   3.903   7.155 -0.3926 -0.4356 -0.0170
10842SOL    HW133967   1.612   3.809   7.157 -0.0116 -0.4981  0.3629
10842SOL    HW233968   1.568   3.939   7.220 -0.5480 -0.4155 -0.1718
10843SOL     OW33969   3.791   4.673   2.330  0.0838  0.1767  0.0581
10843SOL    HW133970   3.731   4.602   2.311 -1.1700  0.7939  1.5148
10843SOL    HW233971   3.743   4.752   2.306  0.4199  0.6670  0.9464
10844SOL     OW33972   1.034   3.745  11.870  0.6003 -0.0553 -0.2944
10844SOL    HW133973   0.953   3.734  11.820  1.1627 -0.9421 -1.0218
10844SOL    HW233974   1.070   3.828  11.838  0.5318 -0.2027 -0.7613
10845SOL     OW33975   7.452   7.389   8.386 -0.1126 -0.0897  0.2674
10845SOL    HW133976   7.460   7.402   8.291  0.3293  0.5557  0.3885
10845SOL    HW233977   7.376   7.442   8.411  0.8794  1.2241  0.5534
10846SOL     OW33978   3.816   2.895   3.633 -0.0563 -0.5632  0.2038
10846SOL    HW133979   3.807   2.846   3.551 -2.3767 -1.9033  1.1619
10846SOL    HW233980   3.727   2.899   3.668  0.5264  1.8920  1.6206
10847SOL     OW33981   2.398   0.798   7.859 -0.3016 -0.2775 -0.7824
10847SOL    HW133982   2.305   0.809   7.843 -0.2080 -0.6928 -1.6889
10847SOL    HW233983   2.440   0.840   7.783  0.2918  1.1259  0.2777
10848SOL     OW33984   7.838   1.525   8.184  0.0780  0.0181 -0.6001
10848SOL    HW133985   7.838   1.571   8.268  0.9467  0.6749 -0.9440
10848SOL    HW233986   7.774   1.572   8.131 -0.8134 -0.6841 -0.1665
10849SOL     OW33987   5.930   6.955  12.252  0.1126 -0.1607 -0.2180
10849SOL    HW133988   5.947   6.863  12.231 -1.0177 -0.0602 -1.6852
10849SOL    HW233989   5.837   6.958  12.274  0.3737  0.4697  0.8723
10850SOL     OW33990   4.513   6.346   8.048 -0.2991 -0.0943 -0.6331
10850SOL    HW133991   4.524   6.377   8.138 -0.4476  1.3359 -1.0820
10850SOL    HW233992   4.591   6.295   8.030 -1.0702 -1.9313  0.8852
10851SOL     OW33993   4.532   7.593   4.052 -0.3319  0.2039  0.5861
10851SOL    HW133994   4.620   7.625   4.032 -0.8609  1.2395 -0.1702
10851SOL    HW233995   4.522   7.516   3.995  0.4647 -0.5672  1.4590
10852SOL     OW33996   6.418   5.945  10.686 -0.1659  0.3510 -0.2729
10852SOL    HW133997   6.431   5.865  10.635 -0.3467  0.4294 -0.4447
10852SOL    HW233998   6.480   6.007  10.648  0.0085  0.2780 -0.1075
10853SOL     OW33999   0.560   7.529   3.609  0.1944 -0.5234 -0.4486
10853SOL    HW134000   0.469   7.542   3.636  0.2834  1.6109 -1.0188
10853SOL    HW234001   0.557   7.454   3.550 -1.4075  0.2088 -1.3530
10854SOL     OW34002   7.448   0.171   3.767 -0.2245  0.1206  0.0624
10854SOL    HW134003   7.396   0.221   3.830 -1.8218  0.8193 -1.6843
10854SOL    HW234004   7.520   0.230   3.744 -0.6842  0.6258 -0.1179
10855SOL     OW34005   4.848   1.673  11.468  0.4734  0.0896 -0.0784
10855SOL    HW134006   4.906   1.599  11.451  0.8644  0.7082 -1.6373
10855SOL    HW234007   4.885   1.716  11.545  2.2774  0.5869 -1.1446
10856SOL     OW34008   1.295   5.259   7.711 -0.2264 -0.2464  0.5121
10856SOL    HW134009   1.215   5.306   7.689 -1.0428 -2.1747 -0.9249
10856SOL    HW234010   1.348   5.263   7.631  0.0016 -1.0645  0.6077
10857SOL     OW34011   4.232   5.973  11.304  0.7562 -0.0233  0.1014
10857SOL    HW134012   4.179   6.017  11.237 -0.7533  0.3894  1.5126
10857SOL    HW234013   4.265   5.895  11.260 -0.5262  0.0256 -1.0265
10858SOL     OW34014   3.929   6.896   0.258  0.1969  0.3493 -0.1169
10858SOL    HW134015   3.934   6.815   0.308  0.2804  0.0356 -0.6295
10858SOL    HW234016   3.855   6.944   0.298 -0.4883 -0.4137 -0.4427
10859SOL     OW34017   0.576   3.535   1.998  0.8411 -0.4144 -0.1508
10859SOL    HW134018   0.494   3.537   2.048  0.8203  3.7588  0.0052
10859SOL    HW234019   0.554   3.489   1.918 -0.8115 -1.9442  1.0984
10860SOL     OW34020   3.383   5.743   0.778 -0.5796 -0.3526 -0.2074
10860SOL    HW134021   3.392   5.705   0.865 -0.5088  0.6335  0.2356
10860SOL    HW234022   3.301   5.793   0.782 -1.9254 -2.3027 -1.5061
10861SOL     OW34023   6.520   7.470   9.148 -0.1504  0.4786  0.1891
10861SOL    HW134024   6.602   7.422   9.163 -0.1804  0.5156  0.4809
10861SOL    HW234025   6.545   7.562   9.158 -0.2049  0.4957  0.1656
10862SOL     OW34026   5.721   7.743  11.863 -0.3152 -0.0655 -1.0653
10862SOL    HW134027   5.754   7.691  11.936  1.3810  2.8987  0.4299
10862SOL    HW234028   5.764   7.706  11.786 -0.7495 -2.1121 -0.3916
10863SOL     OW34029   2.093   2.759   4.727 -0.0716 -0.0747  0.1773
10863SOL    HW134030   2.118   2.745   4.636 -1.5318 -0.0234 -0.2649
10863SOL    HW234031   2.078   2.853   4.734 -0.5182 -0.1533  0.3129
10864SOL     OW34032   0.677   3.946   2.978 -0.5763  0.2439  0.0842
10864SOL    HW134033   0.594   3.992   2.988 -0.5339  1.1051 -2.6701
10864SOL    HW234034   0.744   4.013   2.989 -0.3553  0.0440 -0.0238
10865SOL     OW34035   6.361   3.981   6.774 -0.2505  0.1404  0.0728
10865SOL    HW134036   6.431   4.039   6.803 -0.3700  0.7761 -0.8555
10865SOL    HW234037   6.372   3.975   6.679  0.3142 -2.1129  0.2183
10866SOL     OW34038   6.777   3.347   9.934  0.7375 -0.0418 -0.1902
10866SOL    HW134039   6.771   3.401   9.855  1.9175 -0.3610 -0.5203
10866SOL    HW234040   6.808   3.262   9.902  0.5625 -0.3926  0.5400
10867SOL     OW34041   1.468   6.681  12.205  0.3342 -0.2166  0.1839
10867SOL    HW134042   1.428   6.736  12.273  0.7375 -0.3102  0.4990
10867SOL    HW234043   1.540   6.636  12.250  1.2491  0.4933 -0.5488
10868SOL     OW34044   2.927   4.756   4.347  0.9708 -0.0125  0.5432
10868SOL    HW134045   3.013   4.764   4.388  2.1191 -1.5563 -1.3825
10868SOL    HW234046   2.945   4.716   4.262 -1.3282  2.3722 -1.2089
10869SOL     OW34047   6.063   0.978  11.460 -0.6750  0.1281  0.2811
10869SOL    HW134048   6.053   1.058  11.511 -1.0617 -1.0485  2.1575
10869SOL    HW234049   6.122   1.002  11.389  0.2019  1.7720  1.4869
10870SOL     OW34050   6.107   0.082   7.863 -0.2042 -0.2464  0.4737
10870SOL    HW134051   6.093   0.168   7.823 -1.5786 -0.7248 -0.1288
10870SOL    HW234052   6.049   0.081   7.939  1.2176  0.0494  1.6100
10871SOL     OW34053   4.257   0.227  12.448  0.1618 -0.0777  0.1315
10871SOL    HW134054   4.305   0.144  12.451  2.0888  0.9915  2.6748
10871SOL    HW234055   4.173   0.208  12.491  0.8282 -0.5950  1.2356
10872SOL     OW34056   2.015   6.921   5.282  0.1127 -0.0681  0.5008
10872SOL    HW134057   2.102   6.884   5.269  0.0569 -0.0015 -0.0780
10872SOL    HW234058   1.986   6.946   5.194 -0.0116  0.9842  0.8260
10873SOL     OW34059   2.406   1.688   4.916  0.4887  0.0149  0.0114
10873SOL    HW134060   2.316   1.654   4.917  0.3238  0.4580  0.8769
10873SOL    HW234061   2.398   1.779   4.944  1.0959  0.3586 -0.8900
10874SOL     OW34062   1.182   1.596   9.384 -0.4657  0.0916 -0.1110
10874SOL    HW134063   1.245   1.592   9.312 -0.0164  0.5339  0.2473
10874SOL    HW234064   1.097   1.580   9.343 -0.0448 -1.3303 -0.4787
10875SOL     OW34065   7.888   1.758   3.113  0.6684  0.2002 -0.4314
10875SOL    HW134066   7.806   1.731   3.072  0.0014  0.3584  0.7199
10875SOL    HW234067   7.954   1.748   3.045 -0.2365 -0.3411 -1.2632
10876SOL     OW34068   5.108   7.035   1.704 -0.2065  0.2570  0.0942
10876SOL    HW134069   5.095   7.065   1.614  1.3432 -0.2628 -0.3209
10876SOL    HW234070   5.122   7.116   1.754  0.5016  0.4541 -0.4118
10877SOL     OW34071   2.120   5.956   0.717  0.3273  0.1829  0.6136
10877SOL    HW134072   2.164   5.917   0.793 -0.3257 -0.1752  0.8130
10877SOL    HW234073   2.041   5.904   0.706 -0.4176  1.2822  0.6916
10878SOL     OW34074   4.923   0.277   4.562  0.1268  0.0007 -0.3261
10878SOL    HW134075   4.933   0.208   4.497 -1.1892 -0.7268  0.2054
10878SOL    HW234076   4.970   0.352   4.525 -0.4549 -0.4315 -2.0413
10879SOL     OW34077   4.719   4.329  11.728  0.3076 -0.4014  0.2144
10879SOL    HW134078   4.667   4.375  11.794  2.7454  1.3946  1.0533
10879SOL    HW234079   4.755   4.399  11.674  1.7525 -1.5365 -0.3583
10880SOL     OW34080   5.164   7.246   3.968 -0.4500 -0.1038  0.2750
10880SOL    HW134081   5.174   7.326   3.917  0.6278  0.5838  1.5043
10880SOL    HW234082   5.104   7.192   3.917  0.7782  0.4342 -1.8403
10881SOL     OW34083   1.523   2.068   8.298  0.2841  0.4820  0.1874
10881SOL    HW134084   1.456   2.007   8.328 -0.0171  1.0656  0.7328
10881SOL    HW234085   1.568   2.022   8.227 -0.9393  0.2282 -0.4433
10882SOL     OW34086   2.054   1.875   6.811 -0.9559  0.1411  0.4357
10882SOL    HW134087   2.141   1.843   6.788 -0.9660  0.1019  0.4520
10882SOL    HW234088   2.071   1.947   6.872 -0.9316  0.2027  0.3563
10883SOL     OW34089   6.062   3.450   9.896  0.1140 -0.2373  0.6755
10883SOL    HW134090   6.006   3.372   9.895 -1.3228  0.7559  1.2782
10883SOL    HW234091   6.148   3.417   9.871 -0.1977 -2.2145  2.0119
10884SOL     OW34092   6.067   6.882   7.065  0.3936 -0.1092  0.0456
10884SOL    HW134093   5.986   6.852   7.023 -0.0813  0.1420  0.7475
10884SOL    HW234094   6.134   6.871   6.998 -0.3620  0.4331 -0.8279
10885SOL     OW34095   2.480   0.584   2.988  0.6049 -0.3849 -0.0893
10885SOL    HW134096   2.503   0.496   2.960 -1.8735 -1.5982  1.3009
10885SOL    HW234097   2.449   0.573   3.078 -0.7768  1.6908 -0.2376
10886SOL     OW34098   5.713   6.860   7.290  0.0976 -0.2478 -0.5298
10886SOL    HW134099   5.671   6.778   7.316 -0.4226  0.1856 -0.0118
10886SOL    HW234100   5.782   6.874   7.355 -1.6900  1.2336  1.1626
10887SOL     OW34101   5.674   3.611   0.477  0.7260 -0.3610  0.3837
10887SOL    HW134102   5.580   3.602   0.493 -0.5025  3.7688 -2.6188
10887SOL    HW234103   5.690   3.557   0.399  0.5969 -0.4306  0.4059
10888SOL     OW34104   6.454   0.392   9.046  0.1567 -0.2518 -0.3779
10888SOL    HW134105   6.517   0.411   8.976  1.8543 -1.9713  0.6023
10888SOL    HW234106   6.495   0.324   9.098 -2.5725 -1.5296  0.3033
10889SOL     OW34107   0.148   5.889  11.490  0.0156  0.4092  0.0138
10889SOL    HW134108   0.096   5.821  11.449 -1.0951  1.4853 -0.4299
10889SOL    HW234109   0.097   5.918  11.566  1.6694 -0.9879  1.7673
10890SOL     OW34110   6.059   2.440   9.305 -0.2548  0.1650  0.3072
10890SOL    HW134111   5.990   2.440   9.239  0.0963  0.5408 -0.0606
10890SOL    HW234112   6.100   2.526   9.297 -0.7655  0.5599  1.6056
10891SOL     OW34113   0.235   4.090   1.370 -0.0933  0.0976  0.1469
10891SOL    HW134114   0.166   4.130   1.424  0.8161 -0.5296  1.8612
10891SOL    HW234115   0.200   4.092   1.281 -2.7956 -1.0863  1.0545
10892SOL     OW34116   5.109   2.614  12.398  0.2992  0.0725  0.2561
10892SOL    HW134117   5.071   2.632  12.484 -0.3823  1.4108 -0.2851
10892SOL    HW234118   5.203   2.621  12.412  0.1706  1.1944  0.7418
10893SOL     OW34119   1.913   4.016   9.799  0.2116 -0.3003 -0.3632
10893SOL    HW134120   1.981   3.956   9.828  0.0784 -0.2292  0.1109
10893SOL    HW234121   1.921   4.092   9.858  0.3341  0.1164 -0.9049
10894SOL     OW34122   7.273   6.901   2.769 -0.3783 -0.1768 -0.2300
10894SOL    HW134123   7.245   6.911   2.678 -1.8775 -0.3524  0.1957
10894SOL    HW234124   7.319   6.817   2.771 -1.2676 -0.6907 -0.6273
10895SOL     OW34125   4.266   1.647   2.967  0.1992 -0.5384  0.5623
10895SOL    HW134126   4.194   1.696   3.006 -1.7234 -1.7513 -1.2626
10895SOL    HW234127   4.323   1.714   2.930 -2.1639  0.5096 -1.5402
10896SOL     OW34128   1.084   5.916   0.206 -0.4152  0.0967  0.5444
10896SOL    HW134129   1.097   5.958   0.120  0.1943 -1.0824  0.0435
10896SOL    HW234130   1.039   5.834   0.186  0.5181 -0.6063  1.2572
10897SOL     OW34131   2.652   7.444   1.904  0.4429 -0.3924  0.6497
10897SOL    HW134132   2.600   7.386   1.959 -2.2429 -0.4581 -1.6885
10897SOL    HW234133   2.670   7.520   1.959 -0.6842 -1.1299  2.1121
10898SOL     OW34134   1.876   7.981   6.624 -0.1272  0.0716 -0.0181
10898SOL    HW134135   1.821   7.961   6.549  0.6579  1.6404 -1.0542
10898SOL    HW234136   1.953   7.924   6.613 -0.1659  0.0557 -0.2068
10899SOL     OW34137   5.030   7.844   5.204  0.7848  0.4310 -0.3137
10899SOL    HW134138   5.090   7.771   5.218  1.2297  1.1101  1.7165
10899SOL    HW234139   4.979   7.819   5.127  2.5267 -0.9131 -1.0924
10900SOL     OW34140   1.187   3.870   7.201  0.2310  0.2274  0.3694
10900SOL    HW134141   1.191   3.915   7.285  1.0290  2.3500 -0.7476
10900SOL    HW234142   1.097   3.881   7.172 -0.2967 -1.3019  1.3055
10901SOL     OW34143   5.494   6.780   7.857 -0.0009  0.1584 -0.5631
10901SOL    HW134144   5.462   6.691   7.873  1.6278 -0.2475  0.7270
10901SOL    HW234145   5.422   6.824   7.813 -1.4497 -1.3383  0.2036
10902SOL     OW34146   6.986   3.349  10.343 -0.2899 -0.1290 -0.2196
10902SOL    HW134147   6.945   3.263  10.355  1.4570 -0.9938  0.0691
10902SOL    HW234148   6.927   3.410  10.387 -0.6473 -1.4625  1.2793
10903SOL     OW34149   3.377   2.282   6.329  0.0441 -0.0085 -0.1835
10903SOL    HW134150   3.340   2.329   6.254  2.1744 -0.9902 -1.9649
10903SOL    HW234151   3.316   2.209   6.344 -1.2177  1.0526  0.1081
10904SOL     OW34152   6.835   1.163   4.623 -0.1781 -0.5287  0.1516
10904SOL    HW134153   6.831   1.163   4.527 -1.8478 -0.0942  0.1981
10904SOL    HW234154   6.900   1.230   4.644  0.6218 -1.0151 -0.6606
10905SOL     OW34155   0.624   0.654   0.232 -0.7361  0.1555  0.7211
10905SOL    HW134156   0.684   0.657   0.158 -0.6124  1.4998  0.8594
10905SOL    HW234157   0.611   0.561   0.249  0.6809 -0.1529  0.1856
10906SOL     OW34158   3.988   4.184   5.574 -0.0235  0.5809  0.7078
10906SOL    HW134159   4.031   4.122   5.514 -1.0639 -3.0148  3.3180
10906SOL    HW234160   3.906   4.207   5.530  1.0771  1.4653 -0.9919
10907SOL     OW34161   4.421   6.616   3.231  0.3567  0.1457  0.0379
10907SOL    HW134162   4.483   6.672   3.278 -1.6996  2.5399  0.1494
10907SOL    HW234163   4.369   6.575   3.301 -0.8521  1.4894 -0.0088
10908SOL     OW34164   6.885   4.423   0.257 -0.4067  0.2398  0.2786
10908SOL    HW134165   6.829   4.386   0.326 -2.1658 -0.9864 -1.6820
10908SOL    HW234166   6.825   4.469   0.199  1.0326  1.3379 -0.4077
10909SOL     OW34167   2.146   7.584   0.853 -0.1726 -0.4108  0.0098
10909SOL    HW134168   2.073   7.553   0.906 -1.6636  1.5822 -0.7496
10909SOL    HW234169   2.216   7.603   0.916 -1.6086  1.1297  1.2231
10910SOL     OW34170   5.968   3.986   0.303  0.2528 -0.1724  0.0876
10910SOL    HW134171   5.929   4.066   0.339  0.5491 -0.1683  0.4046
10910SOL    HW234172   5.894   3.928   0.289 -0.2221  0.8474 -1.9927
10911SOL     OW34173   4.969   6.553   6.112  0.5502 -0.2452  0.6575
10911SOL    HW134174   4.878   6.554   6.141  0.6559 -0.6015  0.9935
10911SOL    HW234175   5.003   6.468   6.140  0.6975 -0.5354 -0.3628
10912SOL     OW34176   5.408   2.144   4.294 -0.2316 -0.6544 -0.0946
10912SOL    HW134177   5.496   2.160   4.328 -0.7476  1.9983  0.1995
10912SOL    HW234178   5.422   2.113   4.205  1.1193  3.5501 -1.5858
10913SOL     OW34179   1.640   3.319  10.486  0.4083  0.0406  0.6161
10913SOL    HW134180   1.566   3.375  10.511  1.0151  1.6059 -0.9585
10913SOL    HW234181   1.640   3.249  10.552 -2.1613  0.2585  0.9502
10914SOL     OW34182   2.909   4.341   8.206  0.2208 -0.2327 -0.3072
10914SOL    HW134183   2.893   4.427   8.246  0.9152 -0.4219  0.3985
10914SOL    HW234184   2.829   4.322   8.157 -0.5839  0.0785  0.8515
10915SOL     OW34185   6.335   2.878   8.762  0.1454  0.0462  0.4347
10915SOL    HW134186   6.343   2.955   8.819  0.4915  0.4239 -0.1241
10915SOL    HW234187   6.248   2.887   8.723  0.3319  0.3450  0.0893
10916SOL     OW34188   7.649   7.831  11.929  0.1143 -0.0800  0.2948
10916SOL    HW134189   7.614   7.829  12.018  2.2092 -1.3534  1.1600
10916SOL    HW234190   7.744   7.826  11.940  0.4707  0.5573 -2.0040
10917SOL     OW34191   4.684   6.532  12.325 -0.2656 -0.8617  0.4556
10917SOL    HW134192   4.665   6.594  12.254 -0.0688 -2.1516 -0.7639
10917SOL    HW234193   4.722   6.456  12.281  1.0459 -1.2031  2.0958
10918SOL     OW34194   2.204   1.411   0.793 -0.2442  0.5110  0.3399
10918SOL    HW134195   2.168   1.451   0.714 -0.4487  0.1821  0.2647
10918SOL    HW234196   2.197   1.317   0.777  0.2112  0.4468  0.5254
10919SOL     OW34197   5.853   3.606  12.065 -0.0784 -0.5871  0.2852
10919SOL    HW134198   5.837   3.568  11.978 -0.1361  0.2546 -0.0841
10919SOL    HW234199   5.867   3.699  12.048  2.0434 -0.7176  0.9187
10920SOL     OW34200   0.157   7.207   5.480  0.1029  0.1508  0.0366
10920SOL    HW134201   0.101   7.206   5.558  0.2618  2.5617  0.2577
10920SOL    HW234202   0.245   7.189   5.514 -0.1207 -1.0348  0.0494
10921SOL     OW34203   0.153   2.409   7.957  0.3702 -0.7339 -0.7599
10921SOL    HW134204   0.229   2.375   8.005  0.1523 -1.1347 -0.6926
10921SOL    HW234205   0.103   2.458   8.022  0.9545  0.1648 -0.9777
10922SOL     OW34206   0.827   3.379   2.268  0.5581 -0.4421  0.1753
10922SOL    HW134207   0.848   3.472   2.282  0.4750 -0.3958 -0.0076
10922SOL    HW234208   0.912   3.337   2.258  0.5665  0.1584 -3.2781
10923SOL     OW34209   5.453   7.806   2.909  0.2231 -0.0849  0.2724
10923SOL    HW134210   5.527   7.818   2.849  0.5243 -0.2109  0.6175
10923SOL    HW234211   5.392   7.752   2.860 -0.2015  1.0508 -0.4888
10924SOL     OW34212   5.973   6.200   8.527  0.5414  0.5729 -0.1046
10924SOL    HW134213   5.885   6.235   8.537  0.8474  1.4347 -0.3411
10924SOL    HW234214   5.985   6.143   8.603  0.0264  0.9804  0.2893
10925SOL     OW34215   6.940   6.356   0.484 -0.0622  0.0109 -0.2574
10925SOL    HW134216   7.034   6.355   0.505 -0.3025 -2.9083  1.0862
10925SOL    HW234217   6.897   6.355   0.570 -1.2646 -1.0675 -0.8484
10926SOL     OW34218   3.978   1.229   9.204  0.2523  0.0921 -0.4175
10926SOL    HW134219   4.055   1.222   9.147  1.6774  1.7753  1.1419
10926SOL    HW234220   3.908   1.259   9.146  1.5351  1.3186 -1.4227
10927SOL     OW34221   7.170   6.820   9.795  0.3571 -0.3269  0.4430
10927SOL    HW134222   7.187   6.749   9.733  0.1223 -1.7274  1.9138
10927SOL    HW234223   7.247   6.877   9.788  0.5310 -0.6837 -0.7891
10928SOL     OW34224   6.565   3.714   8.864 -0.2346  0.0109 -0.3231
10928SOL    HW134225   6.611   3.776   8.807 -0.6284  0.1575 -0.4845
10928SOL    HW234226   6.618   3.712   8.944  0.3625 -0.2552 -0.7176
10929SOL     OW34227   5.428   2.265   8.868  0.2613 -0.3748 -0.4559
10929SOL    HW134228   5.339   2.277   8.901  0.8667  2.4581  0.4049
10929SOL    HW234229   5.482   2.261   8.947  1.3208  2.7219 -0.9005
10930SOL     OW34230   3.346   7.805   2.682 -0.3396  0.0297  0.0689
10930SOL    HW134231   3.379   7.851   2.604 -0.0945 -0.9897 -0.4473
10930SOL    HW234232   3.420   7.753   2.712 -1.1223 -1.4559 -0.4678
10931SOL     OW34233   2.809   0.454   4.694 -0.0718 -0.4447 -0.3017
10931SOL    HW134234   2.852   0.539   4.687  0.0327 -0.5473 -1.0500
10931SOL    HW234235   2.875   0.396   4.731 -0.4819  0.0280  1.2257
10932SOL     OW34236   3.024   1.272   4.962  0.4476 -0.3802 -0.2592
10932SOL    HW134237   3.072   1.321   5.029 -0.1166  1.1743 -0.9508
10932SOL    HW234238   3.022   1.331   4.886 -2.0284 -0.6202 -0.4521
10933SOL     OW34239   6.482   7.500   5.812  0.2878 -0.2052 -0.8001
10933SOL    HW134240   6.526   7.477   5.894 -1.1016 -1.2304 -0.2969
10933SOL    HW234241   6.542   7.561   5.769  1.5234 -0.4466  0.4918
10934SOL     OW34242   5.120   6.446   3.221  0.1030  0.4170  0.1876
10934SOL    HW134243   5.181   6.433   3.293  0.4045  0.5738 -0.0388
10934SOL    HW234244   5.144   6.379   3.157 -1.0776 -0.6675  0.8227
10935SOL     OW34245   0.218   4.515   1.707  0.5201 -0.2361 -0.0053
10935SOL    HW134246   0.291   4.555   1.660  0.9794 -1.6228 -0.5141
10935SOL    HW234247   0.143   4.527   1.649  0.2803  1.3090  0.5768
10936SOL     OW34248   3.136   3.169   2.230 -0.0637 -0.3310 -0.0001
10936SOL    HW134249   3.102   3.254   2.257 -0.3470 -0.0901 -1.0509
10936SOL    HW234250   3.230   3.173   2.250  0.0639  0.5153 -0.7023
10937SOL     OW34251   6.958   2.738   2.651  0.0549  0.0837 -0.2193
10937SOL    HW134252   7.026   2.788   2.695  0.5254 -2.4492  2.2020
10937SOL    HW234253   6.972   2.756   2.558  1.4244  2.7563  0.4082
10938SOL     OW34254   0.440   3.399   4.523 -0.1625 -0.3762 -0.8141
10938SOL    HW134255   0.502   3.448   4.578 -0.6429  0.2836 -0.8528
10938SOL    HW234256   0.486   3.390   4.439 -0.7448  1.5680 -1.3886
10939SOL     OW34257   3.416   3.551  11.093 -0.8202  0.2437  0.1251
10939SOL    HW134258   3.501   3.506  11.088 -1.0597 -0.1206 -1.0678
10939SOL    HW234259   3.438   3.643  11.108 -0.0497  0.5566 -2.3478
10940SOL     OW34260   6.701   1.086   5.498 -0.1007  0.5922 -0.0052
10940SOL    HW134261   6.732   1.169   5.532 -2.3481  1.4837  0.0652
10940SOL    HW234262   6.681   1.034   5.577  2.6818 -0.6871 -0.0156
10941SOL     OW34263   2.623   2.303  12.321  0.3734 -0.0794  0.3598
10941SOL    HW134264   2.600   2.331  12.232  0.9569  0.7210  0.4508
10941SOL    HW234265   2.575   2.364  12.377  1.4055  0.5584  0.5684
10942SOL     OW34266   3.674   1.760   6.938 -0.2885  0.2931  0.5322
10942SOL    HW134267   3.729   1.725   6.869 -0.6671 -0.6645  0.6975
10942SOL    HW234268   3.725   1.831   6.977 -0.1311  0.9287 -0.8008
10943SOL     OW34269   7.778   5.510   0.322 -0.3756 -0.5953 -0.2475
10943SOL    HW134270   7.834   5.457   0.266 -0.0981 -1.4021  0.7655
10943SOL    HW234271   7.737   5.573   0.262  1.3816 -0.1519 -1.0532
10944SOL     OW34272   4.056   6.499   1.042  0.0477 -0.0747 -0.4781
10944SOL    HW134273   4.132   6.555   1.057 -0.1345  0.3683 -1.1730
10944SOL    HW234274   4.047   6.495   0.947 -0.6636 -0.3079 -0.4076
10945SOL     OW34275   0.280   0.004   7.910  0.2816  0.4724  0.2106
10945SOL    HW134276   0.198   0.005   7.959 -1.5268 -1.2564 -2.5053
10945SOL    HW234277   0.328  -0.072   7.943 -0.8456 -0.5877 -0.5136
10946SOL     OW34278   2.658   0.221   6.602  0.2214 -1.1209 -0.2984
10946SOL    HW134279   2.568   0.243   6.577  0.8258  0.4878 -1.2539
10946SOL    HW234280   2.683   0.151   6.542  0.1904 -0.2841 -1.3365
10947SOL     OW34281   3.468   1.520   4.103  0.4837  0.2153 -0.3248
10947SOL    HW134282   3.442   1.598   4.054 -0.7056 -0.3142 -0.5825
10947SOL    HW234283   3.397   1.458   4.088 -0.3324  0.2711  2.6660
10948SOL     OW34284   6.449   7.429   1.672  0.1112 -0.1081  0.1903
10948SOL    HW134285   6.536   7.396   1.653  0.2140 -0.3150  0.9942
10948SOL    HW234286   6.453   7.456   1.764 -0.2725  1.1522 -0.1427
10949SOL     OW34287   7.856   5.352   6.222 -0.1534 -0.2166 -0.7339
10949SOL    HW134288   7.777   5.404   6.235  1.1526  2.2084 -1.9680
10949SOL    HW234289   7.927   5.416   6.214  1.7691 -2.2495 -0.9988
10950SOL     OW34290   0.509   2.265   1.600  0.2945  0.0385 -0.3489
10950SOL    HW134291   0.503   2.195   1.664 -0.4691 -0.9413 -1.4463
10950SOL    HW234292   0.479   2.225   1.518  0.9009  1.3402 -1.2414
10951SOL     OW34293   7.746   2.763   5.621  0.1447  0.0852  0.1631
10951SOL    HW134294   7.737   2.691   5.558 -0.5958 -1.0169  1.4731
10951SOL    HW234295   7.836   2.755   5.652 -0.3523 -1.2957  1.4066
10952SOL     OW34296   6.216   7.242   3.074 -0.1526 -0.2998 -0.0281
10952SOL    HW134297   6.252   7.207   3.156 -1.2238  0.4977  0.8133
10952SOL    HW234298   6.172   7.168   3.033  1.7939 -1.1175 -0.7288
10953SOL     OW34299   6.561   5.378  10.039  0.4473  0.3567  0.0681
10953SOL    HW134300   6.615   5.456  10.023  0.5892  0.4483  0.9635
10953SOL    HW234301   6.616   5.305  10.010  0.5580  0.5390 -0.1924
10954SOL     OW34302   1.513   7.675   5.451  0.0344 -0.3781  0.4962
10954SOL    HW134303   1.551   7.596   5.490 -1.0047 -0.9035  0.4784
10954SOL    HW234304   1.477   7.724   5.525  2.0049  0.8792  0.7071
10955SOL     OW34305   7.360   7.031   9.060 -0.0008  0.4299 -0.4150
10955SOL    HW134306   7.378   7.015   8.968 -0.3382 -1.3188 -0.2051
10955SOL    HW234307   7.439   7.001   9.106 -0.0692  0.7449 -0.0766
10956SOL     OW34308   0.933   3.430   9.710 -0.2693  0.2893  0.0612
10956SOL    HW134309   0.965   3.341   9.724  2.1243  1.0461 -0.0801
10956SOL    HW234310   0.898   3.457   9.795  2.4074  0.4159  1.2519
10957SOL     OW34311   4.892   5.336   1.094 -0.1570  0.4345  0.2061
10957SOL    HW134312   4.869   5.428   1.086 -1.0559  0.4835  2.4597
10957SOL    HW234313   4.856   5.295   1.015 -0.4745  1.8770 -0.4326
10958SOL     OW34314   6.600   2.988   6.914  0.0899 -0.1400  0.7500
10958SOL    HW134315   6.688   3.017   6.891  0.2687 -0.6987  0.7053
10958SOL    HW234316   6.601   2.894   6.897 -0.3779 -0.2280  1.1800
10959SOL     OW34317   2.501   7.114   4.533 -0.0390  0.3144 -0.3300
10959SOL    HW134318   2.574   7.162   4.493  1.0253 -1.1014 -0.1539
10959SOL    HW234319   2.543   7.041   4.579 -1.5584 -0.3900 -0.0182
10960SOL     OW34320   5.941   1.519   9.308  0.1991  0.1336 -0.1677
10960SOL    HW134321   5.937   1.430   9.345  0.4400  0.1621 -0.0710
10960SOL    HW234322   6.011   1.561   9.356 -0.3794  0.6082  0.2796
10961SOL     OW34323   7.621   6.094   1.483 -0.8003 -0.2131  0.0064
10961SOL    HW134324   7.537   6.067   1.444 -1.7235  0.1625  1.6227
10961SOL    HW234325   7.631   6.186   1.456 -1.3478 -0.0026  0.4964
10962SOL     OW34326   1.039   3.532   5.600  0.2094 -0.4579 -1.0995
10962SOL    HW134327   1.001   3.600   5.547  0.1874  2.5242  2.3407
10962SOL    HW234328   0.983   3.526   5.677  1.0164 -3.4292 -0.5711
10963SOL     OW34329   7.900   3.847   3.322 -0.1361 -0.5636  0.1767
10963SOL    HW134330   7.971   3.792   3.287 -0.9240 -2.9889  2.0532
10963SOL    HW234331   7.945   3.908   3.380  0.6599 -0.1237 -0.8752
10964SOL     OW34332   3.554   5.032   1.601  0.5733  0.5040  0.0771
10964SOL    HW134333   3.505   4.962   1.558 -1.2748  1.6832  0.1449
10964SOL    HW234334   3.590   5.084   1.528 -0.2692  0.9539 -0.0310
10965SOL     OW34335   3.812   7.854   1.436  0.8658  0.0560 -0.8519
10965SOL    HW134336   3.843   7.908   1.508 -0.4996  2.3263 -1.8575
10965SOL    HW234337   3.830   7.764   1.464  3.7272  0.9871  0.6567
10966SOL     OW34338   4.853   6.703  12.461  0.0181  0.6548 -0.8765
10966SOL    HW134339   4.922   6.699  12.395  0.3366 -4.1921 -0.5871
10966SOL    HW234340   4.783   6.648  12.426 -1.7807  1.6812  0.8978
10967SOL     OW34341   7.857   2.451  10.278  0.0163 -0.2390 -0.2709
10967SOL    HW134342   7.841   2.490  10.364 -0.5821 -0.1322 -0.4265
10967SOL    HW234343   7.799   2.375  10.274  0.5521 -0.6507 -0.3101
10968SOL     OW34344   2.969   5.062   2.000 -0.1474 -0.7362 -0.1459
10968SOL    HW134345   2.914   4.988   2.024 -0.2540 -0.5915  0.0587
10968SOL    HW234346   3.015   5.086   2.080 -0.9409  0.1156  0.0664
10969SOL     OW34347   3.054   6.022   1.474 -0.0094  0.0560 -0.0824
10969SOL    HW134348   3.139   6.045   1.437 -0.0430  2.0506  0.9595
10969SOL    HW234349   3.073   5.997   1.565 -0.5705  1.2143  0.3791
10970SOL     OW34350   5.532   3.126   2.755  0.3852  0.0379 -0.4011
10970SOL    HW134351   5.604   3.080   2.712  0.9437  1.3216 -0.9120
10970SOL    HW234352   5.468   3.140   2.686  1.4350  2.4113 -1.0204
10971SOL     OW34353   0.690   2.261   1.035  0.4754  0.1269 -0.2116
10971SOL    HW134354   0.657   2.268   0.945 -2.9724  1.0772  0.9752
10971SOL    HW234355   0.682   2.349   1.071 -0.3651 -0.6438  1.6400
10972SOL     OW34356   0.265   5.580   1.360  0.3965  0.2700 -0.1579
10972SOL    HW134357   0.224   5.604   1.277  1.3666  0.2119 -0.6600
10972SOL    HW234358   0.332   5.647   1.374 -0.3093  0.7721  1.0104
10973SOL     OW34359   3.644   1.295  10.963 -0.2362  0.0281  0.5094
10973SOL    HW134360   3.571   1.244  10.927  0.2536  0.0753 -0.5719
10973SOL    HW234361   3.704   1.229  10.997 -0.7477 -0.0130  1.3640
10974SOL     OW34362   3.524   3.747   7.139 -0.3763 -0.1168 -0.1139
10974SOL    HW134363   3.508   3.688   7.065  0.6558 -1.6426  0.8180
10974SOL    HW234364   3.607   3.790   7.118  0.1693 -0.9152  0.3448
10975SOL     OW34365   0.153   5.065   3.801  0.2070  0.5149 -0.3394
10975SOL    HW134366   0.178   4.992   3.858  2.8205  0.3956 -1.4876
10975SOL    HW234367   0.209   5.137   3.830  1.2123  0.5945 -2.3276
10976SOL     OW34368   3.667   0.921   9.240  0.2022 -0.2870 -0.4469
10976SOL    HW134369   3.607   0.992   9.263  1.0202  0.7646 -1.4159
10976SOL    HW234370   3.752   0.950   9.273  0.4772 -1.0064 -0.5049
10977SOL     OW34371   2.380   5.973   1.758  0.5677 -0.1437 -0.2999
10977SOL    HW134372   2.291   5.943   1.774  0.1796  1.4577  0.7776
10977SOL    HW234373   2.373   6.031   1.682  0.7529 -0.2503 -0.3998
10978SOL     OW34374   0.605   5.156   7.720  0.3871 -0.5966 -0.0949
10978SOL    HW134375   0.629   5.157   7.627  0.6859  0.5490 -0.0283
10978SOL    HW234376   0.678   5.200   7.764 -0.4383  0.2500  0.4841
10979SOL     OW34377   2.667   4.569   4.730 -0.3117 -0.2764 -0.7756
10979SOL    HW134378   2.673   4.533   4.819  0.9671  1.9599  0.1206
10979SOL    HW234379   2.735   4.523   4.681  1.8957  1.3401  0.5693
10980SOL     OW34380   0.474   0.805  12.158 -0.7395  0.7907  0.8156
10980SOL    HW134381   0.404   0.838  12.102  1.4256  1.8905 -1.4422
10980SOL    HW234382   0.474   0.862  12.234 -1.4628  1.5959  0.2196
10981SOL     OW34383   4.882   3.326  11.004  0.4398  0.0496  0.3106
10981SOL    HW134384   4.825   3.404  11.006  0.8008  0.2970  1.7592
10981SOL    HW234385   4.823   3.253  11.021  0.2943  0.1301  0.1559
10982SOL     OW34386   7.933   3.503   1.722 -0.1686 -0.2333  0.0739
10982SOL    HW134387   8.003   3.483   1.659  0.5693  1.2148  0.4040
10982SOL    HW234388   7.958   3.454   1.801 -0.4442 -1.0702 -0.3476
10983SOL     OW34389   1.312   0.126   1.571  0.1409  0.1023  0.0461
10983SOL    HW134390   1.299   0.033   1.554 -3.8282  0.1474  1.6623
10983SOL    HW234391   1.295   0.169   1.487 -1.7591 -0.5414  0.0387
10984SOL     OW34392   1.802   6.880   2.854 -0.5207 -0.3183  0.2767
10984SOL    HW134393   1.808   6.969   2.818  1.1548 -0.3915  0.2811
10984SOL    HW234394   1.822   6.823   2.780  0.2631 -0.5929  0.6930
10985SOL     OW34395   1.395   2.426  10.076 -0.2415  0.0744 -0.9956
10985SOL    HW134396   1.491   2.431  10.075 -0.2939  1.2777 -1.0091
10985SOL    HW234397   1.376   2.335  10.052  0.8947 -0.2221 -0.8470
10986SOL     OW34398   4.860   2.794   5.493  0.3504 -0.0364  0.8353
10986SOL    HW134399   4.812   2.876   5.506  0.9169  0.6215 -0.9125
10986SOL    HW234400   4.816   2.731   5.550 -1.1937  1.0601  0.9226
10987SOL     OW34401   2.344   2.630   5.131  0.4266  0.5423 -0.3782
10987SOL    HW134402   2.371   2.573   5.059  0.5185  0.3252 -0.1735
10987SOL    HW234403   2.303   2.705   5.088 -1.7791 -0.7066 -0.6187
10988SOL     OW34404   7.915   5.937   3.496  0.5308 -0.0567 -0.4331
10988SOL    HW134405   7.987   5.931   3.434 -0.2063 -0.6919 -1.2429
10988SOL    HW234406   7.889   5.846   3.513  0.4884  0.1180  0.5375
10989SOL     OW34407   5.305   4.420   8.994  0.2761 -0.4946 -0.6952
10989SOL    HW134408   5.321   4.513   8.977  0.8085 -0.5170 -0.3702
10989SOL    HW234409   5.211   4.413   9.006  0.1657 -0.0931 -1.2959
10990SOL     OW34410   1.736   5.059   1.587  0.1513  0.2186 -0.4571
10990SOL    HW134411   1.828   5.080   1.572  0.2321  0.0976 -0.1411
10990SOL    HW234412   1.702   5.034   1.500  0.4679  0.0662 -0.5373
10991SOL     OW34413   2.676   5.306   7.329 -0.0704 -0.1746  0.5786
10991SOL    HW134414   2.637   5.329   7.245 -1.2763  1.2956  1.5031
10991SOL    HW234415   2.769   5.327   7.319 -0.5548  2.0839  0.2800
10992SOL     OW34416   3.173   5.753   2.903 -0.2408  0.0833  0.4480
10992SOL    HW134417   3.208   5.840   2.885  0.1919  0.0266  0.9819
10992SOL    HW234418   3.160   5.714   2.816 -1.4120  1.0444  0.1559
10993SOL     OW34419   2.620   4.055   0.730  0.2620 -0.3380 -0.0246
10993SOL    HW134420   2.618   3.967   0.766  1.2255 -0.7823 -0.9855
10993SOL    HW234421   2.567   4.107   0.790  0.3124 -1.4102  0.9861
10994SOL     OW34422   6.564   5.267   7.068  0.1548  0.0779  0.0413
10994SOL    HW134423   6.519   5.242   7.149  0.2569 -1.6023 -0.3904
10994SOL    HW234424   6.639   5.318   7.098  1.3176 -2.1481  1.2052
10995SOL     OW34425   7.347   4.263   7.908  0.3193 -0.4488  0.5671
10995SOL    HW134426   7.434   4.300   7.918  0.1821 -0.2800  1.2083
10995SOL    HW234427   7.338   4.203   7.982 -1.1320  1.6266  2.2244
10996SOL     OW34428   1.889   2.510  10.465 -0.4197 -0.0450 -0.1815
10996SOL    HW134429   1.857   2.468  10.386 -1.5272  0.1398  0.1604
10996SOL    HW234430   1.885   2.442  10.533  0.9357 -0.3342 -0.3498
10997SOL     OW34431   1.837   4.544   9.392  0.2819  0.1595  0.0907
10997SOL    HW134432   1.783   4.619   9.414 -1.3093 -0.5027 -1.3368
10997SOL    HW234433   1.872   4.565   9.305 -0.6073 -0.9309 -0.5573
10998SOL     OW34434   1.598   2.646   4.418 -0.0733 -0.5649 -0.4958
10998SOL    HW134435   1.644   2.566   4.445  1.5902  0.5129  0.0553
10998SOL    HW234436   1.550   2.673   4.495 -0.2237 -0.7481 -0.5232
10999SOL     OW34437   3.661   5.750  11.299  0.1021 -0.3110  0.2728
10999SOL    HW134438   3.567   5.762  11.283  0.0936  1.6571  1.4379
10999SOL    HW234439   3.701   5.759  11.212 -0.7450 -0.9159 -0.1986
11000SOL     OW34440   3.367   6.201   6.073  0.0378  0.2500 -0.2035
11000SOL    HW134441   3.387   6.111   6.048 -0.8844 -0.2975  0.9370
11000SOL    HW234442   3.308   6.232   6.003 -0.1286 -0.2364 -0.2822
11001SOL     OW34443   0.175   3.486  11.924  0.4471 -0.3092  0.2899
11001SOL    HW134444   0.177   3.576  11.891  2.6189 -0.4832 -0.1836
11001SOL    HW234445   0.266   3.467  11.949  0.0460 -2.3883  0.3532
11002SOL     OW34446   6.141   3.361   4.668  0.0161  0.1768 -0.1123
11002SOL    HW134447   6.205   3.369   4.597 -1.1374 -1.1624 -1.3663
11002SOL    HW234448   6.116   3.451   4.688  0.3531  0.5873 -1.4355
11003SOL     OW34449   2.365   4.037   7.096 -0.3201  0.6963  0.4205
11003SOL    HW134450   2.376   3.942   7.104 -0.8387  0.4058 -1.7152
11003SOL    HW234451   2.302   4.048   7.025 -0.1803  2.6571  0.5417
11004SOL     OW34452   1.947   7.942   0.681  0.0031  0.0968  0.2845
11004SOL    HW134453   1.886   7.915   0.750  0.2123  1.4695  1.0279
11004SOL    HW234454   1.960   7.863   0.628 -0.3613 -0.9102  1.6592
11005SOL     OW34455   3.567   3.083   5.092 -0.2790  0.5251 -0.5560
11005SOL    HW134456   3.657   3.112   5.077  0.1704  0.4998  1.7655
11005SOL    HW234457   3.514   3.157   5.063  0.5623  1.1919 -0.4434
11006SOL     OW34458   5.068   5.874   4.689 -0.6633 -0.2181  0.0774
11006SOL    HW134459   5.029   5.916   4.766  0.3309 -0.5993  0.8207
11006SOL    HW234460   5.108   5.946   4.640 -0.9453 -0.0175  0.1418
11007SOL     OW34461   7.262   7.134   4.103  0.1800 -0.1392 -0.4832
11007SOL    HW134462   7.262   7.050   4.058  2.1830 -0.7134  0.4443
11007SOL    HW234463   7.278   7.111   4.195 -1.2732  1.1442  0.1283
11008SOL     OW34464   2.326   2.315   0.872  0.2414  0.0224 -0.0518
11008SOL    HW134465   2.333   2.233   0.823 -0.0799  0.2468 -0.4942
11008SOL    HW234466   2.346   2.383   0.807  0.2245  0.3054  0.2359
11009SOL     OW34467   0.620   4.748   2.884 -0.7043 -0.2203 -0.0200
11009SOL    HW134468   0.661   4.700   2.812 -1.0147  1.3622 -1.3126
11009SOL    HW234469   0.690   4.757   2.949 -0.7444 -2.6986  0.4811
11010SOL     OW34470   2.276   1.440   0.257  0.1249 -0.0790 -0.6720
11010SOL    HW134471   2.186   1.455   0.228  0.5517  0.2286 -1.9054
11010SOL    HW234472   2.310   1.528   0.274  0.3835 -0.1448 -0.8401
11011SOL     OW34473   5.577   4.932   1.885  0.5681  0.0887  0.0598
11011SOL    HW134474   5.484   4.926   1.906  0.3804 -0.2462 -0.8203
11011SOL    HW234475   5.621   4.937   1.970 -0.1060 -1.6971  0.5468
11012SOL     OW34476   5.828   1.948   5.722  0.0804  0.3968 -0.0688
11012SOL    HW134477   5.793   2.018   5.776  0.0474  0.5976 -0.3478
11012SOL    HW234478   5.909   1.922   5.766  0.7363  1.4389 -0.6089
11013SOL     OW34479   4.893   1.344  11.580 -0.4140 -0.3362 -0.3015
11013SOL    HW134480   4.801   1.335  11.555 -0.3961  0.5500 -0.6979
11013SOL    HW234481   4.892   1.345  11.676 -0.9790  1.1634 -0.3023
11014SOL     OW34482   1.255   7.099  12.081 -0.4802 -0.0344 -0.1010
11014SOL    HW134483   1.223   7.050  12.005 -0.8617  1.5584 -1.0034
11014SOL    HW234484   1.182   7.156  12.105  1.3081  3.1554 -1.7340
11015SOL     OW34485   3.797   6.011   4.154  0.1849  0.1483  0.8512
11015SOL    HW134486   3.756   6.088   4.114  1.7688 -0.3795 -2.0958
11015SOL    HW234487   3.757   5.937   4.109  0.6188 -0.6278  1.7049
11016SOL     OW34488   3.027   3.768  10.864 -0.1286 -0.1760  0.1210
11016SOL    HW134489   3.111   3.751  10.907  0.4793  1.4277 -0.3619
11016SOL    HW234490   2.988   3.840  10.914 -0.1998  0.5550 -0.9557
11017SOL     OW34491   3.625   0.705   3.051 -0.8063 -0.1852  1.0163
11017SOL    HW134492   3.705   0.744   3.016 -2.6048  1.2069 -1.9286
11017SOL    HW234493   3.581   0.777   3.096 -1.3218 -0.4234  0.8981
11018SOL     OW34494   7.170   1.867  12.446 -0.3353  0.0076  0.4324
11018SOL    HW134495   7.169   1.845  12.539 -0.6479  0.8784  0.6437
11018SOL    HW234496   7.213   1.793  12.404  1.8146  0.5872  1.5177
11019SOL     OW34497   1.937   3.120   8.514 -0.0036  0.2244 -0.4102
11019SOL    HW134498   1.951   3.087   8.425 -0.7468 -0.9878 -0.0970
11019SOL    HW234499   2.009   3.083   8.565 -0.2317 -0.0458 -0.2802
11020SOL     OW34500   6.653   4.764   0.938  0.0775 -0.1543  0.1930
11020SOL    HW134501   6.606   4.847   0.936  0.0525 -0.1817 -1.2607
11020SOL    HW234502   6.745   4.788   0.931  0.2631 -0.1491  2.1431
11021SOL     OW34503   1.983   7.630  12.117 -0.0864 -0.1428  0.3179
11021SOL    HW134504   1.920   7.636  12.045  0.9900 -0.4556 -0.6876
11021SOL    HW234505   1.983   7.537  12.142 -0.8594  0.0620  1.1047
11022SOL     OW34506   1.775   7.555  11.552 -0.2666  0.3936 -0.1247
11022SOL    HW134507   1.718   7.625  11.519  0.5856  0.0968 -2.3526
11022SOL    HW234508   1.849   7.601  11.591 -0.5587  0.7361  0.0372
11023SOL     OW34509   3.628   7.712   7.803 -0.2852  0.3894 -0.0752
11023SOL    HW134510   3.550   7.705   7.859  0.4590 -0.2115  0.9263
11023SOL    HW234511   3.637   7.624   7.764 -0.0764  0.4374 -0.1375
11024SOL     OW34512   4.025   5.430   3.701 -0.2464 -0.2175  0.1978
11024SOL    HW134513   4.098   5.383   3.661 -0.0328  0.3520 -0.1085
11024SOL    HW234514   3.961   5.362   3.723 -0.3026 -0.5763 -0.9797
11025SOL     OW34515   0.961   3.738   4.954  0.1583  0.1866 -0.1282
11025SOL    HW134516   0.865   3.732   4.949  0.0934  0.6082  0.4429
11025SOL    HW234517   0.978   3.832   4.951  0.4642  0.1794  1.1959
11026SOL     OW34518   7.830   1.971   8.516  0.1287  0.2343 -0.3498
11026SOL    HW134519   7.909   1.933   8.556 -0.5363  1.1920  2.0172
11026SOL    HW234520   7.761   1.908   8.536  0.0972 -0.2575 -1.8260
11027SOL     OW34521   5.882   2.550  10.925 -0.2661 -0.1560  0.2936
11027SOL    HW134522   5.810   2.487  10.928  0.2720 -0.8257 -0.2928
11027SOL    HW234523   5.942   2.521  10.994 -0.0099 -0.3065  0.0122
11028SOL     OW34524   4.985   5.110   4.179  0.8453 -0.3670 -0.8431
11028SOL    HW134525   4.891   5.097   4.176  0.1677  3.1903  0.6110
11028SOL    HW234526   5.018   5.036   4.230 -1.4942 -0.4366  0.7027
11029SOL     OW34527   5.018   4.613   8.447 -0.3915 -0.9746  0.2751
11029SOL    HW134528   5.092   4.594   8.506  0.5732 -0.3473 -0.6917
11029SOL    HW234529   5.050   4.586   8.361 -0.7562  0.5944 -0.3785
11030SOL     OW34530   6.405   2.066   8.701  0.1628 -0.0325  0.0572
11030SOL    HW134531   6.359   1.982   8.709  1.1933 -0.5982  0.2328
11030SOL    HW234532   6.378   2.100   8.615 -0.2869 -0.5213 -0.0038
11031SOL     OW34533   5.963   1.423   3.845  0.3569  0.3253  0.3030
11031SOL    HW134534   5.947   1.510   3.809  1.1393  0.2223 -0.3401
11031SOL    HW234535   5.891   1.407   3.906  0.5257  1.6571  0.8699
11032SOL     OW34536   3.491   2.305  10.947  0.8768 -0.5448  0.3257
11032SOL    HW134537   3.579   2.282  10.977  1.2104  0.1392 -0.0988
11032SOL    HW234538   3.505   2.380  10.889  0.0065 -0.4120  0.2843
11033SOL     OW34539   6.344   6.553   1.426 -0.2837  0.1480  0.5267
11033SOL    HW134540   6.400   6.537   1.502  0.3148 -0.9857 -0.1185
11033SOL    HW234541   6.381   6.631   1.385  1.6923 -1.2460 -0.5740
11034SOL     OW34542   5.405   1.144   0.593  0.0679 -0.1682  0.0751
11034SOL    HW134543   5.427   1.066   0.541 -0.1457 -1.9062  2.4511
11034SOL    HW234544   5.485   1.197   0.592  0.8911 -1.3731  0.0375
11035SOL     OW34545   0.646   5.074   1.123 -0.5709 -0.6850 -0.6485
11035SOL    HW134546   0.615   5.144   1.065  0.6658 -0.9647 -1.6908
11035SOL    HW234547   0.710   5.026   1.071 -0.3380 -1.7291  0.5423
11036SOL     OW34548   3.823   1.678   6.734 -0.3429 -0.7817  0.1959
11036SOL    HW134549   3.874   1.732   6.674 -1.7296 -0.8521 -1.1135
11036SOL    HW234550   3.881   1.604   6.755  0.1389 -0.8436 -1.2102
11037SOL     OW34551   4.152   5.762   2.505  0.2876  0.6846  0.3945
11037SOL    HW134552   4.063   5.763   2.471  0.2613  1.1190  0.4730
11037SOL    HW234553   4.163   5.673   2.539 -0.1743  0.6779  0.5376
11038SOL     OW34554   6.224   3.911   3.831 -0.3463  0.3876 -0.4457
11038SOL    HW134555   6.162   3.963   3.780 -1.5350  1.4425  1.8906
11038SOL    HW234556   6.183   3.825   3.838 -0.6784  0.5472 -0.4051
11039SOL     OW34557   0.943   4.779   4.102  0.0657  0.0339 -0.2212
11039SOL    HW134558   0.948   4.842   4.174 -0.7197 -1.3947  1.1458
11039SOL    HW234559   0.915   4.831   4.027  1.3480  1.6466  0.3645
11040SOL     OW34560   7.452   7.662  11.090  0.3989 -0.3735  0.0391
11040SOL    HW134561   7.493   7.639  11.007  1.2793 -0.2167  0.4223
11040SOL    HW234562   7.371   7.707  11.065  0.9505  0.2204 -0.7419
11041SOL     OW34563   3.119   7.912   1.361 -0.2628 -0.4046 -0.0294
11041SOL    HW134564   3.196   7.894   1.416  0.1665 -0.3193 -0.5949
11041SOL    HW234565   3.055   7.846   1.387 -0.6924  0.6409  1.7489
11042SOL     OW34566   6.603   7.343   7.745  0.7079 -0.3194 -0.1943
11042SOL    HW134567   6.688   7.384   7.728  0.0701  0.6590 -1.1421
11042SOL    HW234568   6.585   7.363   7.837 -0.1595  2.7258 -0.9121
11043SOL     OW34569   4.424   4.939   1.032  0.2877 -0.0574 -0.0421
11043SOL    HW134570   4.352   4.965   0.974  0.9183 -0.4563 -1.0328
11043SOL    HW234571   4.382   4.889   1.102 -0.4549  0.1116 -0.3600
11044SOL     OW34572   1.484   7.587   3.295  0.6402 -0.5626 -0.1802
11044SOL    HW134573   1.539   7.612   3.369  1.2760 -0.9714 -0.5082
11044SOL    HW234574   1.537   7.608   3.218  0.1342 -0.4909 -0.5152
11045SOL     OW34575   7.109   7.712   2.054 -0.0713  0.1794 -0.1647
11045SOL    HW134576   7.094   7.794   2.100  0.1017  0.8370 -1.2402
11045SOL    HW234577   7.072   7.645   2.111  4.9654  0.1385  3.7380
11046SOL     OW34578   2.686   2.933  10.522 -0.0085  0.4738 -0.4261
11046SOL    HW134579   2.748   2.976  10.463  0.1486 -0.9899 -1.3901
11046SOL    HW234580   2.609   2.916  10.467 -0.2173 -0.0918  0.0285
11047SOL     OW34581   4.966   2.030   7.577 -0.0818  0.3082 -0.1361
11047SOL    HW134582   4.896   1.966   7.566 -1.5409  1.8374 -0.1636
11047SOL    HW234583   4.971   2.076   7.493 -0.1837  1.2916  0.3777
11048SOL     OW34584   4.671   7.287   5.466  0.2309  0.5122 -0.1876
11048SOL    HW134585   4.604   7.347   5.433 -0.0237  0.9386  1.0465
11048SOL    HW234586   4.732   7.344   5.513  1.2223  0.0659 -0.9040
11049SOL     OW34587   3.742   7.641  10.830 -0.1943  0.5401  0.2409
11049SOL    HW134588   3.834   7.629  10.854  0.1130  0.3374 -0.9949
11049SOL    HW234589   3.729   7.582  10.756 -0.7202  2.1733 -1.0228
11050SOL     OW34590   4.859   2.191   4.106  0.1025 -0.2716  0.1271
11050SOL    HW134591   4.894   2.233   4.028  0.2232 -0.2071  0.2157
11050SOL    HW234592   4.790   2.251   4.136 -0.3140 -0.5570 -0.2328
11051SOL     OW34593   3.191   5.795  11.303 -0.1714 -0.5935 -0.1665
11051SOL    HW134594   3.176   5.712  11.347  0.0267 -0.7547 -0.4070
11051SOL    HW234595   3.115   5.849  11.328 -0.7210 -1.1210 -0.6739
11052SOL     OW34596   6.329   7.570  11.182  0.0793 -0.5313  0.8057
11052SOL    HW134597   6.371   7.567  11.095  0.7381  0.3524  1.0804
11052SOL    HW234598   6.372   7.643  11.226 -0.3669 -0.8772  1.8247
11053SOL     OW34599   5.486   1.324   3.943  0.2232  0.3730 -0.6220
11053SOL    HW134600   5.493   1.385   3.870 -0.3076  0.0641 -0.9321
11053SOL    HW234601   5.492   1.237   3.903  1.8564  0.2004 -0.0971
11054SOL     OW34602   3.046   5.378   1.502  0.2547  0.4671  0.4043
11054SOL    HW134603   2.966   5.362   1.552 -0.4469  0.1742 -0.7754
11054SOL    HW234604   3.094   5.296   1.506 -0.9315 -0.3777 -1.3552
11055SOL     OW34605   5.358   3.276   0.884 -0.3298 -0.0638  0.5299
11055SOL    HW134606   5.436   3.273   0.829 -0.6392  1.2323  0.0071
11055SOL    HW234607   5.331   3.184   0.892  0.0804 -0.3356 -0.9457
11056SOL     OW34608   2.558   1.375   7.941 -0.5218  0.5359  0.5145
11056SOL    HW134609   2.521   1.300   7.988 -2.8661  1.2467 -0.0746
11056SOL    HW234610   2.506   1.450   7.968 -1.3445  1.1475 -2.3575
11057SOL     OW34611   0.372   0.051  10.358 -0.5123  0.2920  0.3828
11057SOL    HW134612   0.442   0.005  10.311  0.8746  1.8388  0.8614
11057SOL    HW234613   0.389   0.032  10.450 -0.3672  1.1678  0.5381
11058SOL     OW34614   0.878   3.447  11.806  0.1667 -0.7748  1.1328
11058SOL    HW134615   0.864   3.453  11.712  0.6631  0.6643  1.1261
11058SOL    HW234616   0.889   3.353  11.823  0.6922 -0.9959 -0.3330
11059SOL     OW34617   4.234   6.569  12.467  0.1854  0.0560  0.2212
11059SOL    HW134618   4.288   6.541  12.540  0.3995 -0.4562 -0.1344
11059SOL    HW234619   4.293   6.619  12.411  0.4962 -1.1903 -0.5781
11060SOL     OW34620   2.010   7.045   9.978  0.2763 -0.2564  0.4386
11060SOL    HW134621   2.100   7.076   9.989  0.4023 -0.4327 -0.0474
11060SOL    HW234622   2.019   6.955   9.947  0.0066  0.4207 -1.8380
11061SOL     OW34623   7.575   3.333   9.254 -0.1211  0.9107  0.4950
11061SOL    HW134624   7.524   3.252   9.253  1.2049  0.0379 -0.1717
11061SOL    HW234625   7.587   3.353   9.347  1.0279 -0.6645  0.7232
11062SOL     OW34626   2.746   3.562   0.786 -0.2326  0.3439 -0.4188
11062SOL    HW134627   2.834   3.573   0.748  0.5865  0.8777  1.5367
11062SOL    HW234628   2.715   3.479   0.749  1.4748 -0.3189 -0.4650
11063SOL     OW34629   3.635   7.982   5.013  0.4408  0.4176  0.1490
11063SOL    HW134630   3.714   7.962   4.963  1.2561  0.5984  1.3279
11063SOL    HW234631   3.624   7.908   5.073 -0.2864  0.4002  0.0093
11064SOL     OW34632   7.833   1.902  12.034  0.5320 -0.3870  0.2172
11064SOL    HW134633   7.746   1.871  12.061  0.3583  0.8346  1.1815
11064SOL    HW234634   7.875   1.928  12.116  1.0631  0.8347 -0.4159
11065SOL     OW34635   6.882   7.532   5.730  0.1929  0.3391  0.0213
11065SOL    HW134636   6.837   7.614   5.750  1.1275  0.7322  0.5493
11065SOL    HW234637   6.972   7.558   5.711  0.7199 -0.6474  1.0615
11066SOL     OW34638   5.933   2.691  12.433  0.2379 -0.0487  0.2750
11066SOL    HW134639   5.922   2.608  12.386  0.0213 -0.4613  1.0288
11066SOL    HW234640   6.019   2.723  12.405  0.0172 -0.1738 -0.5558
11067SOL     OW34641   1.907   2.274  11.278 -0.6521  0.1342 -0.0910
11067SOL    HW134642   1.937   2.358  11.314 -0.2135  0.2392 -0.6925
11067SOL    HW234643   1.986   2.220  11.276 -0.3279  0.6047 -2.2482
11068SOL     OW34644   3.366   1.237   2.201 -0.6043 -0.3861 -0.0253
11068SOL    HW134645   3.272   1.222   2.194 -0.6798  0.6353 -2.2497
11068SOL    HW234646   3.390   1.202   2.286 -2.4436 -3.4661 -0.6319
11069SOL     OW34647   1.567   5.280   5.218  0.2096  0.3495  0.0540
11069SOL    HW134648   1.558   5.287   5.313 -2.2684 -1.6658  0.0700
11069SOL    HW234649   1.479   5.297   5.184  0.8632  0.2485 -1.8365
11070SOL     OW34650   1.923   6.365   2.339  0.6269 -0.3706  0.3648
11070SOL    HW134651   2.001   6.420   2.353  0.7966 -0.3604 -0.5435
11070SOL    HW234652   1.957   6.276   2.334  0.3957 -0.5400  1.4317
11071SOL     OW34653   5.255   1.750   1.212 -0.0191  0.0837 -0.0598
11071SOL    HW134654   5.349   1.739   1.198  0.1074 -0.7310  1.2348
11071SOL    HW234655   5.248   1.786   1.301 -0.9112  0.6674 -0.3581
11072SOL     OW34656   6.314   0.675   4.106 -0.6759  0.2129 -0.1014
11072SOL    HW134657   6.279   0.668   4.195 -0.1748 -0.0723  0.0818
11072SOL    HW234658   6.351   0.588   4.089 -0.2776  0.4332 -0.3763
11073SOL     OW34659   0.749   0.835   2.468 -0.3226 -0.3226  0.5075
11073SOL    HW134660   0.658   0.856   2.448 -0.3687 -0.1945  0.8550
11073SOL    HW234661   0.799   0.902   2.421 -0.3998 -0.4349  0.2575
11074SOL     OW34662   7.918   2.546   1.834  0.0177 -0.6833 -0.1522
11074SOL    HW134663   7.934   2.461   1.875 -0.4871 -0.1813  1.1226
11074SOL    HW234664   7.976   2.548   1.758 -0.6875 -2.5729 -0.7932
11075SOL     OW34665   0.984   7.906   3.053  0.4618  0.2012 -0.0984
11075SOL    HW134666   0.985   7.937   3.143  2.4324  0.9383 -0.3340
11075SOL    HW234667   1.009   7.814   3.058  1.1016  0.3819  0.0778
11076SOL     OW34668   0.009   7.289  11.427  0.0060 -0.8386 -0.2390
11076SOL    HW134669   0.060   7.332  11.496  1.7653  0.2725 -2.1150
11076SOL    HW234670  -0.055   7.355  11.400  1.8384  0.2728 -2.2033
11077SOL     OW34671   4.206   2.918   2.219  0.1935  0.4810 -0.3049
11077SOL    HW134672   4.200   2.937   2.125 -0.4011 -2.0180 -0.8366
11077SOL    HW234673   4.288   2.870   2.228 -0.2575 -0.1998  0.2603
11078SOL     OW34674   5.967   0.891   7.553 -0.6868 -0.5552  0.2265
11078SOL    HW134675   6.035   0.918   7.491 -1.5684 -0.1852 -0.5962
11078SOL    HW234676   5.996   0.927   7.637  0.3731 -0.8195 -0.0113
11079SOL     OW34677   5.481   6.889   2.676  0.3944 -0.2437  0.0235
11079SOL    HW134678   5.439   6.809   2.708  0.4092 -0.3420 -0.1990
11079SOL    HW234679   5.408   6.942   2.641  0.1774  0.5030  1.5194
11080SOL     OW34680   4.674   6.631  10.861 -0.0596  0.0824 -0.1133
11080SOL    HW134681   4.732   6.596  10.794  1.1365  1.3896  0.1849
11080SOL    HW234682   4.602   6.569  10.865  0.4700 -0.6988 -1.7008
11081SOL     OW34683   3.086   5.750  10.626  0.1582  0.6397  0.2258
11081SOL    HW134684   3.048   5.712  10.705  0.5946  1.5967  0.9187
11081SOL    HW234685   3.117   5.676  10.575 -0.2997  0.0010  0.8659
11082SOL     OW34686   4.264   4.597  11.101  0.0188 -0.3921  0.7151
11082SOL    HW134687   4.171   4.591  11.078 -0.2329  1.3939  1.0576
11082SOL    HW234688   4.281   4.519  11.154 -1.1127 -1.0760  0.1179
11083SOL     OW34689   6.793   0.587  10.112 -0.0933 -0.0154  0.0948
11083SOL    HW134690   6.879   0.628  10.107  1.2557 -2.6809  0.0159
11083SOL    HW234691   6.798   0.528  10.187 -1.4610 -1.0384 -0.5705
11084SOL     OW34692   5.846   0.693   5.701  0.0636 -0.0670  0.0902
11084SOL    HW134693   5.928   0.672   5.747  0.4770 -2.0488 -1.4081
11084SOL    HW234694   5.840   0.788   5.705  1.4054  0.0096  1.9344
11085SOL     OW34695   7.735   7.192   8.170 -0.6785  0.3070 -0.0682
11085SOL    HW134696   7.670   7.167   8.236 -0.5327 -0.2063 -0.1142
11085SOL    HW234697   7.810   7.222   8.221 -0.8783  0.7214 -0.0129
11086SOL     OW34698   0.360   1.650   9.298  0.7146 -0.3454  0.2339
11086SOL    HW134699   0.345   1.744   9.312 -0.6281 -0.7163  1.4851
11086SOL    HW234700   0.379   1.615   9.385  0.3438 -1.3921 -0.0907
11087SOL     OW34701   3.860   7.310   7.670  0.2952  0.1667  0.2252
11087SOL    HW134702   3.872   7.260   7.751  0.1891  0.4022  0.3894
11087SOL    HW234703   3.869   7.402   7.697 -2.0880  0.4131  0.4505
11088SOL     OW34704   0.218   3.871   3.372  0.3614 -0.4916  0.1308
11088SOL    HW134705   0.309   3.900   3.377  0.6306 -1.0308 -1.1656
11088SOL    HW234706   0.168   3.945   3.405  1.2080  0.2437 -0.1790
11089SOL     OW34707   5.419   1.203   9.716  0.5542 -0.1815 -0.3287
11089SOL    HW134708   5.396   1.291   9.687  1.5236  0.7009  1.3929
11089SOL    HW234709   5.505   1.213   9.758  0.6301 -1.9227  0.0167
11090SOL     OW34710   6.276   0.778   7.664 -0.2304  0.2667 -0.3637
11090SOL    HW134711   6.184   0.755   7.647 -0.1823  1.4576 -2.5318
11090SOL    HW234712   6.324   0.696   7.652 -0.8469 -0.0503 -0.6974
11091SOL     OW34713   0.350   2.275   6.905 -0.1749  0.6826  0.4780
11091SOL    HW134714   0.345   2.259   6.999  0.8585  0.5844  0.5376
11091SOL    HW234715   0.402   2.202   6.872  2.0376  2.2052  0.2987
11092SOL     OW34716   6.457   6.431  10.445  0.3329  0.0613 -0.0595
11092SOL    HW134717   6.474   6.501  10.381 -0.0119  0.1125 -0.0972
11092SOL    HW234718   6.368   6.403  10.426  0.3289 -0.1146  0.2217
11093SOL     OW34719   3.333   2.496   5.701  0.7348 -0.5022  0.3239
11093SOL    HW134720   3.385   2.545   5.765 -0.1808  0.9449 -0.0036
11093SOL    HW234721   3.348   2.541   5.618 -0.7257 -0.2828  0.1567
11094SOL     OW34722   1.583   6.513   5.682  0.2079  0.5659 -0.4938
11094SOL    HW134723   1.504   6.566   5.692  1.0745  1.6330  1.2374
11094SOL    HW234724   1.555   6.424   5.704 -0.8937  0.5587 -1.7846
11095SOL     OW34725   5.787   7.208   5.809  0.5467  0.7245 -0.3675
11095SOL    HW134726   5.834   7.216   5.892  0.4953  0.5413 -0.3204
11095SOL    HW234727   5.855   7.183   5.746  0.0092 -3.0853  0.3501
11096SOL     OW34728   4.362   4.774   9.568  0.5110  0.6244  0.3354
11096SOL    HW134729   4.455   4.776   9.591  1.0172  0.3877 -1.5218
11096SOL    HW234730   4.337   4.866   9.560  1.2700  0.7105 -1.5462
11097SOL     OW34731   3.016   7.371   9.294 -0.6435 -0.1055 -0.1730
11097SOL    HW134732   2.963   7.445   9.266  0.4907  0.5126 -0.7555
11097SOL    HW234733   3.105   7.392   9.264 -0.3582 -1.8629 -0.6950
11098SOL     OW34734   0.256   5.320   5.111  0.0040 -0.2630 -0.0474
11098SOL    HW134735   0.265   5.342   5.019 -1.1021 -1.1938 -0.4061
11098SOL    HW234736   0.184   5.375   5.142  1.0659  0.8328  0.5618
11099SOL     OW34737   6.970   6.793  11.374  0.4233  0.1278  0.5447
11099SOL    HW134738   6.910   6.765  11.305  0.1078 -3.0766  1.9367
11099SOL    HW234739   7.044   6.830  11.327  0.2284 -1.9158 -1.6044
11100SOL     OW34740   2.792   4.485   5.885  0.0198  0.3725  0.5004
11100SOL    HW134741   2.820   4.395   5.900 -1.2453 -0.3460 -1.1339
11100SOL    HW234742   2.827   4.508   5.799 -1.7514  0.5111 -0.2270
11101SOL     OW34743   4.807   2.411   0.557  0.4663 -0.0523  0.5461
11101SOL    HW134744   4.742   2.462   0.606  0.2592 -0.4546  0.6979
11101SOL    HW234745   4.818   2.330   0.608  0.9233 -0.0820  0.4046
11102SOL     OW34746   4.794   4.561  11.546  0.4291  0.8490  0.1219
11102SOL    HW134747   4.711   4.609  11.544 -0.1108  0.0482  1.7363
11102SOL    HW234748   4.833   4.576  11.459 -1.5333  0.9903 -0.7863
11103SOL     OW34749   6.568   1.405   1.368 -0.5729 -0.3832 -0.2210
11103SOL    HW134750   6.501   1.391   1.301 -1.5909 -3.0587  1.2028
11103SOL    HW234751   6.641   1.349   1.340 -0.9149 -1.3352  0.7432
11104SOL     OW34752   4.185   3.324   2.171 -0.6117  0.7247  0.1375
11104SOL    HW134753   4.108   3.278   2.205 -0.2353  0.7388  1.0397
11104SOL    HW234754   4.258   3.265   2.190 -0.2314  1.3249  0.5680
11105SOL     OW34755   3.317   7.112   9.891 -0.6218  0.6273  0.0971
11105SOL    HW134756   3.305   7.127   9.985 -0.0542 -1.3914  0.5251
11105SOL    HW234757   3.270   7.031   9.873 -0.1057  0.6001 -1.2050
11106SOL     OW34758   7.581   5.749   4.795  0.0048  0.5747 -0.1754
11106SOL    HW134759   7.495   5.745   4.837  0.2696  0.2165  0.3316
11106SOL    HW234760   7.606   5.658   4.782  0.6998  0.6634  0.4781
11107SOL     OW34761   6.839   6.858   0.882 -0.1137  0.3280  0.4909
11107SOL    HW134762   6.934   6.851   0.891  0.1014  2.7412  0.6071
11107SOL    HW234763   6.825   6.926   0.817 -1.8122 -0.9984 -0.6346
11108SOL     OW34764   3.788   3.677  10.726 -0.0510  0.1805  0.3568
11108SOL    HW134765   3.845   3.610  10.687  0.4125  1.1605 -0.6998
11108SOL    HW234766   3.775   3.647  10.816 -1.5065 -2.3712 -0.6024
11109SOL     OW34767   4.727   2.400   9.677  0.1036 -0.0087 -0.2713
11109SOL    HW134768   4.672   2.469   9.641 -0.7927 -0.5262  0.0507
11109SOL    HW234769   4.676   2.364   9.750 -0.0269 -1.8353 -1.2068
11110SOL     OW34770   7.183   5.116   2.114 -0.1513 -0.6633  0.2366
11110SOL    HW134771   7.115   5.049   2.107  0.9630 -1.6807 -1.8817
11110SOL    HW234772   7.254   5.073   2.163 -0.1281 -0.3909  0.4480
11111SOL     OW34773   7.806   3.055  10.601 -0.1618  0.3633  0.2771
11111SOL    HW134774   7.818   2.979  10.544  1.7209  0.5203  0.4055
11111SOL    HW234775   7.766   3.121  10.544  0.9386  0.2436 -0.6757
11112SOL     OW34776   3.317   2.601   0.733 -0.1499 -0.0260  0.1778
11112SOL    HW134777   3.333   2.594   0.827 -0.5384 -0.9963  0.1837
11112SOL    HW234778   3.236   2.552   0.719  0.4968 -0.8413 -0.8212
11113SOL     OW34779   7.458   5.273   6.009 -0.1261 -0.0167  0.0717
11113SOL    HW134780   7.437   5.363   6.036  0.3128  1.0025 -2.5999
11113SOL    HW234781   7.394   5.254   5.940  1.5081 -0.6244 -1.3528
11114SOL     OW34782   3.776   6.039  12.017  0.5887 -0.3603  0.2559
11114SOL    HW134783   3.765   6.005  11.928 -0.5883  1.2437 -0.2612
11114SOL    HW234784   3.852   5.992  12.051  1.7624 -0.2458 -1.9919
11115SOL     OW34785   7.693   1.762   1.747 -0.4551 -0.6908 -0.0578
11115SOL    HW134786   7.738   1.838   1.783  0.5729 -0.9867 -0.6690
11115SOL    HW234787   7.602   1.791   1.734  0.1522  0.8030 -1.2994
11116SOL     OW34788   1.166   5.708   9.034 -0.0635 -0.0213  0.5794
11116SOL    HW134789   1.260   5.691   9.048 -0.3836 -1.1349  1.5144
11116SOL    HW234790   1.164   5.794   8.991  1.3696  0.1738  0.8366
11117SOL     OW34791   6.183   5.302   4.354  0.4376 -0.3835 -0.1168
11117SOL    HW134792   6.172   5.220   4.307 -1.9842 -0.1598 -0.0919
11117SOL    HW234793   6.275   5.325   4.343  0.5601 -1.7190 -2.4058
11118SOL     OW34794   7.237   7.155   3.162 -0.3468 -0.0569 -0.2242
11118SOL    HW134795   7.142   7.147   3.169 -0.3546  0.3340  0.1814
11118SOL    HW234796   7.271   7.069   3.188 -0.4784  0.5926  2.4066
11119SOL     OW34797   6.519   6.229  11.785 -0.0797  0.3349 -0.0364
11119SOL    HW134798   6.476   6.261  11.706 -2.0384 -0.8482  0.5037
11119SOL    HW234799   6.585   6.297  11.804 -0.1676  1.1006 -2.1205
11120SOL     OW34800   1.584   6.881   8.893  0.2240  0.2658 -0.0572
11120SOL    HW134801   1.643   6.838   8.830  1.5675  1.7425  0.1295
11120SOL    HW234802   1.505   6.900   8.842 -0.0807 -1.6040 -0.3590
11121SOL     OW34803   0.166   1.245   0.845  0.2424  0.0977  0.0774
11121SOL    HW134804   0.102   1.302   0.801 -1.0266 -0.6253  0.9117
11121SOL    HW234805   0.142   1.251   0.937  2.4657  1.1109  0.6520
11122SOL     OW34806   2.923   5.102   1.739  0.9249 -0.3297 -0.9557
11122SOL    HW134807   2.930   5.010   1.713  0.5103 -0.5734 -0.2299
11122SOL    HW234808   2.934   5.101   1.834 -0.4341  0.2145 -0.7713
11123SOL     OW34809   7.112   3.954   8.986  0.0255  0.3543  0.2694
11123SOL    HW134810   7.092   4.032   8.934 -0.6051  1.0739  1.5412
11123SOL    HW234811   7.046   3.954   9.054 -0.5667 -1.8364 -0.2328
11124SOL     OW34812   1.175   6.316   1.014  0.5867  0.5444  0.6462
11124SOL    HW134813   1.169   6.228   1.050 -1.6474  0.4377  0.1105
11124SOL    HW234814   1.260   6.348   1.045  1.3912 -1.7114  0.9646
11125SOL     OW34815   3.987   2.594  11.420 -0.0374 -0.7184 -0.0762
11125SOL    HW134816   4.059   2.545  11.381  0.6158 -1.0450  1.4590
11125SOL    HW234817   4.028   2.645  11.489 -1.3270 -1.2951  1.1701
11126SOL     OW34818   4.008   2.517   2.699  0.5135  0.1264 -0.7258
11126SOL    HW134819   4.089   2.476   2.671  0.1807  0.1935 -1.8353
11126SOL    HW234820   4.036   2.598   2.743  1.0925 -0.5058  0.0929
11127SOL     OW34821   5.498   4.028   4.148 -0.5336  0.2416  0.0971
11127SOL    HW134822   5.445   3.971   4.205 -0.0940  0.3407  0.6109
11127SOL    HW234823   5.548   4.082   4.209  0.4244 -0.0925 -0.3862
11128SOL     OW34824   7.669   0.651   2.075 -0.2321 -0.5638  0.1795
11128SOL    HW134825   7.747   0.639   2.129  0.5068 -1.4785 -1.0092
11128SOL    HW234826   7.601   0.678   2.136  1.2274  1.1846  1.1245
11129SOL     OW34827   6.400   0.473   6.223  0.4098  0.2412 -0.1473
11129SOL    HW134828   6.480   0.437   6.186 -0.2540 -0.4772 -0.9546
11129SOL    HW234829   6.388   0.427   6.306  0.0870 -0.7276 -0.7124
11130SOL     OW34830   7.683   7.861  11.177 -1.0065 -0.1958  0.4146
11130SOL    HW134831   7.713   7.915  11.249 -0.5887 -2.4150  2.0119
11130SOL    HW234832   7.609   7.812  11.212 -1.5004 -0.5387 -1.0175
11131SOL     OW34833   6.631   2.867   6.609 -0.0065 -0.3882 -0.3477
11131SOL    HW134834   6.538   2.888   6.599 -0.7065 -3.5558 -1.5560
11131SOL    HW234835   6.632   2.779   6.646  2.5611 -0.1939  0.2175
11132SOL     OW34836   5.858   0.421   7.829 -0.2944  0.6755 -0.1278
11132SOL    HW134837   5.779   0.371   7.808  0.1757 -0.0745 -0.1130
11132SOL    HW234838   5.878   0.468   7.748  0.7054 -1.1245 -0.9838
11133SOL     OW34839   5.276   7.142   1.257 -0.0925  0.5975 -0.2282
11133SOL    HW134840   5.283   7.136   1.161 -2.6315 -0.9115 -0.4230
11133SOL    HW234841   5.354   7.098   1.289  0.4331  0.4563 -1.6330
11134SOL     OW34842   5.422   6.135   2.409  0.0110  0.5177 -0.6023
11134SOL    HW134843   5.462   6.165   2.327 -1.1945  1.1594 -0.9736
11134SOL    HW234844   5.428   6.040   2.405 -0.8745  0.4855 -1.8870
11135SOL     OW34845   5.293   1.471   9.333  0.5118 -0.2211 -0.3640
11135SOL    HW134846   5.247   1.409   9.389  0.6391  0.5169  0.5881
11135SOL    HW234847   5.228   1.537   9.311  0.9292  0.4729  0.4413
11136SOL     OW34848   2.657   7.896   4.105 -0.2721 -0.0187  0.0126
11136SOL    HW134849   2.666   7.976   4.156 -1.5855 -0.8370  1.6239
11136SOL    HW234850   2.627   7.926   4.019 -0.7322  1.2387  0.5821
11137SOL     OW34851   0.175   1.615   5.240 -0.3204 -0.2082 -0.4856
11137SOL    HW134852   0.243   1.550   5.257 -0.4788  0.0652  1.3914
11137SOL    HW234853   0.093   1.567   5.245 -0.3588 -0.2251 -1.1303
11138SOL     OW34854   7.974   6.478   4.541  0.1628 -0.0004 -0.0156
11138SOL    HW134855   7.979   6.551   4.479 -0.9945 -2.9522 -3.9892
11138SOL    HW234856   8.065   6.453   4.555  0.4387  0.2641 -1.1996
11139SOL     OW34857   5.436   6.494   0.053 -0.2627  0.0558  0.0917
11139SOL    HW134858   5.359   6.548   0.068 -0.6754 -0.8527  1.3613
11139SOL    HW234859   5.429   6.423   0.117  0.5219 -1.2244 -1.1738
11140SOL     OW34860   4.235   4.524   6.402 -0.8470 -0.1637 -0.0014
11140SOL    HW134861   4.321   4.566   6.393 -1.9969  2.0746 -1.4838
11140SOL    HW234862   4.201   4.558   6.485 -0.5809 -0.5655  0.2787
11141SOL     OW34863   2.114   4.822   7.098 -0.7296 -0.1568 -0.4961
11141SOL    HW134864   2.182   4.769   7.058 -0.2317  0.0741  0.0352
11141SOL    HW234865   2.064   4.760   7.152 -0.9169 -0.3160 -0.8494
11142SOL     OW34866   2.873   7.696   6.790  0.1198  0.4899 -0.4027
11142SOL    HW134867   2.815   7.665   6.720 -0.1562  1.3526 -0.5670
11142SOL    HW234868   2.854   7.790   6.797  0.0640  0.3885  0.9209
11143SOL     OW34869   5.003   6.125   7.286 -0.0077 -0.1365 -0.0646
11143SOL    HW134870   5.005   6.096   7.195 -0.6821 -0.3073 -0.0278
11143SOL    HW234871   4.916   6.164   7.297  0.6087  1.2586  0.0787
11144SOL     OW34872   7.680   3.633   9.584 -0.5127  0.2523 -0.9187
11144SOL    HW134873   7.706   3.541   9.583 -0.7077  0.0429  2.2917
11144SOL    HW234874   7.587   3.632   9.558 -0.6504 -0.5326 -0.4335
11145SOL     OW34875   3.306   6.639  12.399 -0.4168  0.2732 -0.2441
11145SOL    HW134876   3.271   6.552  12.420  1.0423 -0.8188 -2.0387
11145SOL    HW234877   3.389   6.621  12.355 -0.1496  2.5974 -0.8055
11146SOL     OW34878   1.681   6.196  11.984 -0.0379 -0.3791 -0.0376
11146SOL    HW134879   1.669   6.164  12.073 -1.3663 -0.2996 -0.1577
11146SOL    HW234880   1.746   6.266  11.992  2.8851 -2.9217  0.2470
11147SOL     OW34881   3.241   6.279  11.408 -0.3952  0.0797  0.3265
11147SOL    HW134882   3.311   6.337  11.437 -0.5971  0.1457  0.6859
11147SOL    HW234883   3.228   6.301  11.316  0.7715 -0.6561 -0.0435
11148SOL     OW34884   2.985   7.842   2.982  0.5022 -0.2613  0.1080
11148SOL    HW134885   3.008   7.756   2.946 -0.7238 -1.0178  1.0385
11148SOL    HW234886   3.061   7.897   2.964  2.2998 -2.1378  1.5001
11149SOL     OW34887   7.283   7.329   1.368 -0.0505 -0.6755  0.2748
11149SOL    HW134888   7.283   7.233   1.361  1.0814 -0.6986  0.4440
11149SOL    HW234889   7.213   7.348   1.431  1.2356 -1.5473  2.0587
11150SOL     OW34890   3.205   7.782   3.930  0.7946 -0.7438  0.0793
11150SOL    HW134891   3.135   7.760   3.991 -1.1505  0.7535 -1.5110
11150SOL    HW234892   3.264   7.838   3.981 -1.2381  1.1921  0.4266
11151SOL     OW34893   5.436   2.176   3.302  0.1016  0.2045 -0.9687
11151SOL    HW134894   5.467   2.261   3.334  0.3065  0.6003 -2.1904
11151SOL    HW234895   5.500   2.150   3.236  0.1322 -0.9962 -0.4986
11152SOL     OW34896   3.158   0.037  11.735  0.0287 -0.7661 -0.3062
11152SOL    HW134897   3.199  -0.029  11.791  0.3809 -0.8761 -0.6874
11152SOL    HW234898   3.087   0.073  11.788 -0.7799 -2.1169 -0.4268
11153SOL     OW34899   3.027   7.107   9.236 -0.2339 -0.2994 -0.0956
11153SOL    HW134900   2.939   7.072   9.241  0.1375 -1.2391  0.0948
11153SOL    HW234901   3.015   7.202   9.230 -1.2531 -0.4313 -0.3128
11154SOL     OW34902   6.669   3.477   6.258 -0.0358 -0.2679  0.0172
11154SOL    HW134903   6.676   3.561   6.304  1.5896 -0.8872  1.0092
11154SOL    HW234904   6.641   3.500   6.170  0.3211  1.3131  0.2818
11155SOL     OW34905   7.690   3.551   2.345 -0.2298  0.2056  0.4692
11155SOL    HW134906   7.732   3.497   2.412  1.4206 -0.1640 -0.7937
11155SOL    HW234907   7.694   3.499   2.265 -0.9405  1.1675 -0.2232
11156SOL     OW34908   3.731   0.165   0.344 -0.4387 -0.2310 -0.2284
11156SOL    HW134909   3.666   0.144   0.277 -2.2671  1.1946  1.0071
11156SOL    HW234910   3.810   0.187   0.294 -1.7738  0.9181 -1.9538
11157SOL     OW34911   7.261   2.954   0.031  0.1988  0.1850  0.8221
11157SOL    HW134912   7.203   2.990   0.098  1.6822 -0.2174  2.3927
11157SOL    HW234913   7.299   2.876   0.072  0.8150 -0.3247 -0.6590
11158SOL     OW34914   5.873   5.670   7.382 -0.1807  0.0412  0.0889
11158SOL    HW134915   5.877   5.711   7.469  1.5245 -0.1862  0.1358
11158SOL    HW234916   5.806   5.720   7.336 -2.0996 -0.6632  1.9324
11159SOL     OW34917   1.491   7.451   2.016  0.1340  0.6057 -0.0971
11159SOL    HW134918   1.488   7.450   2.112 -0.6715 -0.2450 -0.1090
11159SOL    HW234919   1.424   7.515   1.991 -1.4331 -0.9401 -0.0870
11160SOL     OW34920   7.267   1.765  11.994 -0.0002 -0.0508  0.6595
11160SOL    HW134921   7.258   1.702  12.066  0.2027  0.1752  0.8873
11160SOL    HW234922   7.361   1.770  11.978  0.1243  1.2396  1.6033
11161SOL     OW34923   1.460   3.216   2.744  0.3326  0.1735  0.7607
11161SOL    HW134924   1.397   3.192   2.813  0.0740  0.6851  0.7058
11161SOL    HW234925   1.478   3.309   2.759  0.6969  0.1506  0.4715
11162SOL     OW34926   7.862   5.934   0.242 -0.0918  0.8347 -0.0401
11162SOL    HW134927   7.882   5.938   0.148 -3.0688 -0.9840 -0.8732
11162SOL    HW234928   7.948   5.931   0.284  1.3488  0.4823 -2.7574
11163SOL     OW34929   3.289   5.085   8.076  0.3198  0.0108 -0.1796
11163SOL    HW134930   3.333   5.167   8.099  1.9313 -0.5262 -1.1494
11163SOL    HW234931   3.329   5.059   7.993 -0.4306 -1.5552 -0.0874
11164SOL     OW34932   6.092   5.213   9.591  0.0332  0.2353  0.7670
11164SOL    HW134933   6.161   5.147   9.603 -1.3399 -0.9234  3.1635
11164SOL    HW234934   6.123   5.268   9.520  1.9530 -2.1225 -0.3702
11165SOL     OW34935   2.354   2.042   9.376  0.3518  0.1805 -0.2855
11165SOL    HW134936   2.324   1.952   9.361  0.8780  0.2001 -1.6315
11165SOL    HW234937   2.446   2.041   9.351  0.9176  0.6464  1.6209
11166SOL     OW34938   0.120   6.730   1.310 -0.1389  0.3121  0.6167
11166SOL    HW134939   0.172   6.720   1.230 -0.7816 -2.5164  0.4557
11166SOL    HW234940   0.057   6.799   1.289 -2.4493 -2.4115 -2.6774
11167SOL     OW34941   3.794   7.496   9.390 -0.4650 -0.2029 -0.0736
11167SOL    HW134942   3.873   7.527   9.436 -1.2817 -0.6324  1.6814
11167SOL    HW234943   3.828   7.442   9.318  0.8518  0.3871  0.0750
11168SOL     OW34944   0.775   1.889   8.593  0.3527 -0.1126  0.6745
11168SOL    HW134945   0.736   1.942   8.662  0.2492 -0.5275  0.9421
11168SOL    HW234946   0.713   1.893   8.521 -0.8581 -1.7991  1.5471
11169SOL     OW34947   1.593   4.481   2.498 -0.7115 -0.0716  0.5262
11169SOL    HW134948   1.537   4.558   2.505 -0.2150  0.3141  0.2547
11169SOL    HW234949   1.582   4.452   2.407  0.7545  0.9484 -0.0030
11170SOL     OW34950   1.289   7.731   8.103 -0.3309 -0.0059 -0.1476
11170SOL    HW134951   1.293   7.759   8.195 -1.1342  0.2309 -0.1767
11170SOL    HW234952   1.353   7.786   8.058  1.1926 -1.1689  0.5200
11171SOL     OW34953   1.323   2.347   3.464 -0.0161 -0.5035 -0.1035
11171SOL    HW134954   1.387   2.305   3.521 -0.2993 -1.7196 -0.6406
11171SOL    HW234955   1.293   2.424   3.513 -0.1476 -1.4273  1.3268
11172SOL     OW34956   7.642   7.859   7.673  0.2506  0.1964 -0.1491
11172SOL    HW134957   7.706   7.903   7.617  1.2569 -2.3587 -1.1523
11172SOL    HW234958   7.693   7.823   7.746 -0.4368  0.2398  0.3610
11173SOL     OW34959   7.377   1.472  11.083  0.7553  0.2679  0.6279
11173SOL    HW134960   7.371   1.418  11.162  0.8574  1.6115  1.5899
11173SOL    HW234961   7.303   1.532  11.090  1.5369  1.2843  0.4075
11174SOL     OW34962   1.463   2.252   9.707  0.1142  0.1557  0.2080
11174SOL    HW134963   1.515   2.249   9.627 -0.6620 -2.2114 -0.2956
11174SOL    HW234964   1.516   2.302   9.769  1.7689  0.0732 -1.0811
11175SOL     OW34965   2.447   6.627  10.982 -0.4525 -0.5988  0.2858
11175SOL    HW134966   2.458   6.573  11.060  2.5100  0.8159  0.9706
11175SOL    HW234967   2.514   6.597  10.921 -0.1546  0.8579 -0.1493
11176SOL     OW34968   6.261   1.213   3.542 -0.4890  0.2924 -0.4594
11176SOL    HW134969   6.185   1.155   3.533 -1.2030  1.0723  0.3092
11176SOL    HW234970   6.238   1.270   3.615  0.2651  1.4228 -1.0787
11177SOL     OW34971   1.857   3.010   7.751 -0.3841  0.9951  0.1940
11177SOL    HW134972   1.776   2.996   7.801 -0.8766 -0.7490 -0.9958
11177SOL    HW234973   1.927   3.001   7.815 -0.9887 -1.2131  0.6246
11178SOL     OW34974   5.397   3.604   0.026 -0.3903 -0.0335  0.6095
11178SOL    HW134975   5.453   3.653   0.086 -0.4269 -0.5624  1.0868
11178SOL    HW234976   5.323   3.663   0.010 -1.2741 -0.5257  2.4916
11179SOL     OW34977   3.170   7.913   6.449  0.1980 -0.3707 -0.1735
11179SOL    HW134978   3.137   7.935   6.362  4.0631 -0.6515 -1.9441
11179SOL    HW234979   3.158   7.818   6.456  0.0938 -0.3821 -0.4950
11180SOL     OW34980   4.076   0.892   6.353 -0.0462 -0.1008  0.0964
11180SOL    HW134981   4.161   0.861   6.383 -1.0068 -2.1942  0.8724
11180SOL    HW234982   4.096   0.968   6.299  2.4842 -1.7550 -1.4973
11181SOL     OW34983   5.133   5.131   5.984  0.2243  0.5193 -0.4350
11181SOL    HW134984   5.194   5.186   6.033 -1.5601 -0.4354  3.1358
11181SOL    HW234985   5.057   5.187   5.967  0.4701  0.5805 -1.4198
11182SOL     OW34986   4.677   4.669   2.846 -0.1533  0.3848  0.0414
11182SOL    HW134987   4.732   4.642   2.919  1.4691  2.8193 -0.1612
11182SOL    HW234988   4.591   4.632   2.866  0.8565 -1.1666  1.8336
11183SOL     OW34989   5.047   0.479   8.858  0.3310 -0.6164  0.0945
11183SOL    HW134990   5.057   0.522   8.943  2.2764 -2.9623  1.1862
11183SOL    HW234991   5.059   0.386   8.877  3.0057 -1.0653 -3.0248
11184SOL     OW34992   5.076   0.880  10.095  0.1269 -0.1868  0.4325
11184SOL    HW134993   5.069   0.905  10.002  1.6522 -0.3345  0.2558
11184SOL    HW234994   5.107   0.790  10.093 -1.3357 -0.7411  1.1052
11185SOL     OW34995   1.351   4.876   3.162 -0.2711 -0.4588 -0.2355
11185SOL    HW134996   1.418   4.893   3.229  0.2483 -0.0650 -0.8492
11185SOL    HW234997   1.288   4.818   3.206  0.3361 -0.6344  0.4286
11186SOL     OW34998   2.922   7.986   6.697 -0.0309  0.2856  0.0255
11186SOL    HW134999   2.996   8.044   6.682  0.7179 -0.6684 -0.1178
11186SOL    HW235000   2.859   8.008   6.628  0.5664  0.4184 -0.4885
11187SOL     OW35001   7.420   6.573   6.482  0.3344 -0.4155  0.5584
11187SOL    HW135002   7.414   6.533   6.569  2.0359  0.6369  1.1944
11187SOL    HW235003   7.346   6.535   6.433 -0.9746 -0.6296  2.5987
11188SOL     OW35004   3.295   1.555   2.693  0.4880 -0.0517 -0.1910
11188SOL    HW135005   3.317   1.464   2.671  0.0947  0.1032 -1.3259
11188SOL    HW235006   3.312   1.603   2.612  0.0310  0.7658  0.1925
11189SOL     OW35007   2.570   2.704   7.878  0.5237  0.1514  0.2935
11189SOL    HW135008   2.480   2.677   7.898 -0.5492  1.4237 -2.3568
11189SOL    HW235009   2.602   2.742   7.960 -0.6803 -1.8546  1.8064
11190SOL     OW35010   6.391   2.876   3.080 -0.1225 -0.6775  0.2472
11190SOL    HW135011   6.485   2.878   3.095 -0.4953 -0.5470  2.9708
11190SOL    HW235012   6.371   2.963   3.046  0.8551 -1.1221 -1.6073
11191SOL     OW35013   7.687   4.191   2.951  0.5030 -0.2480 -0.6701
11191SOL    HW135014   7.610   4.220   3.000  1.7801  0.3944  1.0547
11191SOL    HW235015   7.688   4.096   2.961 -0.1659 -0.2801 -0.8802
11192SOL     OW35016   4.826   1.650  10.086  0.7122  0.2845  0.3170
11192SOL    HW135017   4.805   1.734  10.045  1.1832  0.0741 -0.3679
11192SOL    HW235018   4.903   1.667  10.140  0.6674  0.3483  0.3595
11193SOL     OW35019   4.679   0.866  11.667  0.3429  0.1603  0.2624
11193SOL    HW135020   4.658   0.872  11.574 -0.6530 -1.3390  0.3387
11193SOL    HW235021   4.659   0.775  11.690  1.2777  0.2960  1.7804
11194SOL     OW35022   7.152   7.875  10.316  0.2232 -0.2349 -0.2117
11194SOL    HW135023   7.060   7.851  10.318  0.5074 -1.3850  0.0918
11194SOL    HW235024   7.182   7.864  10.407  1.0943 -1.7917 -0.6438
11195SOL     OW35025   0.519   5.914   2.462 -0.0716  0.4384 -0.5460
11195SOL    HW135026   0.518   5.849   2.532 -0.4372 -0.5991 -1.4818
11195SOL    HW235027   0.487   5.867   2.385  0.5041  1.5016 -1.4639
11196SOL     OW35028   0.555   3.320  12.311  0.1034  0.2599 -0.0710
11196SOL    HW135029   0.623   3.387  12.316 -0.4085  0.7666  0.2118
11196SOL    HW235030   0.596   3.248  12.262  1.0821  0.2541  0.7236
11197SOL     OW35031   7.692   5.621   8.352 -0.3431  0.0473  0.4328
11197SOL    HW135032   7.614   5.669   8.378  0.0681  0.2304  1.3445
11197SOL    HW235033   7.744   5.684   8.301 -1.8067 -0.7159 -2.2108
11198SOL     OW35034   0.303   6.930   0.518 -0.2578  0.1485 -0.1732
11198SOL    HW135035   0.284   6.913   0.426 -1.2148  0.2664 -0.0080
11198SOL    HW235036   0.274   6.851   0.564 -0.6272  0.4546  0.1222
11199SOL     OW35037   2.602   0.131   0.769 -0.4277  0.3116  0.4544
11199SOL    HW135038   2.526   0.085   0.733 -0.1774  0.6006 -0.4576
11199SOL    HW235039   2.674   0.069   0.758 -0.1836  0.7213 -0.3470
11200SOL     OW35040   5.219   0.699   8.112 -0.0869 -0.4563  0.2975
11200SOL    HW135041   5.291   0.713   8.051 -1.9991  0.1512 -1.9171
11200SOL    HW235042   5.207   0.783   8.156  1.4830 -0.9748  1.8497
11201SOL     OW35043   4.049   5.744   4.060  0.5015 -0.2467  0.3211
11201SOL    HW135044   4.061   5.792   4.142 -0.2341  1.9140 -0.7590
11201SOL    HW235045   3.961   5.706   4.067  0.5351 -0.2649  0.6411
11202SOL     OW35046   2.023   0.443   5.155 -0.3064  0.1288 -0.4361
11202SOL    HW135047   2.085   0.409   5.090 -0.5899  2.0574 -1.8017
11202SOL    HW235048   2.060   0.528   5.181 -1.2331  0.2833  0.4406
11203SOL     OW35049   7.075   6.428   8.368 -0.2437  0.2079  0.0386
11203SOL    HW135050   6.990   6.452   8.331 -1.1642  0.5233  2.2180
11203SOL    HW235051   7.067   6.446   8.461  1.4210 -2.0455  0.7117
11204SOL     OW35052   1.578   3.333  11.414  0.1504  0.3370  0.1130
11204SOL    HW135053   1.564   3.426  11.435 -2.9813  0.0491 -0.2776
11204SOL    HW235054   1.570   3.289  11.498  1.0696  0.3389  0.2113
11205SOL     OW35055   5.227   2.453   1.043 -0.4046 -0.1887  0.1862
11205SOL    HW135056   5.139   2.420   1.027  0.1100 -1.2569 -0.5545
11205SOL    HW235057   5.248   2.424   1.132 -0.7697  0.0223  0.3452
11206SOL     OW35058   3.228   2.718   1.855 -0.1763 -0.2582 -0.3728
11206SOL    HW135059   3.166   2.788   1.835 -2.0567 -1.7140  0.0807
11206SOL    HW235060   3.211   2.696   1.946  0.3084 -1.3898 -0.5450
11207SOL     OW35061   4.810   0.319  10.788  0.6345 -0.7838  0.0093
11207SOL    HW135062   4.829   0.230  10.760 -0.3442 -0.5889 -1.3408
11207SOL    HW235063   4.831   0.320  10.882  0.1956 -2.5540  0.1489
11208SOL     OW35064   4.656   1.834   2.090 -0.1518 -0.1034 -0.0849
11208SOL    HW135065   4.710   1.789   2.024  1.7410  0.0350  1.2849
11208SOL    HW235066   4.604   1.764   2.129  1.2295 -0.8081  0.5871
11209SOL     OW35067   6.174   3.312   0.855 -0.1579  0.0514  0.1745
11209SOL    HW135068   6.146   3.332   0.766 -1.9609  1.4050  0.9812
11209SOL    HW235069   6.095   3.323   0.908  0.7299 -1.2694  1.8869
11210SOL     OW35070   0.452   3.000   9.763 -0.0359  0.1972 -0.1832
11210SOL    HW135071   0.457   2.932   9.831  2.3677 -0.9720 -1.3963
11210SOL    HW235072   0.519   3.063   9.789 -1.1125  1.2842  0.0306
11211SOL     OW35073   0.726   2.483  11.802 -0.3376 -0.4612  0.6166
11211SOL    HW135074   0.789   2.515  11.737 -1.8516  1.3415 -0.0829
11211SOL    HW235075   0.675   2.417  11.754  0.5211 -1.4057  0.9693
11212SOL     OW35076   0.516   3.849  10.715 -0.0760  0.4419 -0.3221
11212SOL    HW135077   0.589   3.825  10.658 -1.0678 -0.6070 -1.1903
11212SOL    HW235078   0.437   3.832  10.663 -0.9618  1.4260  0.6296
11213SOL     OW35079   0.154   7.517   0.156  0.0549  0.0666  0.2485
11213SOL    HW135080   0.181   7.487   0.243 -3.3082 -1.0582  1.0307
11213SOL    HW235081   0.171   7.611   0.158  2.8933 -0.3357  0.8757
11214SOL     OW35082   4.260   4.251   9.785 -0.2052 -0.6296  0.3853
11214SOL    HW135083   4.221   4.236   9.699 -1.3475 -0.3790  0.8545
11214SOL    HW235084   4.301   4.337   9.779 -0.0010 -0.7529 -0.0046
11215SOL     OW35085   7.355   5.176   8.877 -0.1216 -0.0041 -0.0552
11215SOL    HW135086   7.324   5.210   8.962  0.5505  1.7572 -0.4681
11215SOL    HW235087   7.428   5.118   8.900  0.0333  0.4273  0.5825
11216SOL     OW35088   5.952   4.424  12.080  0.4577  0.0857 -0.2359
11216SOL    HW135089   5.960   4.472  11.998 -1.6159 -0.2352 -0.6821
11216SOL    HW235090   5.869   4.454  12.118  1.0665 -0.2144  1.4547
11217SOL     OW35091   1.158   7.286   0.078 -0.1230  0.4782  0.1734
11217SOL    HW135092   1.179   7.319  -0.010  0.3014 -1.3821 -0.4548
11217SOL    HW235093   1.177   7.360   0.136 -0.7613  1.8757 -1.3045
11218SOL     OW35094   0.939   1.743  10.166  0.2819  0.2077  0.0853
11218SOL    HW135095   1.009   1.678  10.162  1.8680  1.8847 -1.3801
11218SOL    HW235096   0.949   1.784  10.252 -1.6030 -2.2613  1.6162
11219SOL     OW35097   7.364   7.433   3.775  0.3504  0.1912  0.2201
11219SOL    HW135098   7.406   7.379   3.708  0.4290  0.6650 -0.1161
11219SOL    HW235099   7.289   7.381   3.804 -0.6743  0.6777 -1.4397
11220SOL     OW35100   7.426   4.708   6.548  0.3567 -0.1938  0.4113
11220SOL    HW135101   7.411   4.800   6.572  1.0767  0.0626 -0.0854
11220SOL    HW235102   7.347   4.663   6.576  0.2922  0.4548  1.3182
11221SOL     OW35103   4.600   4.131   2.315 -0.0556  0.2845 -0.0366
11221SOL    HW135104   4.644   4.071   2.255  0.7151  0.0918  0.6972
11221SOL    HW235105   4.607   4.217   2.273  0.4105  0.1376 -0.2606
11222SOL     OW35106   5.006   6.007   1.458 -0.0202 -0.6267  0.1033
11222SOL    HW135107   5.089   6.056   1.456  1.6141 -3.2625 -1.2176
11222SOL    HW235108   4.956   6.044   1.386  1.4531 -1.2644 -1.3092
11223SOL     OW35109   1.028   7.300   8.522  0.1184  0.6860  0.1976
11223SOL    HW135110   0.954   7.308   8.462  0.9961 -1.1325 -1.2189
11223SOL    HW235111   1.001   7.232   8.584  0.4094  0.3002 -0.0873
11224SOL     OW35112   2.574   5.900  11.008  0.3529 -0.2121 -0.0908
11224SOL    HW135113   2.608   5.815  10.981  0.9016 -0.6356  1.7961
11224SOL    HW235114   2.500   5.880  11.065  0.0709  0.5997 -0.1517
11225SOL     OW35115   4.875   0.624  12.137  0.6127 -0.2407 -0.1172
11225SOL    HW135116   4.950   0.568  12.158  0.6442 -0.5642 -1.0427
11225SOL    HW235117   4.914   0.703  12.100  0.5989  0.6836  1.7338
11226SOL     OW35118   1.438   7.533  12.406 -0.1620  0.0012  0.0806
11226SOL    HW135119   1.510   7.519  12.345  0.7869 -0.2593  1.2157
11226SOL    HW235120   1.376   7.463  12.386  1.3176 -1.6843  1.0602
11227SOL     OW35121   4.827   0.455   7.465  0.2850  0.0038 -0.0061
11227SOL    HW135122   4.876   0.515   7.522 -0.6532  0.5660  0.2158
11227SOL    HW235123   4.756   0.423   7.520 -1.1892  1.2659 -1.1200
11228SOL     OW35124   2.858   1.563  11.571 -0.8488  0.4743  0.1007
11228SOL    HW135125   2.924   1.546  11.503 -1.2899 -0.4171 -0.1188
11228SOL    HW235126   2.804   1.633  11.535 -1.3758 -0.3159 -0.6928
11229SOL     OW35127   6.199   4.390   1.022  0.0397 -0.1962 -0.6664
11229SOL    HW135128   6.252   4.325   0.976 -0.2252 -0.0817 -1.1395
11229SOL    HW235129   6.174   4.453   0.955 -0.1789  0.0901 -0.3235
11230SOL     OW35130   1.611   1.551   8.913  0.1390 -0.6773 -0.4438
11230SOL    HW135131   1.572   1.464   8.922 -1.6829  0.0782 -0.5947
11230SOL    HW235132   1.562   1.606   8.973  2.8440 -0.1593  1.4935
11231SOL     OW35133   4.877   4.775   4.503  0.0282 -0.3909 -0.1916
11231SOL    HW135134   4.820   4.778   4.580  0.2714 -1.5166  0.0460
11231SOL    HW235135   4.839   4.707   4.448 -1.1992  1.5876 -1.9444
11232SOL     OW35136   7.333   2.360   9.582 -0.1728  0.3395  0.1249
11232SOL    HW135137   7.363   2.446   9.551  0.8699 -0.1751 -0.3435
11232SOL    HW235138   7.307   2.375   9.673 -0.7080  1.3018 -0.1748
11233SOL     OW35139   7.684   3.990   3.228 -0.2991  0.3047 -0.1619
11233SOL    HW135140   7.770   3.952   3.244  0.7468  1.7870 -1.8842
11233SOL    HW235141   7.668   3.977   3.135 -1.6770  0.5950  0.0110
11234SOL     OW35142   1.897   4.637  10.028  0.4694  0.0646  0.0886
11234SOL    HW135143   1.868   4.707  10.086  0.7461  0.6820 -0.5020
11234SOL    HW235144   1.930   4.569  10.087  0.0802  0.3710  0.6719
11235SOL     OW35145   0.120   6.951   4.051 -0.4445 -0.2198 -0.8009
11235SOL    HW135146   0.107   7.018   3.984  0.7675  0.2406 -0.6025
11235SOL    HW235147   0.214   6.933   4.049 -0.5317 -0.8561  0.1462
11236SOL     OW35148   6.375   5.583   6.513 -0.1673  0.0848 -0.1396
11236SOL    HW135149   6.334   5.597   6.427  2.7949  0.6495 -1.5716
11236SOL    HW235150   6.302   5.557   6.570 -2.1979 -0.7615 -2.9000
11237SOL     OW35151   4.938   4.710   3.680  0.3683 -0.4352  0.4198
11237SOL    HW135152   5.032   4.691   3.679  0.1413 -1.6358  0.5790
11237SOL    HW235153   4.916   4.721   3.587  0.5915 -0.5322  0.3533
11238SOL     OW35154   2.960   7.493   7.966 -0.0029 -0.4383 -0.2722
11238SOL    HW135155   2.957   7.415   8.022 -0.4318 -0.9878 -1.0508
11238SOL    HW235156   3.045   7.487   7.922  0.8022  0.5401  1.0531
11239SOL     OW35157   5.267   2.598   1.762 -0.0923  0.4960 -0.9234
11239SOL    HW135158   5.268   2.686   1.723  0.2611  0.7310 -0.3904
11239SOL    HW235159   5.179   2.590   1.798  0.5139  1.4864  0.9110
11240SOL     OW35160   4.345   4.503   9.739 -0.2299 -0.3230 -0.0776
11240SOL    HW135161   4.338   4.532   9.830 -0.9551 -0.2460 -0.1543
11240SOL    HW235162   4.324   4.580   9.687 -1.8464 -0.8653 -0.2806
11241SOL     OW35163   1.174   2.379   6.841 -0.5682  0.0053 -0.4702
11241SOL    HW135164   1.187   2.449   6.905  1.4959 -0.3142 -0.4754
11241SOL    HW235165   1.189   2.298   6.891 -1.1743 -0.3594 -0.8667
11242SOL     OW35166   0.862   0.275   8.355  0.4496 -0.4542 -0.1600
11242SOL    HW135167   0.854   0.254   8.448  0.2665 -0.4820 -0.1809
11242SOL    HW235168   0.918   0.352   8.353 -1.2440  0.8437  0.1376
11243SOL     OW35169   5.632   3.906   1.520  0.0490 -0.1343  0.2602
11243SOL    HW135170   5.614   3.939   1.432  2.8049  1.5010  0.1751
11243SOL    HW235171   5.697   3.837   1.506  0.9179  0.5118  1.0079
11244SOL     OW35172   3.734   2.574   2.638  0.3590 -0.1969  0.2857
11244SOL    HW135173   3.812   2.565   2.692  0.4245 -0.0968  0.2072
11244SOL    HW235174   3.675   2.505   2.670  1.4961 -2.0629 -1.4462
11245SOL     OW35175   6.918   2.670   4.897 -0.3254  0.2072 -0.3647
11245SOL    HW135176   6.858   2.740   4.871 -0.8478 -0.5738 -1.3161
11245SOL    HW235177   6.867   2.589   4.885  0.5184 -0.3848 -0.0153
11246SOL     OW35178   6.295   3.023   9.331 -0.3968 -0.1279 -0.2020
11246SOL    HW135179   6.370   3.047   9.276  0.8376 -4.0368 -0.6036
11246SOL    HW235180   6.331   3.016   9.419 -0.0965 -2.2629 -0.4353
11247SOL     OW35181   3.942   6.230   4.291 -0.1758 -0.1796  0.5852
11247SOL    HW135182   4.003   6.167   4.253  0.5646  0.6957  0.2764
11247SOL    HW235183   3.857   6.207   4.254  0.5494  0.7700 -1.8295
11248SOL     OW35184   7.196   6.171   5.312  0.5087 -0.3939  0.4358
11248SOL    HW135185   7.149   6.088   5.317  0.8101 -0.5648  0.4409
11248SOL    HW235186   7.275   6.157   5.363  1.1238 -0.4868 -0.5173
11249SOL     OW35187   3.776   5.057   2.705  1.3436 -0.0251  0.6594
11249SOL    HW135188   3.852   5.059   2.763  0.5851 -2.7745  1.8860
11249SOL    HW235189   3.775   4.968   2.669 -1.3716 -0.1565  0.8479
11250SOL     OW35190   7.684   6.622   6.367  0.3129  0.7277  0.0671
11250SOL    HW135191   7.592   6.622   6.393  0.3534  0.1525  0.2490
11250SOL    HW235192   7.684   6.601   6.274  0.2982 -0.4433  0.3115
11251SOL     OW35193   5.549   1.653   2.514  0.2929  0.4826  0.2088
11251SOL    HW135194   5.490   1.578   2.512  0.1503  0.6112 -1.0353
11251SOL    HW235195   5.636   1.617   2.498  0.2093  0.5891 -0.5039
11252SOL     OW35196   4.066   7.403   3.150  0.0857  0.6137 -0.1053
11252SOL    HW135197   4.156   7.404   3.118  0.0024  3.3960 -0.4803
11252SOL    HW235198   4.073   7.430   3.242 -0.0098 -4.0250  1.5472
11253SOL     OW35199   7.068   3.527   3.011  0.4038  0.1068  0.0232
11253SOL    HW135200   7.064   3.588   2.938  0.2638  1.1100  0.8420
11253SOL    HW235201   7.148   3.477   2.996 -1.2977 -2.1138 -2.6212
11254SOL     OW35202   3.108   6.157   2.189  0.8882  0.1093  0.1960
11254SOL    HW135203   3.184   6.118   2.231  1.2547 -0.8465 -1.2605
11254SOL    HW235204   3.080   6.227   2.248  2.8162  0.4022  0.8168
11255SOL     OW35205   7.290   7.155   7.140  0.6508  0.1440 -0.4286
11255SOL    HW135206   7.230   7.091   7.101  1.3828 -0.9128  0.1353
11255SOL    HW235207   7.367   7.153   7.083  0.7088  0.4677 -0.3638
11256SOL     OW35208   5.582   6.501  10.203 -0.1654  0.3037  0.4675
11256SOL    HW135209   5.619   6.579  10.244 -0.9914  0.4320  0.9946
11256SOL    HW235210   5.530   6.534  10.130 -0.3834  0.2339  0.5910
11257SOL     OW35211   2.298   6.282  10.449 -0.8158 -0.1431  0.2828
11257SOL    HW135212   2.215   6.295  10.495 -0.2083  0.2126  1.3177
11257SOL    HW235213   2.351   6.229  10.509 -0.7748 -1.5719 -0.9624
11258SOL     OW35214   0.921   2.228  11.161  0.3711 -0.2418  0.5152
11258SOL    HW135215   0.865   2.260  11.232 -1.9262 -0.1623 -1.2051
11258SOL    HW235216   0.867   2.164  11.115  1.2734  0.6197 -1.9106
11259SOL     OW35217   5.313   7.807   2.303 -0.2419  0.0957  0.0607
11259SOL    HW135218   5.398   7.852   2.296 -1.3460  2.4808  0.8441
11259SOL    HW235219   5.306   7.758   2.221  2.1223 -0.6717  0.2292
11260SOL     OW35220   3.280   0.174   8.182 -0.0348 -0.3470  0.2308
11260SOL    HW135221   3.298   0.173   8.088  1.7213  2.8713  0.3883
11260SOL    HW235222   3.294   0.083   8.210  0.7972 -1.1163 -2.3704
11261SOL     OW35223   7.394   5.902   3.975  0.6800 -0.3202  0.3394
11261SOL    HW135224   7.358   5.880   4.061 -0.8989  0.3517 -0.1088
11261SOL    HW235225   7.460   5.969   3.994 -0.5658  0.8023  0.9719
11262SOL     OW35226   1.895   4.165   8.345  0.3676 -0.1308 -0.4269
11262SOL    HW135227   1.860   4.196   8.261 -0.1122 -1.0074 -0.5770
11262SOL    HW235228   1.872   4.233   8.408  0.0012  0.1602 -0.8664
11263SOL     OW35229   1.395   0.326  11.292  0.2896 -0.1033  0.5713
11263SOL    HW135230   1.372   0.320  11.200 -1.0474 -2.3210  0.9810
11263SOL    HW235231   1.485   0.295  11.297  0.1941 -0.4650  0.0660
11264SOL     OW35232   2.500   6.472   8.789 -0.6935 -0.0427 -0.1461
11264SOL    HW135233   2.457   6.390   8.816  0.1426 -0.2418  0.6309
11264SOL    HW235234   2.514   6.520   8.871 -0.9796  0.7846 -0.5781
11265SOL     OW35235   7.423   0.236   3.365  0.2215 -0.4542  0.0684
11265SOL    HW135236   7.337   0.259   3.400  0.6339  1.2077  0.1036
11265SOL    HW235237   7.481   0.304   3.399  1.8253 -2.2510  1.0999
11266SOL     OW35238   1.547   2.365   9.203 -0.2059  0.0697  0.3551
11266SOL    HW135239   1.481   2.358   9.134 -0.7370  0.6033  0.7936
11266SOL    HW235240   1.624   2.399   9.158  0.9096 -3.5608 -0.8413
11267SOL     OW35241   7.020   0.806   2.186  0.1714 -0.0397 -0.3050
11267SOL    HW135242   6.981   0.793   2.273 -0.2409 -2.7334 -0.8011
11267SOL    HW235243   7.109   0.774   2.194 -0.6670 -2.9884 -1.4421
11268SOL     OW35244   6.187   2.844   3.325  0.2240  0.4855  0.3267
11268SOL    HW135245   6.171   2.919   3.269  0.4565  0.9149  0.8261
11268SOL    HW235246   6.111   2.787   3.312 -0.4763  1.3079  0.7685
11269SOL     OW35247   3.110   6.792  11.841  0.4030  0.9154  0.3543
11269SOL    HW135248   3.107   6.882  11.873 -2.2453  1.2390 -0.6314
11269SOL    HW235249   3.027   6.779  11.796  1.2884 -1.6091 -0.7228
11270SOL     OW35250   3.131   2.708   9.554  0.0051  0.7334  0.4876
11270SOL    HW135251   3.187   2.709   9.476 -0.9877 -2.1619 -0.4162
11270SOL    HW235252   3.188   2.673   9.623 -0.4101 -1.7896 -0.3254
11271SOL     OW35253   2.710   0.954  10.586 -0.3127 -0.0472  0.2727
11271SOL    HW135254   2.714   0.952  10.682  1.7322 -1.5140  0.2328
11271SOL    HW235255   2.748   1.038  10.563  1.6909 -0.7628  0.7612
11272SOL     OW35256   1.555   0.505   2.220 -0.2121 -0.7260 -0.3271
11272SOL    HW135257   1.482   0.477   2.165  0.6472 -0.2593 -1.7785
11272SOL    HW235258   1.579   0.427   2.270 -1.9064 -0.7908  0.4718
11273SOL     OW35259   4.054   7.295   2.787 -0.2013  0.0840 -0.0391
11273SOL    HW135260   4.074   7.349   2.863 -1.6665  1.4089 -0.5433
11273SOL    HW235261   4.093   7.343   2.713  1.5825 -1.3938 -0.1466
11274SOL     OW35262   5.710   0.480   3.294 -0.1112  0.0141  0.6684
11274SOL    HW135263   5.776   0.424   3.333  2.4277  0.0724 -3.0012
11274SOL    HW235264   5.722   0.565   3.336  2.6135  0.1458 -0.2183
11275SOL     OW35265   1.150   7.006  11.191  0.0937  0.0184  0.1792
11275SOL    HW135266   1.138   7.097  11.216  0.2259  0.1890 -0.3650
11275SOL    HW235267   1.244   6.997  11.175 -0.0130 -0.0236 -0.4645
11276SOL     OW35268   0.960   2.897   2.360  0.0117 -0.2891 -0.7326
11276SOL    HW135269   0.960   2.812   2.316  0.9588 -0.6211 -0.1222
11276SOL    HW235270   0.888   2.893   2.422  0.6600 -1.0282 -0.0138
11277SOL     OW35271   0.112   6.634   4.316 -0.1761  0.0592  0.0149
11277SOL    HW135272   0.170   6.689   4.368  0.1124 -1.2012  1.0762
11277SOL    HW235273   0.171   6.579   4.264 -0.4477  1.6674 -2.1493
11278SOL     OW35274   4.434   5.768   9.791 -0.0358  0.2273 -0.0345
11278SOL    HW135275   4.494   5.766   9.866  0.4671 -0.3026 -0.4371
11278SOL    HW235276   4.473   5.707   9.728 -1.5523 -0.9758  0.1116
11279SOL     OW35277   1.236   5.821   0.440 -0.0558  0.1834 -0.2496
11279SOL    HW135278   1.284   5.764   0.380 -1.1814  0.0718 -1.0714
11279SOL    HW235279   1.177   5.871   0.384 -1.8981 -0.6669  0.8495
11280SOL     OW35280   0.516   1.908   4.155 -0.3485  0.0639 -0.2713
11280SOL    HW135281   0.559   1.939   4.075 -0.5822  1.2125  0.0362
11280SOL    HW235282   0.517   1.984   4.214 -1.5381 -0.3077  0.2530
11281SOL     OW35283   4.144   3.596   2.153  0.0313  0.0216 -0.7570
11281SOL    HW135284   4.174   3.508   2.133 -0.2501 -0.2557  0.0127
11281SOL    HW235285   4.207   3.653   2.110 -0.4091 -0.5376 -2.2193
11282SOL     OW35286   0.886   7.206   8.989  0.7360  0.3643 -0.1157
11282SOL    HW135287   0.829   7.268   8.944  1.7820 -0.3348 -2.5949
11282SOL    HW235288   0.831   7.163   9.054 -1.8857 -0.9525 -2.9869
11283SOL     OW35289   6.391   2.025   9.255 -0.0427 -0.7843 -0.2869
11283SOL    HW135290   6.310   2.068   9.281  0.8042  0.4492  0.4098
11283SOL    HW235291   6.437   2.007   9.337  0.5121 -1.2451 -0.6861
11284SOL     OW35292   5.240   0.439   6.912 -0.2721 -0.5213  0.1410
11284SOL    HW135293   5.290   0.519   6.928  0.0364 -0.3992 -1.3022
11284SOL    HW235294   5.284   0.398   6.837 -1.1089 -1.4603  0.1472
11285SOL     OW35295   2.018   6.977   5.728  0.4735  0.2928 -0.4929
11285SOL    HW135296   2.074   7.046   5.692 -0.0775  1.3100  0.5626
11285SOL    HW235297   1.940   6.978   5.674  0.0999  1.0986  0.0466
11286SOL     OW35298   6.410   4.996   0.109  0.4848 -0.1493 -0.3424
11286SOL    HW135299   6.503   4.973   0.104  0.6163  0.2179  0.2615
11286SOL    HW235300   6.387   4.980   0.201 -0.4389 -1.6974 -0.8082
11287SOL     OW35301   0.079   0.704   5.634 -0.4653  0.8388  0.1047
11287SOL    HW135302   0.019   0.747   5.574  0.1141  0.1353 -1.0124
11287SOL    HW235303   0.042   0.616   5.646  0.9576 -0.0474 -1.6057
11288SOL     OW35304   2.458   3.439  10.810  0.0902  0.0316 -0.0419
11288SOL    HW135305   2.415   3.404  10.888 -0.1181 -2.5751 -1.2116
11288SOL    HW235306   2.393   3.429  10.740  0.9303  0.5128 -0.9096
11289SOL     OW35307   2.555   1.957  11.018  0.2761  0.3417 -0.0029
11289SOL    HW135308   2.580   1.890  10.955 -0.3598  1.2240 -1.2466
11289SOL    HW235309   2.638   1.992  11.051  0.6793  0.8597 -1.4747
11290SOL     OW35310   2.343   1.753   9.331 -0.2518 -0.0604  0.1316
11290SOL    HW135311   2.287   1.681   9.359 -0.5257 -0.4405 -1.3071
11290SOL    HW235312   2.431   1.728   9.358 -0.1323 -1.6275 -1.5386
11291SOL     OW35313   6.160   7.311   4.800  0.0908 -0.0713  0.1331
11291SOL    HW135314   6.170   7.322   4.706  0.1906 -0.1627  0.1315
11291SOL    HW235315   6.083   7.362   4.823 -0.3603 -0.6242 -0.1111
11292SOL     OW35316   3.748   3.157   2.026  0.5839 -0.3458  0.2144
11292SOL    HW135317   3.780   3.207   2.101  1.8709  0.1630 -0.6473
11292SOL    HW235318   3.761   3.065   2.051  0.6774 -0.1893  0.7507
11293SOL     OW35319   6.918   1.522   0.558 -0.5529 -0.3502  0.0009
11293SOL    HW135320   6.845   1.504   0.617 -1.7892 -0.9221 -1.6214
11293SOL    HW235321   6.993   1.479   0.599 -1.0188  0.5341  1.8759
11294SOL     OW35322   7.690   0.326   3.910 -0.2384 -0.2225  0.1210
11294SOL    HW135323   7.694   0.415   3.876 -3.3403  0.9102  2.2953
11294SOL    HW235324   7.777   0.310   3.946  1.1013  0.9513 -2.3486
11295SOL     OW35325   5.127   0.598   7.147 -0.4586 -0.0799 -0.4194
11295SOL    HW135326   5.055   0.553   7.191 -0.6834 -0.2116 -0.9033
11295SOL    HW235327   5.198   0.534   7.146 -0.4974 -0.1243 -0.3610
11296SOL     OW35328   1.250   3.334   7.638  0.4693 -0.2251  0.0565
11296SOL    HW135329   1.266   3.240   7.636 -0.9829 -0.4853 -1.4409
11296SOL    HW235330   1.321   3.369   7.691  0.2140 -2.3072  1.9458
11297SOL     OW35331   0.429   5.894   5.843  0.3511  0.5724  0.0702
11297SOL    HW135332   0.417   5.812   5.891  1.1935  1.0655  1.1791
11297SOL    HW235333   0.350   5.945   5.861 -0.0075  0.1646 -0.3192
11298SOL     OW35334   6.606   6.452   0.147  0.1790  0.6064  0.4564
11298SOL    HW135335   6.592   6.363   0.179 -2.1097  0.0996 -1.6227
11298SOL    HW235336   6.530   6.502   0.180 -0.1532  0.9987 -0.8285
11299SOL     OW35337   3.860   0.718   6.290  0.1298  0.0758 -0.0494
11299SOL    HW135338   3.943   0.752   6.322 -0.2100  0.0835  0.8586
11299SOL    HW235339   3.883   0.635   6.247  0.5981  0.0643  0.2197
11300SOL     OW35340   4.288   2.711   8.513 -0.1754 -0.1538  0.9084
11300SOL    HW135341   4.341   2.773   8.463  1.4298 -1.9706  0.2034
11300SOL    HW235342   4.211   2.695   8.458 -1.4570  2.3353  1.8315
11301SOL     OW35343   5.291   1.157  11.423  0.4929  0.3602 -0.0449
11301SOL    HW135344   5.309   1.066  11.399  0.8626  0.3714  0.1722
11301SOL    HW235345   5.195   1.163  11.427  0.4309  0.2905 -1.2058
11302SOL     OW35346   4.616   2.091  11.186  0.3669  0.4181  0.2608
11302SOL    HW135347   4.646   2.015  11.235 -1.6188 -1.9340 -1.8495
11302SOL    HW235348   4.673   2.095  11.109  0.3786  0.9790  0.2952
11303SOL     OW35349   1.874   1.773   2.616  0.1877 -0.1569  0.1572
11303SOL    HW135350   1.934   1.812   2.552  0.0753 -0.0267  0.1301
11303SOL    HW235351   1.906   1.803   2.701  0.0954  0.0055  0.1358
11304SOL     OW35352   6.828   2.092   7.908 -0.2329  0.2704  0.0329
11304SOL    HW135353   6.908   2.093   7.855  0.5472 -0.0979  1.1733
11304SOL    HW235354   6.789   2.006   7.890 -0.3311  0.4141 -0.4545
11305SOL     OW35355   2.142   4.282   6.684  0.0328  0.3964  0.4130
11305SOL    HW135356   2.097   4.306   6.603  0.7264  1.4045  0.3019
11305SOL    HW235357   2.235   4.289   6.663  0.2303  0.0572  1.1263
11306SOL     OW35358   4.308   2.855   4.215 -0.0619 -0.2573  0.4673
11306SOL    HW135359   4.276   2.856   4.125  1.6573  0.0371 -0.1832
11306SOL    HW235360   4.276   2.936   4.254 -0.9617 -0.4713  0.1770
11307SOL     OW35361   0.680   3.371   2.542 -0.6941  0.2439 -0.3260
11307SOL    HW135362   0.641   3.294   2.501  1.1992 -0.0564 -1.7218
11307SOL    HW235363   0.742   3.404   2.477  0.3688  1.4649  1.2147
11308SOL     OW35364   0.840   4.375   7.528 -0.2294 -0.6511 -0.0119
11308SOL    HW135365   0.935   4.382   7.526 -0.2382 -0.6595 -0.9810
11308SOL    HW235366   0.823   4.288   7.564  0.1296 -0.7486 -0.0758
11309SOL     OW35367   4.895   3.031   9.965  0.1437  0.7921  0.6721
11309SOL    HW135368   4.983   3.028   9.926  0.0190 -0.1029  0.4363
11309SOL    HW235369   4.839   2.989   9.900  0.0321 -1.3620  2.0568
11310SOL     OW35370   1.842   3.171   1.311  0.1038  0.4643 -0.2619
11310SOL    HW135371   1.790   3.249   1.329  0.4812  0.5835  0.3488
11310SOL    HW235372   1.800   3.101   1.361  0.1396  0.4172 -0.2973
11311SOL     OW35373   2.987   2.965   4.648  0.2225 -0.7533 -0.3262
11311SOL    HW135374   2.981   3.014   4.566 -1.0540  0.2925  0.3593
11311SOL    HW235375   2.900   2.926   4.658  0.5520 -1.3553  0.2432
11312SOL     OW35376   0.442   4.789  12.384  0.0999 -0.4910 -0.4661
11312SOL    HW135377   0.525   4.836  12.373  0.6714 -1.4003 -0.1008
11312SOL    HW235378   0.418   4.761  12.296 -2.3056  3.7845 -1.4554
11313SOL     OW35379   1.354   6.339  11.605  0.2787 -0.0821 -0.0516
11313SOL    HW135380   1.355   6.395  11.683  1.7237  0.2113 -0.2552
11313SOL    HW235381   1.395   6.392  11.537  1.1101 -1.1628 -0.4171
11314SOL     OW35382   0.663   5.866  11.560  0.2638 -0.0557  0.2077
11314SOL    HW135383   0.605   5.878  11.485  0.2743 -0.2150  0.1738
11314SOL    HW235384   0.610   5.818  11.624  0.6364 -1.0038 -0.1725
11315SOL     OW35385   3.760   6.678   5.540  0.0429 -0.3353  0.2282
11315SOL    HW135386   3.772   6.583   5.547 -1.4021 -0.5441  0.0557
11315SOL    HW235387   3.797   6.712   5.621  2.1514 -0.8532 -0.4379
11316SOL     OW35388   7.172   1.026   7.246 -0.1657  0.3219  0.0827
11316SOL    HW135389   7.148   1.118   7.234  0.1564  0.2490 -1.2303
11316SOL    HW235390   7.124   0.979   7.178 -0.0613 -0.4501  0.5284
11317SOL     OW35391   1.190   6.595  11.724 -0.0854 -0.4966 -0.0057
11317SOL    HW135392   1.132   6.574  11.651  1.0382 -0.4527 -0.9418
11317SOL    HW235393   1.184   6.519  11.782 -0.9545 -0.5518 -0.1540
11318SOL     OW35394   5.118   3.266   3.306  0.1277 -0.0285  0.5580
11318SOL    HW135395   5.194   3.244   3.361 -0.9673 -1.6587  1.5229
11318SOL    HW235396   5.079   3.343   3.349 -0.5766 -1.1400  2.0277
11319SOL     OW35397   0.051   0.721   8.057 -0.2661  0.7565  0.2229
11319SOL    HW135398   0.011   0.705   7.971  0.9966  0.6684 -0.3799
11319SOL    HW235399   0.122   0.657   8.063  2.3275  3.3189 -0.5103
11320SOL     OW35400   3.097   3.835   7.303 -0.5607 -0.6911 -0.0435
11320SOL    HW135401   3.104   3.891   7.380 -0.0659 -0.9559  0.1094
11320SOL    HW235402   3.044   3.885   7.241 -0.2727 -0.1346  0.1580
11321SOL     OW35403   0.867   4.556   8.902  0.4089  0.1345 -0.4713
11321SOL    HW135404   0.788   4.608   8.918  0.6658  0.2811  0.3650
11321SOL    HW235405   0.862   4.532   8.810 -0.3284  0.6221 -0.5621
11322SOL     OW35406   5.764   0.700   9.872 -0.2372 -0.0481  0.4641
11322SOL    HW135407   5.676   0.693   9.836  0.7199 -3.2209 -1.6892
11322SOL    HW235408   5.819   0.718   9.796  1.0984  0.9294  1.6230
11323SOL     OW35409   7.034   6.235  12.251 -0.2216  0.2563  0.3445
11323SOL    HW135410   7.064   6.314  12.296 -1.4146  0.7777  0.2674
11323SOL    HW235411   6.942   6.253  12.230 -0.3276 -0.8969 -0.2534
11324SOL     OW35412   3.153   1.474   8.125 -0.4884 -0.0349 -0.4898
11324SOL    HW135413   3.136   1.568   8.112 -1.2316  0.0355  0.7963
11324SOL    HW235414   3.071   1.440   8.161 -0.6799 -1.4758 -2.1740
11325SOL     OW35415   7.297   0.454   5.595  0.0116 -0.0852 -0.3845
11325SOL    HW135416   7.285   0.512   5.671  0.7799  0.1571 -0.4407
11325SOL    HW235417   7.248   0.496   5.525  1.4092  1.0744 -0.7097
11326SOL     OW35418   1.368   6.658   4.689  0.6922  0.3652 -0.1482
11326SOL    HW135419   1.277   6.631   4.677  0.5154 -0.2108  2.1048
11326SOL    HW235420   1.368   6.707   4.771  2.2957  1.0632 -0.5244
11327SOL     OW35421   7.457   3.487   5.090  0.5270  0.1102  0.4481
11327SOL    HW135422   7.371   3.513   5.059  1.0576  1.0776 -0.2563
11327SOL    HW235423   7.462   3.393   5.073  0.4253  0.4367 -1.5102
11328SOL     OW35424   0.109   1.460   6.993  0.1152 -0.5808 -0.2341
11328SOL    HW135425   0.075   1.510   7.067 -0.1365  0.0097 -0.7369
11328SOL    HW235426   0.038   1.399   6.971 -0.5074  0.4201 -1.0697
11329SOL     OW35427   4.653   1.052  11.865 -0.4341 -0.3814 -0.1302
11329SOL    HW135428   4.661   0.972  11.813  2.7453 -1.7736  2.1535
11329SOL    HW235429   4.610   1.025  11.945  1.9656 -0.3090  1.2969
11330SOL     OW35430   5.070   5.377  10.260  0.1296 -0.3639  0.0346
11330SOL    HW135431   5.089   5.325  10.182  1.6444  0.0224  0.1256
11330SOL    HW235432   5.155   5.406  10.291 -0.6147  1.5835  0.4047
11331SOL     OW35433   2.672   2.361  10.351 -0.3326  0.0314 -0.5787
11331SOL    HW135434   2.635   2.447  10.328 -0.1065  0.5237  0.7561
11331SOL    HW235435   2.731   2.380  10.424  0.2328 -1.1811 -0.7022
11332SOL     OW35436   2.232   1.936   0.380  0.4793  0.2056  0.0281
11332SOL    HW135437   2.160   1.893   0.425  1.0320 -0.9022 -0.1003
11332SOL    HW235438   2.215   2.030   0.390 -1.5531 -0.0165 -0.9386
11333SOL     OW35439   2.903   6.318   3.108  0.2068  0.0704 -0.4672
11333SOL    HW135440   2.983   6.351   3.149 -0.7603  1.3659  0.4836
11333SOL    HW235441   2.930   6.240   3.061  1.9915  0.3797 -0.0179
11334SOL     OW35442   6.767   6.801   5.917  0.3963  0.6472 -0.5367
11334SOL    HW135443   6.760   6.846   6.001 -0.2121  0.9096 -0.7230
11334SOL    HW235444   6.790   6.871   5.855 -0.8200  0.7623 -0.8738
11335SOL     OW35445   3.056   1.522   9.635  0.2991  0.1643 -0.3626
11335SOL    HW135446   3.151   1.536   9.630  0.2351  1.2385  0.8716
11335SOL    HW235447   3.038   1.513   9.729 -0.9088  0.6442 -0.5331
11336SOL     OW35448   1.305   5.163  11.120 -0.0819  0.3643 -1.0398
11336SOL    HW135449   1.315   5.140  11.028 -1.0578 -0.0784 -1.0513
11336SOL    HW235450   1.221   5.125  11.145 -0.0052  0.8036 -0.0642
11337SOL     OW35451   6.039   4.222   1.190 -0.4157 -0.2967  0.3600
11337SOL    HW135452   6.028   4.300   1.136  1.4573 -0.7851 -0.7910
11337SOL    HW235453   5.954   4.178   1.186 -1.3030  1.3223  0.5210
11338SOL     OW35454   7.030   6.799   8.315  0.1657  0.6464  0.0385
11338SOL    HW135455   7.091   6.765   8.250 -1.4996 -0.1623 -1.1779
11338SOL    HW235456   7.082   6.858   8.369  2.2724 -0.8576 -0.2374
11339SOL     OW35457   4.115   3.171   1.352 -0.0190  0.0498 -0.2062
11339SOL    HW135458   4.175   3.245   1.362 -0.2719  0.4911 -1.7521
11339SOL    HW235459   4.167   3.104   1.307 -0.3252 -0.0297 -0.4455
11340SOL     OW35460   0.926   3.387   8.374 -0.2773 -0.0422 -0.4682
11340SOL    HW135461   1.002   3.360   8.321  2.0718  3.1399  0.9312
11340SOL    HW235462   0.889   3.462   8.326 -1.9509 -0.9070 -0.5849
11341SOL     OW35463   6.710   7.627   1.506 -0.0175  0.1793 -0.1473
11341SOL    HW135464   6.620   7.618   1.535 -1.1248 -0.7052 -3.3775
11341SOL    HW235465   6.717   7.568   1.430  3.4197 -0.1339  0.2289
11342SOL     OW35466   0.161   4.993   5.439 -1.0127  0.5099 -0.1072
11342SOL    HW135467   0.228   4.971   5.504 -0.2012 -1.2890 -1.4642
11342SOL    HW235468   0.092   4.928   5.453 -0.6354 -0.1720 -1.2627
11343SOL     OW35469   5.838   1.582   9.626 -0.3267  0.1386  0.2992
11343SOL    HW135470   5.867   1.501   9.669 -0.9480 -0.1307  0.2146
11343SOL    HW235471   5.758   1.558   9.580  0.5631  0.3231 -1.3943
11344SOL     OW35472   6.344   5.332   4.976 -0.0484 -0.2306  0.2111
11344SOL    HW135473   6.340   5.427   4.987  1.3206 -0.1147 -0.0617
11344SOL    HW235474   6.398   5.302   5.048 -2.5444 -1.1612  1.8205
11345SOL     OW35475   3.246   3.644   9.954 -0.4511 -0.3687 -0.2333
11345SOL    HW135476   3.276   3.734   9.947 -1.3467  0.0485  0.9709
11345SOL    HW235477   3.319   3.592   9.921  1.1874  0.6603  1.5490
11346SOL     OW35478   3.371   7.924  10.903  0.1232 -0.7421 -0.6124
11346SOL    HW135479   3.398   7.928  10.811 -0.3605 -0.7799 -0.7579
11346SOL    HW235480   3.292   7.976  10.907  0.4900 -0.2214 -0.0821
11347SOL     OW35481   7.863   6.787   5.475 -1.2115  0.0766 -0.3573
11347SOL    HW135482   7.890   6.866   5.427  1.2317  0.4204  1.3899
11347SOL    HW235483   7.848   6.722   5.406 -1.7502  1.6037 -1.7570
11348SOL     OW35484   5.338   1.209   8.588  0.1334  0.0137 -0.8737
11348SOL    HW135485   5.356   1.115   8.584  0.1627 -0.1127  1.0649
11348SOL    HW235486   5.407   1.244   8.646 -2.9580  0.2552  3.0769
11349SOL     OW35487   3.210   6.868   9.834 -0.3660  0.1826  0.6378
11349SOL    HW135488   3.176   6.796   9.887 -1.9885  1.0060  0.7758
11349SOL    HW235489   3.167   6.858   9.749 -0.8005  1.1044  0.7346
11350SOL     OW35490   6.192   3.603   7.488  0.3583  0.2477  0.0354
11350SOL    HW135491   6.275   3.610   7.441  0.7431  1.0266  0.8031
11350SOL    HW235492   6.136   3.671   7.450  0.1493 -0.1051 -0.3017
11351SOL     OW35493   0.373   3.917   7.863  0.1382  0.6614  0.6019
11351SOL    HW135494   0.371   3.924   7.959 -0.0895  0.5894  0.6027
11351SOL    HW235495   0.448   3.861   7.844  2.1185  3.1103  0.6042
11352SOL     OW35496   3.062   1.927   0.234 -0.7371 -0.5240 -0.0592
11352SOL    HW135497   3.134   1.919   0.172 -2.1452 -0.6583 -1.7207
11352SOL    HW235498   2.983   1.926   0.181 -1.9400  1.7163  1.5108
11353SOL     OW35499   7.092   2.566   3.645 -0.0234 -0.3259 -0.1301
11353SOL    HW135500   7.161   2.572   3.711 -0.8706 -0.6748  0.8068
11353SOL    HW235501   7.016   2.608   3.685 -0.6437 -0.8209 -0.7566
11354SOL     OW35502   3.933   5.711   3.272 -0.1453 -0.2873 -0.5768
11354SOL    HW135503   3.954   5.635   3.219 -0.0212 -0.0082 -0.9321
11354SOL    HW235504   4.016   5.756   3.285 -0.3851  0.4030 -1.3364
11355SOL     OW35505   1.231   7.189   1.995  0.1697 -0.2460 -0.3931
11355SOL    HW135506   1.195   7.252   2.057  1.0244  1.2523 -1.3663
11355SOL    HW235507   1.319   7.171   2.027 -0.7735 -2.7398  1.1276
11356SOL     OW35508   1.178   6.806   5.913 -0.4017 -0.0552 -0.1791
11356SOL    HW135509   1.092   6.790   5.951 -0.1061 -1.3811 -0.0473
11356SOL    HW235510   1.161   6.823   5.821 -0.7729 -0.5947 -0.2080
11357SOL     OW35511   4.375   5.954  11.970 -0.6921  0.0846 -0.5381
11357SOL    HW135512   4.297   5.956  11.915 -0.0004 -0.9708 -1.6260
11357SOL    HW235513   4.413   6.041  11.961 -1.7355  0.6118  0.0136
11358SOL     OW35514   5.787   1.805   4.224  0.0339  0.7259 -0.4719
11358SOL    HW135515   5.706   1.788   4.175 -0.5238 -3.5487  1.5397
11358SOL    HW235516   5.757   1.851   4.303 -0.1502  0.8142 -0.5914
11359SOL     OW35517   4.864   0.774   7.085 -0.7416  0.1140 -0.0505
11359SOL    HW135518   4.856   0.856   7.135 -0.4466  1.1535 -1.6191
11359SOL    HW235519   4.952   0.742   7.106 -0.6163  0.5447  0.0937
11360SOL     OW35520   2.032   2.759   5.995 -0.3107 -0.3119 -0.1366
11360SOL    HW135521   1.965   2.803   5.943  0.8518  0.8940 -0.6621
11360SOL    HW235522   1.986   2.731   6.075 -1.4250  0.4822 -0.4820
11361SOL     OW35523   3.207   2.693   7.145 -0.0720  0.2394 -0.0480
11361SOL    HW135524   3.250   2.695   7.231  0.9570  0.8411 -0.5570
11361SOL    HW235525   3.253   2.624   7.097  1.4147  1.8474 -1.0998
11362SOL     OW35526   0.262   2.509   7.477  0.0105 -0.3893  0.3682
11362SOL    HW135527   0.231   2.517   7.567 -3.8584  0.5044 -0.8566
11362SOL    HW235528   0.329   2.577   7.469 -0.4197  0.3278  2.2564
11363SOL     OW35529   5.183   4.603   0.568  0.4865  0.1956 -0.2615
11363SOL    HW135530   5.090   4.595   0.545  0.4892  0.4985 -0.3890
11363SOL    HW235531   5.225   4.528   0.526  0.5775  1.0073 -1.7206
11364SOL     OW35532   0.873   1.869   9.213 -0.3836 -0.8580 -0.6506
11364SOL    HW135533   0.940   1.873   9.144 -1.5390 -3.1984 -2.0732
11364SOL    HW235534   0.797   1.829   9.169 -1.4573 -1.6716  1.7906
11365SOL     OW35535   6.091   4.986   8.981  0.0866 -0.0748 -0.3326
11365SOL    HW135536   6.176   5.030   8.986  0.4217 -0.7584  0.3089
11365SOL    HW235537   6.070   4.984   8.887  1.0200 -0.3276 -0.5494
11366SOL     OW35538   2.402   5.269   3.537 -0.0331 -0.0365 -0.4187
11366SOL    HW135539   2.447   5.313   3.609 -2.1348 -0.7496  1.4495
11366SOL    HW235540   2.359   5.194   3.578 -2.3736  0.2363 -2.1685
11367SOL     OW35541   1.397   0.868   8.042  0.1130  0.7269  0.1669
11367SOL    HW135542   1.466   0.931   8.021  0.9671 -0.5196 -0.9113
11367SOL    HW235543   1.332   0.880   7.974  0.1956  0.5666  0.0592
11368SOL     OW35544   4.804   7.166   0.932  0.1184  0.3157  0.7660
11368SOL    HW135545   4.786   7.087   0.984 -0.5506 -0.6021 -0.7856
11368SOL    HW235546   4.889   7.148   0.891 -0.4748 -0.0547 -0.3449
11369SOL     OW35547   6.577   3.308  10.484 -0.3240  0.2398 -0.1914
11369SOL    HW135548   6.570   3.253  10.406 -1.1565  1.0639 -0.7202
11369SOL    HW235549   6.650   3.366  10.466  1.1732 -1.2471  0.7602
11370SOL     OW35550   6.983   2.467   3.374 -0.1556 -0.4706  0.4605
11370SOL    HW135551   7.011   2.511   3.455 -0.3271  0.3659  0.0798
11370SOL    HW235552   7.056   2.410   3.351 -0.5487 -1.5557  1.7917
11371SOL     OW35553   4.098   7.446   4.637  0.3376 -0.4119  0.4981
11371SOL    HW135554   4.167   7.468   4.699  1.0687  0.9781 -0.7614
11371SOL    HW235555   4.124   7.360   4.603  1.0986 -0.1996  0.5181
11372SOL     OW35556   2.888   1.083   6.238  0.2808 -0.3977  0.2099
11372SOL    HW135557   2.980   1.110   6.239  0.4067 -0.5954 -1.6979
11372SOL    HW235558   2.888   1.000   6.190 -1.1273  0.7913 -2.0170
11373SOL     OW35559   0.101   7.504  12.207 -0.4921  0.1573  0.3756
11373SOL    HW135560   0.103   7.596  12.232  0.8500  0.4769 -0.7915
11373SOL    HW235561   0.102   7.505  12.111  0.4124 -1.0774  0.3544
11374SOL     OW35562   7.801   0.487  10.629 -0.1640  0.5180  0.1860
11374SOL    HW135563   7.745   0.560  10.603 -0.5325 -0.0247 -0.6026
11374SOL    HW235564   7.739   0.414  10.642  0.1834  0.3626  1.0550
11375SOL     OW35565   5.723   1.146   3.409 -0.2508  0.3770  0.0509
11375SOL    HW135566   5.640   1.126   3.452  0.1405  0.9350  1.1042
11375SOL    HW235567   5.702   1.217   3.348 -0.5798  0.3778  0.1652
11376SOL     OW35568   6.587   5.148   2.359 -0.4789 -0.2089 -0.1876
11376SOL    HW135569   6.508   5.188   2.393 -0.4909 -1.8492  1.9999
11376SOL    HW235570   6.658   5.191   2.407 -0.3661 -1.3037  0.6890
11377SOL     OW35571   5.690   5.191   7.908 -0.0603 -0.4668 -0.0686
11377SOL    HW135572   5.719   5.205   7.818  1.1229  2.1399  0.6374
11377SOL    HW235573   5.597   5.170   7.899  0.6204 -3.3444 -2.0150
11378SOL     OW35574   4.562   2.875   4.148  0.6509  0.2084 -0.2276
11378SOL    HW135575   4.575   2.804   4.086  2.2314 -0.7207  1.1043
11378SOL    HW235576   4.474   2.860   4.184  0.1516  0.1479 -1.4424
11379SOL     OW35577   5.908   4.752   2.472  0.0261  0.0648 -0.0896
11379SOL    HW135578   5.933   4.792   2.555  0.1946 -1.0627  0.4210
11379SOL    HW235579   5.823   4.791   2.451  0.5786  1.3327 -0.0707
11380SOL     OW35580   6.856   4.030   7.057 -0.6802 -0.4279  0.3879
11380SOL    HW135581   6.768   4.065   7.072 -1.5886 -1.7418 -1.4860
11380SOL    HW235582   6.869   3.967   7.128 -0.8519  0.4288  1.1997
11381SOL     OW35583   6.693   2.691   2.797 -0.3537  0.1612 -0.1212
11381SOL    HW135584   6.779   2.696   2.755 -0.2341 -0.5927  0.0101
11381SOL    HW235585   6.711   2.660   2.886 -0.7697 -0.0912 -0.1211
11382SOL     OW35586   3.564   1.011   8.910 -0.0207  0.6052  0.2169
11382SOL    HW135587   3.562   0.952   8.985  2.4230 -0.8070 -0.7123
11382SOL    HW235588   3.511   0.967   8.844  1.9605 -0.7429 -0.5425
11383SOL     OW35589   4.279   7.933  10.471  0.0263 -0.3773  0.0991
11383SOL    HW135590   4.209   7.870  10.490  0.6183 -1.8382 -2.2178
11383SOL    HW235591   4.239   7.997  10.412  0.1168 -0.0443  0.3955
11384SOL     OW35592   2.401   1.561   5.924 -0.1934 -0.1795  0.2853
11384SOL    HW135593   2.402   1.531   5.833  0.7869  1.6071 -0.3430
11384SOL    HW235594   2.467   1.508   5.967 -1.6664 -2.0555  0.3585
11385SOL     OW35595   4.586   5.847   2.596 -0.3556  0.0010 -0.0446
11385SOL    HW135596   4.554   5.777   2.538  0.3223  0.6105 -1.2032
11385SOL    HW235597   4.607   5.919   2.536  2.1393  0.0135  0.7334
11386SOL     OW35598   4.757   3.064   4.477  1.2802 -0.4066  0.2145
11386SOL    HW135599   4.725   3.149   4.450 -1.2131 -0.7442  1.7767
11386SOL    HW235600   4.684   3.004   4.461  0.7903 -1.1900  4.2669
11387SOL     OW35601   3.351   0.093   7.911 -0.2444 -0.1144 -0.3680
11387SOL    HW135602   3.391   0.169   7.867 -0.7441 -0.5551 -1.6375
11387SOL    HW235603   3.419   0.025   7.906 -0.4435 -0.2853 -0.8376
11388SOL     OW35604   7.250   4.772   3.014 -0.0338  0.1336  0.2016
11388SOL    HW135605   7.261   4.833   3.087 -0.1650  0.2996  0.0839
11388SOL    HW235606   7.338   4.739   2.997  0.0911  0.5345  0.0543
11389SOL     OW35607   7.480   4.200   3.813 -0.6656 -0.3065 -1.0971
11389SOL    HW135608   7.499   4.123   3.759  1.1541 -1.0929  0.5683
11389SOL    HW235609   7.385   4.204   3.816 -0.8064 -2.7493 -0.8844
11390SOL     OW35610   1.857   1.961   9.753 -0.6776 -0.3047 -0.4021
11390SOL    HW135611   1.799   1.888   9.774  1.6938 -2.5046 -1.0174
11390SOL    HW235612   1.838   1.980   9.661 -1.0691 -0.3663 -0.3369
11391SOL     OW35613   0.079   1.931   1.230 -0.4398 -0.6417  0.3182
11391SOL    HW135614   0.059   1.903   1.140  0.0219  0.4053 -0.1217
11391SOL    HW235615   0.174   1.942   1.231 -0.4245 -0.7800  0.9871
11392SOL     OW35616   2.105   6.687   4.090 -0.4189 -0.1052  0.1347
11392SOL    HW135617   2.064   6.601   4.101  1.0746 -0.8769 -0.0907
11392SOL    HW235618   2.119   6.695   3.996  1.0333 -0.3979  0.3075
11393SOL     OW35619   5.888   4.293   2.566  0.9039  0.1392  0.4962
11393SOL    HW135620   5.870   4.215   2.513 -1.5456 -0.6403  2.3019
11393SOL    HW235621   5.967   4.270   2.615  0.6242 -0.9663  0.4714
11394SOL     OW35622   5.606   0.726   7.230 -0.3112 -0.0351 -0.0216
11394SOL    HW135623   5.600   0.762   7.319 -2.1950  2.9366 -1.2037
11394SOL    HW235624   5.681   0.771   7.191  0.7901 -1.6623  0.1259
11395SOL     OW35625   6.627   1.683   9.648  0.2345 -0.1600 -0.2075
11395SOL    HW135626   6.597   1.766   9.687  0.3973 -0.4326  0.5182
11395SOL    HW235627   6.549   1.647   9.606  0.1883  0.4110 -0.6135
11396SOL     OW35628   6.460   2.147  11.198  0.3544 -0.0524 -0.4843
11396SOL    HW135629   6.401   2.220  11.213 -0.9753 -1.1474 -0.1720
11396SOL    HW235630   6.537   2.186  11.158  0.1280  1.6597  0.6370
11397SOL     OW35631   2.577   6.057   6.241  0.0311 -0.0098  0.1025
11397SOL    HW135632   2.601   6.016   6.324 -0.2421  1.6508  1.0357
11397SOL    HW235633   2.517   6.127   6.265  1.1063  1.4764 -1.3214
11398SOL     OW35634   5.913   1.722   2.101  0.7792 -0.0067  0.2335
11398SOL    HW135635   5.906   1.778   2.178  2.2023  0.8053 -0.1907
11398SOL    HW235636   5.869   1.771   2.031  0.3427 -0.3018  0.2959
11399SOL     OW35637   6.103   0.991   0.603  0.2608 -0.5708 -0.1521
11399SOL    HW135638   6.052   1.055   0.653 -0.4438 -1.5802  0.4747
11399SOL    HW235639   6.177   0.971   0.660  1.0975  0.5196 -0.8428
11400SOL     OW35640   2.957   1.569  12.244 -0.3856 -0.2148 -0.0414
11400SOL    HW135641   2.872   1.563  12.200 -0.6662 -0.3298  0.4990
11400SOL    HW235642   2.946   1.516  12.323  0.1443 -0.1050  0.1093
11401SOL     OW35643   7.097   0.876  10.708  0.3552  0.5640  0.4187
11401SOL    HW135644   7.135   0.854  10.792 -0.0295  4.3472  1.8063
11401SOL    HW235645   7.012   0.915  10.730 -0.0014  1.1406 -1.7290
11402SOL     OW35646   6.751   1.068  12.037 -0.5523  0.0481 -0.0923
11402SOL    HW135647   6.729   1.108  12.121 -1.3151 -1.8048  0.6585
11402SOL    HW235648   6.673   1.016  12.014 -0.3343  0.4612 -1.9274
11403SOL     OW35649   7.774   1.678   5.019 -0.2343 -0.3467  0.4907
11403SOL    HW135650   7.756   1.588   4.993 -0.9677 -0.3266  0.8918
11403SOL    HW235651   7.867   1.679   5.042  0.0033 -0.7718 -0.4275
11404SOL     OW35652   4.629   5.715   4.383 -0.1516 -0.4851  0.6429
11404SOL    HW135653   4.630   5.622   4.403 -0.2435 -0.4932  0.6119
11404SOL    HW235654   4.707   5.750   4.425 -0.7341 -0.3733  1.6628
11405SOL     OW35655   3.659   4.008  11.476 -0.1245  0.0957  0.4562
11405SOL    HW135656   3.592   4.033  11.412  1.2513 -0.2581 -1.2048
11405SOL    HW235657   3.664   3.913  11.471 -0.7183 -0.0352  1.8920
11406SOL     OW35658   3.398   2.320   5.277  0.3428  0.1686  0.0387
11406SOL    HW135659   3.369   2.260   5.208 -0.9847  1.8906 -0.9737
11406SOL    HW235660   3.466   2.374   5.236 -0.2550  1.0192  0.1482
11407SOL     OW35661   0.128   3.559   8.133  0.8834 -0.1239  0.3085
11407SOL    HW135662   0.129   3.534   8.040  1.8533 -0.2527  0.3425
11407SOL    HW235663   0.044   3.603   8.145  1.4255  1.3662 -1.0240
11408SOL     OW35664   5.021   2.087   1.284  0.3168  0.0524 -0.1109
11408SOL    HW135665   4.952   2.069   1.347  1.2072 -0.7353  0.6780
11408SOL    HW235666   5.091   2.127   1.335  0.9444 -0.3404 -0.6479
11409SOL     OW35667   5.799   6.337   0.382  0.0202  0.3793 -0.0796
11409SOL    HW135668   5.855   6.273   0.338  0.6665 -0.6518  2.0904
11409SOL    HW235669   5.735   6.284   0.429 -1.5534  1.4853 -0.8980
11410SOL     OW35670   7.830   7.821  10.452  0.0669  0.2897 -0.0090
11410SOL    HW135671   7.906   7.774  10.484  0.9321  1.2640 -0.5750
11410SOL    HW235672   7.777   7.755  10.408  2.5471  0.1857 -3.1818
11411SOL     OW35673   1.405   7.070   3.704  0.3441  0.2814 -0.0320
11411SOL    HW135674   1.433   7.150   3.748 -0.4819  0.2998  0.4809
11411SOL    HW235675   1.479   7.010   3.713  0.0274  0.1043  1.8431
11412SOL     OW35676   0.596   7.006   2.589 -0.1894  0.0821 -0.2286
11412SOL    HW135677   0.512   6.978   2.626 -0.4310  1.4959  0.3708
11412SOL    HW235678   0.661   6.961   2.643 -0.5723  0.0192  0.1941
11413SOL     OW35679   7.390   2.768   6.285 -0.0528 -0.1416 -0.4396
11413SOL    HW135680   7.407   2.709   6.359 -1.5581 -1.4090 -1.0463
11413SOL    HW235681   7.456   2.744   6.220  0.9902  0.6692  0.2783
11414SOL     OW35682   3.117   2.553   4.273  0.1395  0.0928 -0.8783
11414SOL    HW135683   3.133   2.646   4.288 -3.2254  0.7431 -0.4913
11414SOL    HW235684   3.130   2.541   4.179  2.4615  0.4208 -0.6674
11415SOL     OW35685   3.419   4.933   6.472  0.0571  0.2532 -0.4440
11415SOL    HW135686   3.498   4.904   6.428  0.5570  0.2884  0.4003
11415SOL    HW235687   3.400   5.019   6.436  2.0350  1.5107  1.3350
11416SOL     OW35688   4.884   5.713   5.273 -0.5889  0.0758  0.4568
11416SOL    HW135689   4.896   5.626   5.312 -0.7017 -0.3959 -0.5180
11416SOL    HW235690   4.832   5.696   5.194 -2.1974  1.2726  1.2100
11417SOL     OW35691   6.219   6.731   9.379  0.1042 -0.7563 -0.1490
11417SOL    HW135692   6.124   6.741   9.378  0.0621  0.1297  2.8386
11417SOL    HW235693   6.233   6.636   9.383 -0.7155 -0.8548  0.5256
11418SOL     OW35694   6.394   4.477   5.447  0.2714  0.4455  0.6658
11418SOL    HW135695   6.397   4.572   5.445  1.4089  0.4470  1.4289
11418SOL    HW235696   6.395   4.454   5.540  0.5480 -0.3171  0.4859
11419SOL     OW35697   2.862   7.486  11.995  0.1013  0.0111  0.4305
11419SOL    HW135698   2.824   7.568  12.027  0.0687  0.2889 -0.3034
11419SOL    HW235699   2.954   7.507  11.978 -0.3455  0.5011 -1.7207
11420SOL     OW35700   7.153   7.214   9.291 -0.2486  0.4817  0.3155
11420SOL    HW135701   7.108   7.237   9.372 -0.6515  0.6080  0.0586
11420SOL    HW235702   7.165   7.298   9.246  0.4157  0.4746  0.4643
11421SOL     OW35703   2.456   6.051   0.928 -0.1164  0.7200 -0.0617
11421SOL    HW135704   2.379   6.011   0.967  0.5570 -0.2133  0.3383
11421SOL    HW235705   2.488   6.113   0.994  0.6355 -0.3721  0.6249
11422SOL     OW35706   5.289   4.317   5.616  0.4336  0.3494 -0.0900
11422SOL    HW135707   5.334   4.235   5.637  0.6079  0.8676  1.6988
11422SOL    HW235708   5.196   4.293   5.615  0.5857 -0.3427 -2.0109
11423SOL     OW35709   6.632   5.656   6.575  0.3046  0.7160  0.5801
11423SOL    HW135710   6.672   5.741   6.556  0.4264  0.9365  1.7555
11423SOL    HW235711   6.544   5.661   6.538  0.8410  0.7654 -0.7382
11424SOL     OW35712   0.428   3.634   3.447 -0.5080  0.2756 -0.0108
11424SOL    HW135713   0.428   3.538   3.443  0.3974  0.1724  1.6469
11424SOL    HW235714   0.340   3.657   3.477 -1.7314  0.1969 -3.1405
11425SOL     OW35715   4.093   1.977   4.257  0.3821 -0.2557 -0.1093
11425SOL    HW135716   4.181   1.977   4.219  0.0904 -1.8098 -0.8489
11425SOL    HW235717   4.102   1.929   4.339  0.2898 -0.1202 -0.0193
11426SOL     OW35718   4.524   0.893   0.076  0.0953  0.4814 -0.0324
11426SOL    HW135719   4.620   0.897   0.074  0.0971  0.3890 -0.0993
11426SOL    HW235720   4.496   0.978   0.041  0.1409 -0.3700 -2.2706
11427SOL     OW35721   2.705   7.635   2.094 -0.1974 -0.5002 -0.0446
11427SOL    HW135722   2.697   7.730   2.105  1.7191 -0.2041 -0.7945
11427SOL    HW235723   2.675   7.599   2.177 -2.2946  0.6535 -0.2294
11428SOL     OW35724   3.186   6.119   8.468  0.1656  0.2705  0.4494
11428SOL    HW135725   3.271   6.141   8.429  0.4641 -2.1223 -0.4173
11428SOL    HW235726   3.148   6.054   8.408 -1.8213  0.5117  1.3710
11429SOL     OW35727   0.311   2.338  11.071 -0.2982  0.1952 -0.1059
11429SOL    HW135728   0.221   2.369  11.057 -0.6115 -0.7215 -0.1726
11429SOL    HW235729   0.363   2.388  11.008 -0.8532  0.2942 -0.4935
11430SOL     OW35730   4.855   7.409   1.095 -0.4469 -0.5614 -0.4364
11430SOL    HW135731   4.813   7.330   1.059 -1.2664 -0.0243 -0.7029
11430SOL    HW235732   4.807   7.427   1.176  0.4113 -0.9062  0.1656
11431SOL     OW35733   7.650   7.876   4.340 -0.0768 -0.0231 -0.4102
11431SOL    HW135734   7.719   7.943   4.346  0.7455 -0.7500 -1.4129
11431SOL    HW235735   7.622   7.879   4.249  0.5229 -1.5656 -0.6626
11432SOL     OW35736   2.554   3.813   3.707 -0.1241  0.0452 -0.0380
11432SOL    HW135737   2.552   3.882   3.774 -1.2577 -0.6797  0.6976
11432SOL    HW235738   2.647   3.800   3.689  0.1164  1.9482 -0.4003
11433SOL     OW35739   1.933   0.416   7.841 -0.1763 -0.2156 -0.0423
11433SOL    HW135740   1.949   0.457   7.756 -1.6340 -0.4584 -0.4693
11433SOL    HW235741   1.998   0.455   7.899 -0.1986  1.1716 -0.8988
11434SOL     OW35742   4.399   3.971   0.955 -0.7660  0.0127  0.2399
11434SOL    HW135743   4.314   3.958   0.912 -0.9685 -0.6028  0.8228
11434SOL    HW235744   4.378   3.978   1.048 -0.2239  0.3798  0.3393
11435SOL     OW35745   7.542   1.975   2.786  0.0642  0.2867  0.0580
11435SOL    HW135746   7.552   1.956   2.879 -1.5977 -3.3841 -0.3375
11435SOL    HW235747   7.448   1.973   2.771  0.3414 -2.0013 -2.0680
11436SOL     OW35748   3.664   7.452   3.870 -0.0506  0.4000  0.0853
11436SOL    HW135749   3.615   7.437   3.951  0.7375 -1.5438  0.2707
11436SOL    HW235750   3.756   7.443   3.896  0.3028  1.4137 -0.7337
11437SOL     OW35751   2.855   6.797  11.691 -0.1790  0.3277  0.4487
11437SOL    HW135752   2.773   6.840  11.667 -0.4469 -0.0937  0.5891
11437SOL    HW235753   2.915   6.816  11.619 -1.4789 -2.3578 -1.5131
11438SOL     OW35754   7.156   4.468   9.275  0.6281 -0.9602  0.2471
11438SOL    HW135755   7.184   4.541   9.330 -1.0036 -0.8076  0.9514
11438SOL    HW235756   7.061   4.466   9.286  0.4153 -1.8297 -1.4776
11439SOL     OW35757   5.256   3.987   8.295  0.3180 -0.0172  0.1299
11439SOL    HW135758   5.301   4.063   8.332  0.0747  0.9491 -1.4738
11439SOL    HW235759   5.184   4.024   8.243  0.6692 -1.2570 -1.3301
11440SOL     OW35760   3.782   2.920   2.093  0.2845  0.4475 -0.0897
11440SOL    HW135761   3.799   2.835   2.054 -1.0003 -0.3195  0.9308
11440SOL    HW235762   3.809   2.910   2.185 -3.1104 -0.0621  0.9722
11441SOL     OW35763   0.052   2.507  11.357  0.3117 -0.3320 -0.4174
11441SOL    HW135764   0.024   2.578  11.299  0.2488  0.4681  0.5448
11441SOL    HW235765   0.127   2.544  11.404  0.1045 -0.8014  0.2896
11442SOL     OW35766   0.283   5.439   6.473 -0.0588 -0.2347 -0.3022
11442SOL    HW135767   0.221   5.374   6.505 -0.2001 -0.3294 -0.7649
11442SOL    HW235768   0.307   5.490   6.550 -1.2580  0.2704 -0.2493
11443SOL     OW35769   7.563   6.258  10.922  0.2891 -0.3116 -0.2883
11443SOL    HW135770   7.607   6.174  10.930  1.2471  0.1670 -0.4369
11443SOL    HW235771   7.489   6.253  10.984 -1.5671 -2.4147 -2.4736
11444SOL     OW35772   2.294   6.273   7.603  0.2418  0.0362  0.2781
11444SOL    HW135773   2.378   6.255   7.643  0.7608  0.2962 -0.6698
11444SOL    HW235774   2.290   6.369   7.598 -0.1994  0.0330  0.4931
11445SOL     OW35775   3.095   1.556   5.631  0.2973  0.4746  0.0075
11445SOL    HW135776   3.027   1.549   5.698  0.3944 -0.5777  0.0218
11445SOL    HW235777   3.145   1.475   5.640  1.4221  1.1383 -0.1499
11446SOL     OW35778   2.142   5.919   6.846 -0.3472 -0.3770  0.1654
11446SOL    HW135779   2.140   5.824   6.830  1.1230 -0.4371  0.1565
11446SOL    HW235780   2.193   5.928   6.926 -1.9304  0.3305  1.1334
11447SOL     OW35781   3.025   5.755  11.046  0.1266  0.5782 -0.0111
11447SOL    HW135782   2.982   5.694  11.107  0.1216  0.4034 -0.1900
11447SOL    HW235783   3.114   5.763  11.080  0.0998  0.5444  0.0686
11448SOL     OW35784   4.585   1.025   2.217  0.1156  0.2781  0.3887
11448SOL    HW135785   4.489   1.034   2.215  0.1223  0.5967 -2.1856
11448SOL    HW235786   4.602   0.970   2.293 -2.1957 -0.4441  0.4762
11449SOL     OW35787   3.403   6.049   5.014 -0.8029  0.2624 -0.3409
11449SOL    HW135788   3.409   6.144   5.003 -0.0736  0.2644 -0.0216
11449SOL    HW235789   3.416   6.035   5.108  0.4381 -0.2318 -0.5648
11450SOL     OW35790   1.542   7.909   9.762  0.4924  0.2048  0.0629
11450SOL    HW135791   1.626   7.907   9.716  1.6366 -0.6553  2.0290
11450SOL    HW235792   1.562   7.872   9.848 -1.9628 -0.1871  0.5310
11451SOL     OW35793   7.638   6.275   3.592 -0.1988 -0.2851  0.3238
11451SOL    HW135794   7.573   6.320   3.645 -1.1750 -1.7328  0.4200
11451SOL    HW235795   7.667   6.340   3.528 -1.1780  0.6060  0.7743
11452SOL     OW35796   6.455   5.500   4.050  0.1023  0.0939 -0.1130
11452SOL    HW135797   6.405   5.515   3.970  0.8501 -0.1503 -0.6385
11452SOL    HW235798   6.546   5.507   4.023  0.3675  1.6055  1.0437
11453SOL     OW35799   4.366   4.690   0.409 -0.1150  0.6718  0.2758
11453SOL    HW135800   4.319   4.755   0.358  0.9395 -0.3211 -2.1090
11453SOL    HW235801   4.298   4.632   0.443 -0.7792  0.4657 -1.3433
11454SOL     OW35802   3.048   0.642   9.588 -0.4100 -0.0970 -0.0633
11454SOL    HW135803   2.989   0.577   9.627  0.3184  0.1391  1.5269
11454SOL    HW235804   2.999   0.679   9.515 -1.8964 -0.4964  0.7003
11455SOL     OW35805   5.338   0.101   7.391 -0.0648 -0.2132  0.0124
11455SOL    HW135806   5.341   0.091   7.296 -1.1404 -0.9275  0.0400
11455SOL    HW235807   5.331   0.012   7.425  0.1076  0.0480  0.7589
11456SOL     OW35808   0.168   3.221  10.724  0.2910 -0.1951 -0.6078
11456SOL    HW135809   0.187   3.180  10.808  1.6904 -1.7112 -1.6205
11456SOL    HW235810   0.072   3.226  10.721  0.1145 -2.3946  0.0369
11457SOL     OW35811   7.454   2.878   2.586 -0.1189 -0.2843  0.1439
11457SOL    HW135812   7.528   2.912   2.635 -0.8044 -0.3406  1.2510
11457SOL    HW235813   7.458   2.784   2.598 -0.8002 -0.2318  0.8590
11458SOL     OW35814   5.690   1.094   7.127  0.2844  0.0268 -0.4954
11458SOL    HW135815   5.683   1.108   7.222  0.8589 -0.1801 -0.4228
11458SOL    HW235816   5.740   1.013   7.118  0.4245  0.1661 -0.9777
11459SOL     OW35817   3.503   5.519  10.148 -0.3301 -0.3022  0.4571
11459SOL    HW135818   3.595   5.520  10.121 -0.4155  0.1642  0.1918
11459SOL    HW235819   3.505   5.548  10.239 -0.2733  0.2540  0.2793
11460SOL     OW35820   2.598   6.062  11.556  0.2228 -0.1953  0.2554
11460SOL    HW135821   2.550   6.062  11.473  0.1885 -1.1873  0.2648
11460SOL    HW235822   2.596   6.154  11.585 -0.2783  0.0532 -0.5399
11461SOL     OW35823   5.387   0.213   1.588 -0.7992  0.2559  0.3292
11461SOL    HW135824   5.368   0.266   1.511 -0.5778 -0.7803 -0.4577
11461SOL    HW235825   5.302   0.201   1.631 -1.4602 -1.4496 -1.2839
11462SOL     OW35826   3.353   1.046   7.778 -0.4531 -0.0074 -0.3890
11462SOL    HW135827   3.420   1.114   7.780  0.1502 -0.6016  0.8737
11462SOL    HW235828   3.402   0.963   7.779 -1.1591 -0.4536  0.8912
11463SOL     OW35829   6.921   2.692   8.775 -0.1009  0.4701 -0.2951
11463SOL    HW135830   7.014   2.680   8.757 -0.2056  0.2137 -0.6730
11463SOL    HW235831   6.915   2.780   8.813  0.2517  0.6197 -0.5834
11464SOL     OW35832   3.613   4.551   6.803 -0.4137 -0.0849 -0.0142
11464SOL    HW135833   3.650   4.626   6.849 -0.7689  0.1920 -0.1737
11464SOL    HW235834   3.681   4.525   6.740 -0.4620  0.3797 -0.2624
11465SOL     OW35835   6.431   5.338   4.285 -0.0789 -0.8003 -0.1104
11465SOL    HW135836   6.473   5.259   4.251 -1.5032 -0.3749 -3.1919
11465SOL    HW235837   6.434   5.401   4.213 -3.7820  0.0550  0.2713
11466SOL     OW35838   0.759   6.803   9.778 -0.5394 -0.2174 -0.0080
11466SOL    HW135839   0.668   6.818   9.751 -0.6938 -2.1006 -0.6849
11466SOL    HW235840   0.809   6.809   9.697 -0.0328  0.8245  0.3644
11467SOL     OW35841   7.583   4.141   7.736 -0.1204  0.5078  0.5589
11467SOL    HW135842   7.602   4.191   7.815 -0.6022  0.4148  0.7347
11467SOL    HW235843   7.637   4.182   7.668 -0.3260  1.1117  0.7550
11468SOL     OW35844   1.483   4.993   3.894  0.0001  0.1549  0.4468
11468SOL    HW135845   1.513   4.919   3.947  0.7529 -0.5865 -0.9799
11468SOL    HW235846   1.397   4.965   3.861  0.2643 -0.0591 -0.0559
11469SOL     OW35847   7.682   6.592   4.765 -0.2861 -0.3188 -0.6971
11469SOL    HW135848   7.607   6.604   4.824 -0.2029 -0.2600 -0.6016
11469SOL    HW235849   7.758   6.615   4.819  0.1002 -3.1903  0.1820
11470SOL     OW35850   1.117   3.621  11.608  0.0045  0.1845 -0.3452
11470SOL    HW135851   1.081   3.660  11.687  0.3361 -0.7916  0.3019
11470SOL    HW235852   1.041   3.600  11.554 -0.3094 -0.3286  0.2844
11471SOL     OW35853   5.719   3.216   3.572  0.3291  0.3306 -0.4339
11471SOL    HW135854   5.639   3.166   3.590  1.1912 -1.4163 -1.1559
11471SOL    HW235855   5.698   3.305   3.597 -1.4886 -0.2867  0.4103
11472SOL     OW35856   5.677   0.344   7.508 -0.3281 -0.2971  0.1944
11472SOL    HW135857   5.616   0.418   7.510  0.0240  0.0494 -1.0747
11472SOL    HW235858   5.741   0.367   7.441 -0.5805 -2.0391 -0.7045
11473SOL     OW35859   7.156   7.754   8.049  0.6672 -0.3652  0.4586
11473SOL    HW135860   7.147   7.668   8.008  0.8901 -0.2822  0.2322
11473SOL    HW235861   7.147   7.816   7.977  1.0946 -0.2212  0.5231
11474SOL     OW35862   3.577   0.727   2.704  0.0115  0.3254  0.4479
11474SOL    HW135863   3.489   0.721   2.742  0.1118  0.4025  0.6884
11474SOL    HW235864   3.628   0.777   2.767 -0.0557  1.2521 -0.2098
11475SOL     OW35865   7.951   2.590  12.238  0.1752  0.6370 -0.3739
11475SOL    HW135866   7.990   2.665  12.192 -1.8686  0.8714 -1.8424
11475SOL    HW235867   7.868   2.623  12.272  0.0500 -0.5112  0.5054
11476SOL     OW35868   1.297   3.979   2.378 -0.4310  0.2995 -0.1419
11476SOL    HW135869   1.224   3.919   2.395 -0.3926  0.0569 -0.8069
11476SOL    HW235870   1.376   3.924   2.387 -0.4482 -0.1431 -2.2307
11477SOL     OW35871   2.747   2.429  10.616  0.1723  0.1662 -0.3167
11477SOL    HW135872   2.749   2.519  10.646  2.4536  0.0340  0.1563
11477SOL    HW235873   2.729   2.377  10.695 -1.9597  0.2045 -0.7320
11478SOL     OW35874   5.677   1.529  10.353  0.2960  0.5822 -0.3237
11478SOL    HW135875   5.678   1.624  10.360 -0.5716  0.5635  0.2851
11478SOL    HW235876   5.584   1.507  10.342  0.3801 -0.2415  0.4943
11479SOL     OW35877   7.810   2.593   9.306  0.3334 -0.2080  0.4345
11479SOL    HW135878   7.738   2.559   9.253  1.3275 -0.9133 -0.4932
11479SOL    HW235879   7.832   2.521   9.366 -0.1388  0.2338  1.1500
11480SOL     OW35880   1.976   0.744   4.915  0.6248  0.5025 -0.2165
11480SOL    HW135881   1.901   0.783   4.961 -0.1759 -0.1993 -0.9079
11480SOL    HW235882   1.952   0.652   4.903  1.2744  0.4434 -1.1240
11481SOL     OW35883   6.862   6.903   0.524 -0.1121 -0.1890  0.4193
11481SOL    HW135884   6.903   6.968   0.582 -0.5358  0.8261 -0.3824
11481SOL    HW235885   6.895   6.819   0.555  1.4533  0.4944  0.6988
11482SOL     OW35886   0.632   2.765  10.262 -0.1945  0.5178  0.4657
11482SOL    HW135887   0.550   2.811  10.279  0.9844  2.9920 -0.0111
11482SOL    HW235888   0.681   2.824  10.204  1.0134 -1.9054 -1.1831
11483SOL     OW35889   2.784   2.510   0.160  0.1296 -0.0600  0.0436
11483SOL    HW135890   2.862   2.460   0.138 -0.6861 -1.3395 -0.0259
11483SOL    HW235891   2.778   2.504   0.256 -1.6548 -2.8494 -0.1152
11484SOL     OW35892   1.564   3.927   3.767  0.4210 -0.1697 -0.1360
11484SOL    HW135893   1.556   3.878   3.686 -1.3107  1.7148 -1.1964
11484SOL    HW235894   1.657   3.951   3.771  0.8341 -1.5573 -0.7345
11485SOL     OW35895   4.812   5.221  12.060  1.0352  0.0002  0.5761
11485SOL    HW135896   4.782   5.247  12.147  1.2872 -3.7018  1.9811
11485SOL    HW235897   4.900   5.259  12.052  1.3241 -0.2123  2.3062
11486SOL     OW35898   3.484   2.832   2.190 -0.9514  0.4209  0.6578
11486SOL    HW135899   3.555   2.893   2.211 -0.6847 -0.1624  1.5005
11486SOL    HW235900   3.528   2.754   2.156 -1.3013  0.7340 -0.5792
11487SOL     OW35901   6.711   4.302   3.910  0.3899  0.2665  0.2151
11487SOL    HW135902   6.636   4.350   3.945  0.1896 -0.0836  0.2799
11487SOL    HW235903   6.731   4.237   3.978 -0.3104 -0.7392 -0.5198
11488SOL     OW35904   5.019   7.068  11.314  0.1617  0.1463  0.0048
11488SOL    HW135905   4.967   7.035  11.241  1.0106 -0.1786 -0.4799
11488SOL    HW235906   4.962   7.060  11.391 -1.5830  2.5793 -0.9046
11489SOL     OW35907   0.277   1.443  11.834 -0.0313  0.4287 -0.5462
11489SOL    HW135908   0.264   1.471  11.924  1.2592 -2.8530  0.8256
11489SOL    HW235909   0.189   1.434  11.798 -0.6000  0.8806  0.7082
11490SOL     OW35910   4.584   3.188   8.158  0.1826 -0.1620  1.3708
11490SOL    HW135911   4.505   3.200   8.210 -0.3943 -2.2002  1.0474
11490SOL    HW235912   4.566   3.236   8.076 -1.1151 -1.3167  0.9417
11491SOL     OW35913   3.685   4.302  10.261  0.7113 -0.0273  0.1998
11491SOL    HW135914   3.757   4.301  10.198  1.3546 -1.0538  0.9340
11491SOL    HW235915   3.690   4.218  10.305 -0.3909  0.2527  0.8914
11492SOL     OW35916   2.931   2.782   4.397 -0.3683  0.0538  0.5239
11492SOL    HW135917   2.934   2.706   4.454  1.4473 -0.4652 -0.1824
11492SOL    HW235918   3.023   2.802   4.378 -0.8616  0.7949 -1.4003
11493SOL     OW35919   5.665   4.341   3.016  0.5766  0.1697 -0.1204
11493SOL    HW135920   5.632   4.429   2.996 -2.5678 -0.4941  1.4296
11493SOL    HW235921   5.655   4.293   2.933  0.8972  0.8828 -0.5851
11494SOL     OW35922   7.558   1.465   9.296 -0.3116 -0.0994 -0.1771
11494SOL    HW135923   7.645   1.480   9.259 -0.3210  0.4529  0.0204
11494SOL    HW235924   7.504   1.441   9.220 -0.5662  1.9931 -0.7033
11495SOL     OW35925   7.932   0.297   2.967  0.1998  0.2923  0.2469
11495SOL    HW135926   8.012   0.250   2.991  0.4668  0.9731  0.7001
11495SOL    HW235927   7.903   0.338   3.048 -1.1715 -0.7542  0.3262
11496SOL     OW35928   4.082   1.219  10.849  0.2612  0.5921 -0.0597
11496SOL    HW135929   4.041   1.161  10.913  0.0006  1.1648  0.3018
11496SOL    HW235930   4.068   1.176  10.764  1.6604 -0.7812  0.3654
11497SOL     OW35931   6.966   5.937   8.861 -0.3594 -0.2164 -0.5015
11497SOL    HW135932   6.959   5.928   8.766  0.4785 -0.1937 -0.5702
11497SOL    HW235933   7.059   5.925   8.880 -0.5248 -0.2803  0.3245
11498SOL     OW35934   7.683   2.743   6.781  0.1153 -0.2159  0.2267
11498SOL    HW135935   7.742   2.784   6.845  0.2845 -1.1042  0.6500
11498SOL    HW235936   7.596   2.753   6.820  0.1731 -0.3947  0.4024
11499SOL     OW35937   7.420   2.652  11.212 -0.0220 -0.0206  0.1699
11499SOL    HW135938   7.403   2.738  11.175 -1.6550  0.2391  1.3844
11499SOL    HW235939   7.439   2.596  11.136 -2.3833  0.6675 -1.0202
11500SOL     OW35940   3.775   6.091   8.426  0.0905  0.5054  0.5545
11500SOL    HW135941   3.868   6.081   8.406 -0.5752 -0.1341 -2.8791
11500SOL    HW235942   3.740   6.002   8.422 -0.9223  0.9106  0.0962
11501SOL     OW35943   0.063   4.811  11.283 -0.2434  0.1094  0.0893
11501SOL    HW135944   0.009   4.832  11.207 -0.1382 -2.6873 -0.8478
11501SOL    HW235945   0.046   4.719  11.301  0.8148  0.3173  2.6069
11502SOL     OW35946   3.277   5.709   9.789  0.1021  0.2974  0.4045
11502SOL    HW135947   3.283   5.705   9.884 -0.1609 -1.3045  0.3650
11502SOL    HW235948   3.364   5.682   9.758 -0.1471 -0.2694  0.1841
11503SOL     OW35949   1.653   5.845   6.487 -0.0234  0.2067  0.3574
11503SOL    HW135950   1.560   5.824   6.486 -0.2458  1.0579 -1.4774
11503SOL    HW235951   1.660   5.923   6.432  1.5458  1.2900  2.0012
11504SOL     OW35952   5.232   6.619   2.310  0.0188 -0.3748 -0.0503
11504SOL    HW135953   5.288   6.622   2.388 -0.2930  0.2102  0.1585
11504SOL    HW235954   5.152   6.576   2.340 -0.3855  0.4946  0.1481
11505SOL     OW35955   4.836   4.584   1.216 -0.5384 -0.0882 -0.2743
11505SOL    HW135956   4.759   4.543   1.177 -0.4488  0.4982 -1.0831
11505SOL    HW235957   4.805   4.670   1.244 -0.1182  0.2648 -0.8715
11506SOL     OW35958   4.276   2.653   9.745 -0.1462  0.1560 -0.2968
11506SOL    HW135959   4.296   2.738   9.705 -0.1644 -0.0407 -0.7213
11506SOL    HW235960   4.349   2.597   9.721 -0.9472 -0.4263 -1.4466
11507SOL     OW35961   6.506   5.574   7.987  0.8101  0.2445 -0.3111
11507SOL    HW135962   6.444   5.644   8.009  0.0890  0.0048 -1.4868
11507SOL    HW235963   6.586   5.621   7.960  0.4581  0.6059 -0.7328
11508SOL     OW35964   0.556   4.409   6.462 -0.0774 -0.3873 -0.0267
11508SOL    HW135965   0.488   4.468   6.496  0.0361 -0.1378 -0.2283
11508SOL    HW235966   0.553   4.333   6.520 -0.2824 -0.2188  0.1858
11509SOL     OW35967   0.797   2.089   6.677 -0.0708  0.1210 -0.0535
11509SOL    HW135968   0.889   2.115   6.671 -0.3917  0.9504 -2.2862
11509SOL    HW235969   0.784   2.067   6.770  1.8192  2.0768  0.7655
11510SOL     OW35970   4.805   5.562   0.948 -0.2547  0.0604  0.1379
11510SOL    HW135971   4.873   5.545   0.884 -1.0541  1.9341 -1.3099
11510SOL    HW235972   4.726   5.574   0.897 -0.8669  1.9023  1.4060
11511SOL     OW35973   6.413   0.175  10.345  0.2959 -0.2444 -0.7938
11511SOL    HW135974   6.327   0.217  10.341  0.4420  0.1725  0.1955
11511SOL    HW235975   6.476   0.246  10.337  0.5735  0.1502  3.1083
11512SOL     OW35976   7.111   3.746   0.565  1.0517  0.6367  0.0028
11512SOL    HW135977   7.046   3.812   0.543 -0.1503 -0.3442  0.5337
11512SOL    HW235978   7.152   3.779   0.645  0.7052  0.8917  0.0754
11513SOL     OW35979   3.827   7.780  11.462 -0.5338 -0.2104  0.2118
11513SOL    HW135980   3.912   7.823  11.473 -0.2095 -1.1827  2.0166
11513SOL    HW235981   3.778   7.837  11.404  1.3179  0.4336 -0.8112
11514SOL     OW35982   0.070   6.918  11.916 -0.4777 -0.0071  0.2704
11514SOL    HW135983   0.115   6.972  11.851  0.5597  0.7126  1.5421
11514SOL    HW235984  -0.018   6.906  11.879 -0.8543  2.7518  0.0047
11515SOL     OW35985   5.691   6.838  12.351 -0.0386  0.0972  0.1766
11515SOL    HW135986   5.648   6.755  12.332 -1.1434  0.7343 -0.2527
11515SOL    HW235987   5.622   6.891  12.393  0.8148  0.5871  0.9882
11516SOL     OW35988   2.254   5.645   1.132  0.2173  0.1819 -0.4309
11516SOL    HW135989   2.172   5.610   1.098  0.2418  0.7688 -1.1214
11516SOL    HW235990   2.245   5.639   1.227 -0.1321 -0.8527 -0.5218
11517SOL     OW35991   3.870   2.705   3.417  0.0145 -0.5156  0.6711
11517SOL    HW135992   3.879   2.715   3.322 -1.7405 -0.9625  0.4380
11517SOL    HW235993   3.786   2.661   3.430  0.0698 -0.1881  2.4569
11518SOL     OW35994   1.759   6.424   9.534  0.0760  0.0128  0.6098
11518SOL    HW135995   1.786   6.456   9.447  1.5218 -0.0660  0.9951
11518SOL    HW235996   1.823   6.356   9.555  1.1306  1.5225  2.6490
11519SOL     OW35997   2.632   5.636   5.252 -0.1193 -0.2252  0.0625
11519SOL    HW135998   2.562   5.583   5.213  1.3195 -1.3215 -1.1804
11519SOL    HW235999   2.696   5.572   5.282  1.4727  0.7616 -1.0762
11520SOL     OW36000   5.952   6.101   0.512 -0.4305  0.1036  1.0383
11520SOL    HW136001   5.980   6.136   0.428 -0.6598  1.6497  1.5809
11520SOL    HW236002   6.030   6.106   0.568 -0.7374  0.7575  1.4217
11521SOL     OW36003   1.453   3.145   6.906  0.4995  0.2574 -0.8405
11521SOL    HW136004   1.385   3.081   6.925  0.4690  0.9970  1.8805
11521SOL    HW236005   1.507   3.146   6.984  1.5748  2.2570 -1.5558
11522SOL     OW36006   4.250   7.632   7.955  0.0716 -0.0532  0.6379
11522SOL    HW136007   4.306   7.566   7.997 -1.6367 -1.4903  0.7534
11522SOL    HW236008   4.289   7.645   7.868  0.1675 -1.5977  0.4238
11523SOL     OW36009   2.313   6.070   9.430  0.1713 -0.0258  0.1489
11523SOL    HW136010   2.339   6.156   9.398 -0.2725  0.6921  1.6028
11523SOL    HW236011   2.351   6.008   9.368 -0.5265  1.2483 -1.6146
11524SOL     OW36012   0.682   3.915   8.779 -0.0987  0.5746  0.0147
11524SOL    HW136013   0.617   3.895   8.711  0.8464 -1.7714 -0.3145
11524SOL    HW236014   0.706   3.829   8.815  1.7282  1.4909  1.1309
11525SOL     OW36015   3.253   4.425  12.468 -0.0613  0.3449  0.9584
11525SOL    HW136016   3.174   4.478  12.467 -0.4155 -0.1843  0.7271
11525SOL    HW236017   3.236   4.354  12.406  0.4703  0.0561  1.1340
11526SOL     OW36018   5.124   3.568  11.711 -0.2237 -0.2968  0.2746
11526SOL    HW136019   5.137   3.661  11.693  0.0931 -0.0495  1.6950
11526SOL    HW236020   5.075   3.536  11.636  0.2008  0.8784 -0.5359
11527SOL     OW36021   2.880   0.106   1.894 -0.6752 -0.4864 -0.3247
11527SOL    HW136022   2.831   0.024   1.883 -1.5658  0.2429 -2.3480
11527SOL    HW236023   2.908   0.129   1.805  1.2593  0.4054  0.4663
11528SOL     OW36024   5.605   5.058   0.890 -0.4981 -0.3251  0.1512
11528SOL    HW136025   5.698   5.080   0.885 -0.6546  1.0462  1.9970
11528SOL    HW236026   5.603   4.971   0.929 -0.0013 -0.7358 -0.6973
11529SOL     OW36027   3.593   6.939   9.901  0.3118 -0.0324  0.0974
11529SOL    HW136028   3.635   6.944   9.987  0.8617  0.7701 -0.2131
11529SOL    HW236029   3.516   6.996   9.909  0.1754 -0.2221  0.1558
11530SOL     OW36030   5.445   3.114  10.467 -0.1169 -0.2289  0.7160
11530SOL    HW136031   5.411   3.161  10.544 -0.3587  0.6631  0.0780
11530SOL    HW236032   5.367   3.087  10.419 -0.0388  2.2375 -1.0088
11531SOL     OW36033   0.309   4.173   3.374  0.4248  0.1190 -0.2862
11531SOL    HW136034   0.396   4.138   3.354 -0.4539 -1.4818 -1.6441
11531SOL    HW236035   0.290   4.231   3.300 -0.1589 -0.5719 -0.6941
11532SOL     OW36036   1.262   1.413  12.171 -0.0181 -0.2922 -0.0498
11532SOL    HW136037   1.320   1.359  12.117 -0.9452 -0.6480 -0.7221
11532SOL    HW236038   1.245   1.360  12.249 -2.2572 -1.7957 -1.4310
11533SOL     OW36039   0.089   2.623   6.940  0.1044 -0.2623  0.5893
11533SOL    HW136040   0.039   2.701   6.961  1.5181  0.8880 -0.0824
11533SOL    HW236041   0.160   2.622   7.004  0.3957 -0.6993  0.2662
11534SOL     OW36042   3.028   0.916   5.748  0.2925 -0.0182  0.3690
11534SOL    HW136043   3.015   0.979   5.818 -0.0129  1.1862 -0.7235
11534SOL    HW236044   2.972   0.948   5.677 -0.5009 -1.9883  0.0609
11535SOL     OW36045   2.720   5.003   4.369  0.3743  0.3556  0.7149
11535SOL    HW136046   2.748   4.926   4.419 -0.7362 -0.1388  0.5908
11535SOL    HW236047   2.791   5.066   4.382  0.2474  0.1657  2.7285
11536SOL     OW36048   6.213   5.572  11.185  0.0061 -0.2367 -0.3047
11536SOL    HW136049   6.212   5.578  11.090 -0.5926  0.2124 -0.2800
11536SOL    HW236050   6.135   5.622  11.213 -1.5684 -2.8219  0.2772
11537SOL     OW36051   5.582   6.051   0.174 -0.0359 -0.0229  0.3694
11537SOL    HW136052   5.564   6.008   0.258  0.0442  1.4439  1.1696
11537SOL    HW236053   5.675   6.036   0.159 -0.2409 -1.0846  0.0501
11538SOL     OW36054   7.091   2.521   5.516  0.1521 -0.0945  0.0787
11538SOL    HW136055   7.106   2.608   5.553 -1.0118 -0.6218  1.8802
11538SOL    HW236056   7.092   2.535   5.421 -0.8134  2.0360  0.3338
11539SOL     OW36057   0.927   7.563   0.612  0.4011  0.1828  0.0846
11539SOL    HW136058   0.839   7.573   0.648 -1.3713 -1.0272 -3.4097
11539SOL    HW236059   0.930   7.472   0.583  2.3458  0.5473 -1.0128
11540SOL     OW36060   0.261   1.732  10.133  0.2926 -0.0317 -0.1044
11540SOL    HW136061   0.205   1.775  10.069 -0.0449 -1.1497 -0.5808
11540SOL    HW236062   0.221   1.647  10.147  0.9188 -0.1819  0.8523
11541SOL     OW36063   0.207   6.103   8.663  0.0064  0.4128 -0.1738
11541SOL    HW136064   0.238   6.046   8.593 -0.7423 -0.4254  0.1435
11541SOL    HW236065   0.232   6.057   8.743 -2.9682 -0.9509  0.1209
11542SOL     OW36066   3.798   0.008  10.559 -0.6539 -0.3810 -0.4237
11542SOL    HW136067   3.855   0.083  10.574 -0.0236 -0.8911 -0.2622
11542SOL    HW236068   3.737   0.010  10.633  0.0660 -0.6720  0.1891
11543SOL     OW36069   0.208   7.826   9.493  0.0728 -0.2773 -0.1846
11543SOL    HW136070   0.221   7.739   9.530  2.3552  0.1439  0.1827
11543SOL    HW236071   0.230   7.886   9.564 -2.5683  0.6908 -0.0615
11544SOL     OW36072   1.118   4.194  11.847 -0.0239  0.3224  0.2944
11544SOL    HW136073   1.111   4.271  11.791  2.1117 -0.2095 -0.8334
11544SOL    HW236074   1.190   4.215  11.907  0.5022 -0.7139  0.0537
11545SOL     OW36075   5.898   1.876   2.324  0.4137 -0.2195 -0.3375
11545SOL    HW136076   5.860   1.834   2.401  0.0392  0.2558 -0.2541
11545SOL    HW236077   5.989   1.893   2.348  0.7397 -1.5027 -0.5942
11546SOL     OW36078   3.238   7.176   7.221  0.3958  0.0285 -0.2791
11546SOL    HW136079   3.144   7.164   7.204  0.2173  1.0942 -0.1188
11546SOL    HW236080   3.251   7.271   7.215  1.5433 -0.1438 -0.6779
11547SOL     OW36081   3.384   4.893   0.411 -0.6671 -0.6116  0.1589
11547SOL    HW136082   3.463   4.843   0.387 -0.5149  0.2536 -1.2800
11547SOL    HW236083   3.408   4.984   0.396 -1.9815 -0.3452 -0.4243
11548SOL     OW36084   6.790   4.690   1.501 -0.4044  0.2834  0.3538
11548SOL    HW136085   6.779   4.674   1.595  0.6026  0.2346  0.4730
11548SOL    HW236086   6.879   4.659   1.482 -1.6073 -2.5639 -1.2291
11549SOL     OW36087   3.649   2.113   6.400  0.6334 -0.5310  0.1821
11549SOL    HW136088   3.683   2.105   6.489  0.1430  2.6265  0.8006
11549SOL    HW236089   3.561   2.150   6.412 -0.7373 -2.9121 -1.5791
11550SOL     OW36090   0.561   2.918   0.053 -0.3629  0.2624 -0.6433
11550SOL    HW136091   0.519   3.003   0.063  1.0005  0.9291 -0.3673
11550SOL    HW236092   0.645   2.927   0.097  0.4483 -0.7465 -1.9095
11551SOL     OW36093   2.892   4.920   0.211  0.0290  0.5063  0.2516
11551SOL    HW136094   2.860   4.862   0.280  0.9113 -0.8620 -0.4466
11551SOL    HW236095   2.986   4.926   0.226  0.1276  0.7364 -0.4369
11552SOL     OW36096   0.229   6.673   4.715  0.0188  0.0598  0.0713
11552SOL    HW136097   0.279   6.592   4.705 -2.0249 -1.2425 -0.1644
11552SOL    HW236098   0.230   6.713   4.628 -0.0725 -0.3889 -0.1384
11553SOL     OW36099   5.844   2.016  11.647  0.2167  0.0702 -0.5935
11553SOL    HW136100   5.857   1.926  11.617  1.0994  0.0508 -0.2038
11553SOL    HW236101   5.911   2.028  11.715 -3.1396 -0.6674  3.2421
11554SOL     OW36102   4.625   7.482  10.762  0.2043  0.1064  0.0367
11554SOL    HW136103   4.601   7.506  10.852 -0.2245 -0.2626  0.0233
11554SOL    HW236104   4.679   7.555  10.732 -0.2404  0.5751  0.3470
11555SOL     OW36105   6.640   5.380   1.736 -0.1847  0.7830  0.1009
11555SOL    HW136106   6.685   5.422   1.809 -0.6601  2.5878 -0.5819
11555SOL    HW236107   6.615   5.453   1.679  0.6860 -0.6011 -2.1667
11556SOL     OW36108   4.403   1.022   9.319 -0.0910 -0.5728 -0.1279
11556SOL    HW136109   4.319   1.026   9.272  0.7520 -1.6576 -1.8353
11556SOL    HW236110   4.456   0.962   9.267  1.5389 -0.4175  1.2849
11557SOL     OW36111   1.430   7.953   2.395  0.0170 -0.1557 -0.4324
11557SOL    HW136112   1.362   7.943   2.329  0.3233 -1.9895 -0.5025
11557SOL    HW236113   1.492   8.014   2.356 -0.0902 -0.7840 -1.6128
11558SOL     OW36114   5.092   5.943   7.444  0.2809 -0.2486  0.1541
11558SOL    HW136115   5.187   5.957   7.446  0.2346  0.0221  0.6104
11558SOL    HW236116   5.062   5.996   7.369  0.2542  1.2645  1.1772
11559SOL     OW36117   1.452   1.784   3.473  0.1373 -0.4098 -0.3691
11559SOL    HW136118   1.366   1.742   3.477 -0.4903  0.9116  2.4068
11559SOL    HW236119   1.438   1.863   3.421 -0.2256 -0.3817 -0.2267
11560SOL     OW36120   7.226   1.794   0.258  0.4198 -0.7895  0.0703
11560SOL    HW136121   7.173   1.720   0.287 -0.0128  0.3872  2.5912
11560SOL    HW236122   7.174   1.871   0.281  1.8599  0.3368 -0.2900
11561SOL     OW36123   1.297   5.409   8.890  0.1482  0.0241  0.7332
11561SOL    HW136124   1.292   5.335   8.949 -0.8573 -0.9064 -0.4655
11561SOL    HW236125   1.388   5.409   8.860  0.1813 -0.6602  0.8204
11562SOL     OW36126   6.868   3.548  10.735 -0.0104  0.1808  0.2020
11562SOL    HW136127   6.897   3.612  10.801  0.1568 -0.2742  0.5731
11562SOL    HW236128   6.831   3.476  10.786  0.5030 -0.3627 -0.1787
11563SOL     OW36129   4.773   6.733   8.129  0.0113  0.0781 -0.1810
11563SOL    HW136130   4.731   6.723   8.044  0.8860  0.3856 -0.6582
11563SOL    HW236131   4.865   6.713   8.113  0.3521  1.0225  0.4935
11564SOL     OW36132   4.268   7.499   1.824  0.0810  0.3281 -0.3970
11564SOL    HW136133   4.222   7.440   1.884  1.3517  1.3729  1.7119
11564SOL    HW236134   4.341   7.447   1.792 -0.5884 -0.2264 -1.0804
11565SOL     OW36135   0.721   3.848   1.921 -0.2615 -0.6040  0.3037
11565SOL    HW136136   0.632   3.860   1.954  0.4741 -1.3586  2.7978
11565SOL    HW236137   0.724   3.757   1.891 -0.0725 -0.9162  1.2305
11566SOL     OW36138   7.399   7.171   5.800  0.1155  0.0347  0.4574
11566SOL    HW136139   7.411   7.077   5.791  0.1782  0.1512 -0.9282
11566SOL    HW236140   7.480   7.201   5.841  0.4423 -0.4238  0.1643
11567SOL     OW36141   5.404   1.021   6.117  0.2491  0.1338 -0.2448
11567SOL    HW136142   5.414   1.105   6.163 -0.0408 -0.4147  0.8615
11567SOL    HW236143   5.484   1.012   6.066  0.4137  0.9501 -0.1576
11568SOL     OW36144   6.099   7.488  12.408  0.4588  0.6505 -0.1082
11568SOL    HW136145   6.053   7.436  12.343  2.3906 -0.0431 -0.9923
11568SOL    HW236146   6.108   7.430  12.484 -1.3703  1.3007  0.6754
11569SOL     OW36147   7.538   2.238   0.793  0.0731 -0.2868 -0.1421
11569SOL    HW136148   7.595   2.217   0.719 -0.5497 -1.5107 -0.3059
11569SOL    HW236149   7.595   2.284   0.855  0.1003  2.7333 -2.2407
11570SOL     OW36150   4.687   4.395   8.350 -0.0392  0.0709  0.1645
11570SOL    HW136151   4.740   4.372   8.273 -0.0747 -0.4611  0.2961
11570SOL    HW236152   4.741   4.459   8.397 -0.7705  1.7900 -1.2082
11571SOL     OW36153   2.590   1.587   1.390  0.2096 -0.6919  0.0221
11571SOL    HW136154   2.595   1.500   1.351 -1.0839 -0.8641  0.1887
11571SOL    HW236155   2.594   1.573   1.484  0.1910 -0.5521  0.0449
11572SOL     OW36156   1.432   7.157   1.736 -0.0093  0.1786 -0.1487
11572SOL    HW136157   1.522   7.151   1.769 -0.0436  0.3101 -0.0308
11572SOL    HW236158   1.426   7.243   1.696  0.6944 -0.7863 -2.4967
11573SOL     OW36159   7.932   2.040   7.535 -0.7823  0.3901 -0.3249
11573SOL    HW136160   7.849   2.000   7.510 -1.8225  2.1980  0.0713
11573SOL    HW236161   7.965   2.080   7.454 -0.9764  0.8084 -0.2013
11574SOL     OW36162   6.244   4.240   4.493 -0.3918 -0.7140 -0.2157
11574SOL    HW136163   6.300   4.179   4.542  0.3967 -0.2378 -0.4960
11574SOL    HW236164   6.164   4.190   4.475 -1.3263 -0.4774  2.7328
11575SOL     OW36165   7.319   5.786   4.969 -0.3141  0.3763 -0.3088
11575SOL    HW136166   7.247   5.781   4.905 -0.2732 -1.3301 -0.2418
11575SOL    HW236167   7.278   5.825   5.047 -1.0955 -0.2970 -0.3707
11576SOL     OW36168   5.133   5.977  11.922  0.0539  0.5547 -0.6267
11576SOL    HW136169   5.139   6.070  11.899  0.9754  0.6567 -0.0163
11576SOL    HW236170   5.194   5.933  11.863  2.8293  0.8774  1.7453
11577SOL     OW36171   7.206   0.257  12.137 -0.1788  0.4406  0.1393
11577SOL    HW136172   7.148   0.326  12.169 -1.1535 -0.6732  0.8778
11577SOL    HW236173   7.154   0.210  12.072  0.4971  0.4426 -0.4133
11578SOL     OW36174   0.118   5.231  11.252 -0.1903  0.2822 -0.0175
11578SOL    HW136175   0.096   5.188  11.335 -1.0577  0.2403 -0.2577
11578SOL    HW236176   0.033   5.250  11.211  0.2202  0.4749 -0.8099
11579SOL     OW36177   4.528   6.145   5.652  0.1168  0.3657  0.4652
11579SOL    HW136178   4.512   6.176   5.563  1.5010 -0.1586  0.0096
11579SOL    HW236179   4.537   6.050   5.644  1.1743  0.4031  1.0069
11580SOL     OW36180   3.089   3.133   3.096 -0.1760 -0.2968  0.3166
11580SOL    HW136181   2.994   3.125   3.086 -0.2740 -0.4524  1.2476
11580SOL    HW236182   3.104   3.228   3.096 -0.3795 -0.2619  0.5363
11581SOL     OW36183   0.452   5.769   1.486  0.0482 -0.0679 -0.3487
11581SOL    HW136184   0.506   5.845   1.507  0.7072 -0.8274  0.7829
11581SOL    HW236185   0.510   5.712   1.436 -0.3264 -0.0100 -0.8549
11582SOL     OW36186   7.716   0.910   2.266 -0.1789 -0.2395 -0.6849
11582SOL    HW136187   7.798   0.884   2.223  1.4690  1.5680  1.1828
11582SOL    HW236188   7.716   0.862   2.349 -0.4541  0.5843 -0.1959
11583SOL     OW36189   1.037   0.621   6.231 -0.1371 -0.1342  0.3008
11583SOL    HW136190   0.964   0.616   6.293 -0.6038 -0.4262 -0.2712
11583SOL    HW236191   1.069   0.711   6.239 -2.2177  0.8278 -1.3100
11584SOL     OW36192   3.119   4.971   1.183 -0.3042  0.4029 -0.2771
11584SOL    HW136193   3.068   4.940   1.258  0.6034 -0.1640  0.1234
11584SOL    HW236194   3.108   5.066   1.184 -1.6454  0.2590 -0.4253
11585SOL     OW36195   7.053   5.494   4.125  0.0505  0.1378  1.0948
11585SOL    HW136196   6.993   5.473   4.197 -2.6850 -0.6342 -1.2553
11585SOL    HW236197   7.015   5.572   4.084  0.1232 -0.8892 -0.9982
11586SOL     OW36198   7.854   5.671   8.586  0.3838 -0.2076 -0.3215
11586SOL    HW136199   7.813   5.663   8.500  0.3397 -0.4424 -0.2786
11586SOL    HW236200   7.898   5.756   8.584 -1.8347  1.0265  0.3743
11587SOL     OW36201   6.643   0.533   4.560  0.0023 -0.2715  0.0255
11587SOL    HW136202   6.640   0.503   4.470 -0.0111 -1.9802  0.5536
11587SOL    HW236203   6.595   0.616   4.560  0.2019 -0.1428 -1.5619
11588SOL     OW36204   4.242   5.587   0.673 -0.0846 -0.7005 -0.3260
11588SOL    HW136205   4.161   5.638   0.674 -0.3366 -1.0970 -0.3546
11588SOL    HW236206   4.257   5.564   0.765  1.1089  1.0942  0.0012
11589SOL     OW36207   1.808   1.067   6.743 -0.6314  0.9800 -0.3764
11589SOL    HW136208   1.862   1.002   6.698 -1.9082 -1.0873  0.8727
11589SOL    HW236209   1.806   1.142   6.684  0.7110 -0.2135 -2.0353
11590SOL     OW36210   3.477   4.406  11.584 -0.1684 -0.2694  0.2083
11590SOL    HW136211   3.411   4.458  11.539 -0.0410  0.0564  0.3894
11590SOL    HW236212   3.468   4.431  11.676 -0.3303 -0.8198  0.3433
11591SOL     OW36213   6.961   0.031   8.108  0.1729 -0.4721 -0.4307
11591SOL    HW136214   6.899   0.023   8.035  3.5620  0.0790 -3.7458
11591SOL    HW236215   6.937   0.114   8.151 -1.8698 -0.7379 -0.9468
11592SOL     OW36216   1.502   1.513  11.802  0.0516 -0.2911  0.1855
11592SOL    HW136217   1.520   1.522  11.709 -0.0556  1.9311  0.3349
11592SOL    HW236218   1.578   1.550  11.845 -0.0344 -1.0244  0.9947
11593SOL     OW36219   7.002   0.540   2.822 -0.4154  0.4676  0.1289
11593SOL    HW136220   7.002   0.458   2.870  0.2513  0.5229  0.2336
11593SOL    HW236221   7.044   0.603   2.881 -1.8611  1.1479  0.4805
11594SOL     OW36222   0.241   1.716   1.766 -0.0354  0.3095 -0.8339
11594SOL    HW136223   0.292   1.784   1.811 -0.2218  0.8974 -1.5047
11594SOL    HW236224   0.282   1.708   1.680 -0.1373 -0.2941 -0.8307
11595SOL     OW36225   5.484   6.701   8.728  0.7795  0.0741  0.2209
11595SOL    HW136226   5.566   6.673   8.769 -0.0617  1.0713  2.7997
11595SOL    HW236227   5.502   6.789   8.695  0.8900  0.0917  0.3263
11596SOL     OW36228   4.113   6.471   9.745 -0.1373 -0.0926 -0.6012
11596SOL    HW136229   4.180   6.529   9.708  1.2957 -0.6601  0.9493
11596SOL    HW236230   4.040   6.529   9.765 -0.0153  0.6097 -2.0119
11597SOL     OW36231   1.940   3.460   4.922 -0.3655  0.0305  0.0076
11597SOL    HW136232   1.982   3.377   4.946 -0.5863  0.7002  3.2473
11597SOL    HW236233   1.848   3.448   4.948 -0.3625  1.3255  0.6810
11598SOL     OW36234   4.191   7.580   0.520  0.0246 -0.3318 -0.0387
11598SOL    HW136235   4.230   7.623   0.444  2.1976  0.3311  1.3396
11598SOL    HW236236   4.175   7.490   0.492  0.8225 -0.1148 -1.2544
11599SOL     OW36237   2.881   0.407  10.085  0.5148  0.2157  0.1233
11599SOL    HW136238   2.805   0.462  10.063  0.0353 -0.8383 -1.0044
11599SOL    HW236239   2.954   0.468  10.090 -0.0339  0.9951 -0.9169
11600SOL     OW36240   0.069   5.006   0.949 -0.1325 -0.5700  0.1690
11600SOL    HW136241   0.123   5.053   0.886  1.8901 -1.7105  0.9644
11600SOL    HW236242   0.076   4.914   0.923  1.1242 -1.1257  2.2397
11601SOL     OW36243   3.860   1.382   5.934  0.3139 -0.1343  0.7604
11601SOL    HW136244   3.829   1.364   6.023  1.9748 -1.0427  1.2141
11601SOL    HW236245   3.846   1.300   5.887  1.8043 -0.5365  0.9535
11602SOL     OW36246   1.358   2.597   0.394  0.2333  0.3498 -0.3788
11602SOL    HW136247   1.391   2.558   0.475  0.7918  1.8773  0.1612
11602SOL    HW236248   1.357   2.525   0.331  0.4598 -0.7045  0.7916
11603SOL     OW36249   3.384   5.933  10.466  0.3742  0.0913  0.3964
11603SOL    HW136250   3.384   5.873  10.391 -0.9543 -0.7939  1.0762
11603SOL    HW236251   3.421   6.014  10.431 -2.5004  0.5446 -1.9537
11604SOL     OW36252   0.331   4.846   3.492  0.3192 -0.4062  0.5830
11604SOL    HW136253   0.275   4.844   3.415  1.2846 -0.7199 -0.1267
11604SOL    HW236254   0.298   4.776   3.548  0.0000 -0.5783  0.1766
11605SOL     OW36255   7.880   4.633   6.799  0.1795 -0.1984 -0.6247
11605SOL    HW136256   7.869   4.646   6.893 -0.1515 -0.5027 -0.6194
11605SOL    HW236257   7.805   4.678   6.759  1.5498  1.9758 -0.9031
11606SOL     OW36258   2.305   2.893  12.440  0.0944  0.2351 -0.2370
11606SOL    HW136259   2.334   2.925  12.525 -0.0901 -1.5690  0.5391
11606SOL    HW236260   2.221   2.937  12.426  0.1038  0.5188  0.5275
11607SOL     OW36261   0.931   6.841   5.431  0.8263 -0.3810 -0.2947
11607SOL    HW136262   0.982   6.920   5.411  0.1533  0.2812  0.5252
11607SOL    HW236263   0.989   6.768   5.409  1.2840  0.3374 -1.5200
11608SOL     OW36264   6.965   2.804   3.458 -0.3711  0.0891  0.1262
11608SOL    HW136265   7.032   2.748   3.418 -0.4485 -0.1500  0.3281
11608SOL    HW236266   6.952   2.768   3.545  1.3719  1.8964  1.2217
11609SOL     OW36267   1.982   7.747   5.284 -0.2105 -0.2070 -0.6532
11609SOL    HW136268   1.895   7.760   5.323 -0.7650 -0.3881 -1.7851
11609SOL    HW236269   1.964   7.712   5.197  1.0459 -1.5347 -0.4102
11610SOL     OW36270   4.765   5.184   3.906  0.0460 -0.0287 -0.5972
11610SOL    HW136271   4.699   5.200   3.839 -1.9783 -2.7078  0.5684
11610SOL    HW236272   4.738   5.237   3.981 -0.5643 -0.7946 -0.2668
11611SOL     OW36273   5.391   5.021  11.793 -0.1453  0.0922 -0.3341
11611SOL    HW136274   5.421   5.069  11.716  0.3881 -0.8022 -0.7128
11611SOL    HW236275   5.387   5.086  11.863  3.0082  0.2461 -0.1791
11612SOL     OW36276   2.794   6.862   7.990 -0.4486  0.1058 -0.5518
11612SOL    HW136277   2.744   6.924   7.938  1.3381  0.8344 -1.5141
11612SOL    HW236278   2.745   6.853   8.072 -2.0750  0.7812 -1.4101
11613SOL     OW36279   2.756   0.040   3.703  0.1416  0.2230  0.4043
11613SOL    HW136280   2.759   0.023   3.609 -0.4091  0.8079  0.2670
11613SOL    HW236281   2.846   0.031   3.733  0.3267  0.0814 -0.1907
11614SOL     OW36282   3.189   7.506   1.200 -0.6608 -0.4812  0.3918
11614SOL    HW136283   3.266   7.504   1.257  0.9707  1.1688 -1.5729
11614SOL    HW236284   3.139   7.582   1.230  0.2482  0.4462 -0.3462
11615SOL     OW36285   1.391   0.944   3.253 -0.0857  0.5189  0.0847
11615SOL    HW136286   1.458   0.911   3.313  0.0963 -0.1148 -0.4475
11615SOL    HW236287   1.438   0.957   3.170  0.1601  3.4158  0.5948
11616SOL     OW36288   1.364   4.280   5.253 -0.5408  0.1307 -0.0513
11616SOL    HW136289   1.420   4.311   5.324 -1.3229  2.6294 -0.4472
11616SOL    HW236290   1.329   4.197   5.285  1.7516 -0.4988  1.0308
11617SOL     OW36291   3.118   6.036  11.730  0.6144 -0.3548  0.9808
11617SOL    HW136292   3.169   6.112  11.756 -0.4979  0.3260  1.2634
11617SOL    HW236293   3.029   6.070  11.719  0.3834 -1.3033 -0.3885
11618SOL     OW36294   2.742   0.970  10.115  0.0860 -0.0113 -0.6026
11618SOL    HW136295   2.785   1.019  10.045  1.9310 -0.7192 -0.0355
11618SOL    HW236296   2.799   0.895  10.129 -0.9474 -0.5683  0.7678
11619SOL     OW36297   0.535   7.762  12.060 -0.2571  0.3393 -0.0748
11619SOL    HW136298   0.603   7.766  12.127 -1.4839  0.1964  1.2125
11619SOL    HW236299   0.478   7.691  12.088  0.4581 -1.3355 -2.5396
11620SOL     OW36300   7.319   6.215   5.732 -0.1262 -0.3833  0.1045
11620SOL    HW136301   7.291   6.128   5.762  1.0625 -0.2116  1.8760
11620SOL    HW236302   7.238   6.264   5.721 -0.7075 -0.8908  1.8234
11621SOL     OW36303   7.891   7.563   6.029 -0.0394  0.2963 -0.1363
11621SOL    HW136304   7.931   7.484   6.065 -3.1990 -1.7529 -0.7925
11621SOL    HW236305   7.867   7.615   6.107  0.1941 -0.3765  0.3928
11622SOL     OW36306   3.550   5.184   4.739 -0.3688  0.1422  0.0507
11622SOL    HW136307   3.533   5.186   4.833 -0.1713 -1.2820  0.1382
11622SOL    HW236308   3.630   5.235   4.728  1.1225 -1.8665  1.0257
11623SOL     OW36309   5.352   0.596   9.383 -0.1068 -0.0166 -0.5062
11623SOL    HW136310   5.386   0.597   9.294  0.6625 -1.8557 -0.2745
11623SOL    HW236311   5.296   0.674   9.388  1.0149  0.9614 -2.1065
11624SOL     OW36312   3.100   7.126   4.006 -0.3620 -0.3533 -0.1233
11624SOL    HW136313   3.194   7.134   3.989 -0.5872  0.0673 -1.2031
11624SOL    HW236314   3.088   7.169   4.091  0.1003  1.6056 -0.9908
11625SOL     OW36315   4.244   2.854   0.075  0.4095 -0.2363 -0.2712
11625SOL    HW136316   4.199   2.936   0.051  1.8705  0.3971 -0.9662
11625SOL    HW236317   4.257   2.861   0.170 -0.5311 -0.2268 -0.1316
11626SOL     OW36318   1.978   6.943   1.609 -0.1227 -0.5195  0.1181
11626SOL    HW136319   1.919   7.005   1.566  1.6238  0.0152 -1.6577
11626SOL    HW236320   2.041   6.999   1.655 -0.1644 -1.0512  0.8407
11627SOL     OW36321   3.150   5.110   4.158  0.3207 -0.1038  0.2195
11627SOL    HW136322   3.154   5.022   4.195 -1.1432 -0.5111 -0.5177
11627SOL    HW236323   3.232   5.151   4.184  0.0749 -0.9267  2.4954
11628SOL     OW36324   4.786   2.630   6.467  0.0815 -0.1889  0.5752
11628SOL    HW136325   4.731   2.586   6.532  0.1705 -1.4086 -0.1569
11628SOL    HW236326   4.725   2.679   6.412 -0.2436 -1.1696  0.0477
11629SOL     OW36327   1.764   7.526   0.697 -0.0214 -0.3467  0.3002
11629SOL    HW136328   1.728   7.463   0.635 -0.6231 -0.2338  0.5272
11629SOL    HW236329   1.851   7.546   0.663  0.1799 -1.3039  0.2369
11630SOL     OW36330   2.466   2.511   3.844 -0.0966 -0.5485 -0.0821
11630SOL    HW136331   2.428   2.460   3.916  1.3286  1.7371  2.5104
11630SOL    HW236332   2.465   2.601   3.876  2.6253  0.2902 -2.0182
11631SOL     OW36333   7.983   6.342  11.710  0.1505 -0.0444 -0.8136
11631SOL    HW136334   8.049   6.384  11.765  0.0672 -0.0443 -0.7131
11631SOL    HW236335   8.008   6.366  11.621  0.6718 -0.6055 -0.8237
11632SOL     OW36336   6.043   2.020   6.505 -0.7427  0.4985 -0.1766
11632SOL    HW136337   6.091   2.049   6.428 -0.4314  0.3234 -0.0528
11632SOL    HW236338   5.977   1.959   6.472 -1.4374  1.3731 -0.4440
11633SOL     OW36339   4.328   5.458   9.065 -0.3302 -0.6976  0.2774
11633SOL    HW136340   4.366   5.403   9.134 -1.5065 -1.6816  0.1820
11633SOL    HW236341   4.263   5.402   9.023 -1.2207  0.6161 -0.1668
11634SOL     OW36342   4.138   0.369   8.881  0.0101 -0.3961 -0.6676
11634SOL    HW136343   4.101   0.455   8.902 -0.6579 -0.6248 -0.8765
11634SOL    HW236344   4.114   0.355   8.789 -1.0964 -1.4022 -0.2524
11635SOL     OW36345   2.446   3.885   7.571  0.7315 -0.5028  0.0759
11635SOL    HW136346   2.355   3.877   7.599  0.8209 -0.8702  0.2722
11635SOL    HW236347   2.440   3.896   7.476  0.4961 -1.0374  0.0204
11636SOL     OW36348   1.530   2.777   9.503 -0.3435 -0.3729  0.1115
11636SOL    HW136349   1.500   2.827   9.579 -0.7552  0.4045 -0.5428
11636SOL    HW236350   1.490   2.821   9.428  0.0755 -1.1086 -0.5648
11637SOL     OW36351   1.689   1.339   3.475  0.2388 -0.8687 -0.1898
11637SOL    HW136352   1.650   1.346   3.562  0.0436  0.5971 -0.3658
11637SOL    HW236353   1.782   1.356   3.488  0.1101  0.0146 -0.3290
11638SOL     OW36354   6.642   2.707   4.150 -0.1679  0.4153 -0.4199
11638SOL    HW136355   6.631   2.800   4.169  0.1309  0.0587  1.7007
11638SOL    HW236356   6.576   2.688   4.084 -0.2844  2.0950 -0.8299
11639SOL     OW36357   0.521   1.887   7.609  0.0839 -0.1947  0.4403
11639SOL    HW136358   0.571   1.831   7.668 -1.0392 -2.0208 -0.2211
11639SOL    HW236359   0.449   1.920   7.662 -0.6442 -1.4359  0.2816
11640SOL     OW36360   2.101   5.033   1.278 -0.4254 -0.2320  0.3368
11640SOL    HW136361   2.175   4.992   1.324 -0.7200 -1.5776 -0.3351
11640SOL    HW236362   2.054   4.959   1.239 -1.1906  0.7407 -0.6183
11641SOL     OW36363   5.944   7.644   9.800  0.5027 -0.1938 -0.2635
11641SOL    HW136364   5.949   7.738   9.784 -0.7259  0.0981  0.8955
11641SOL    HW236365   6.001   7.605   9.733  0.6686  1.3311 -1.0497
11642SOL     OW36366   7.984   5.425   6.622  0.1031 -0.0636  0.1188
11642SOL    HW136367   7.963   5.497   6.683 -1.1689  1.0063 -1.4975
11642SOL    HW236368   8.049   5.373   6.669 -0.1582  1.2038  2.0315
11643SOL     OW36369   1.611   2.920   9.237 -0.2065  0.5094 -0.7105
11643SOL    HW136370   1.682   2.897   9.297 -2.3704 -1.6651  1.2892
11643SOL    HW236371   1.582   3.006   9.266 -1.1243 -0.4431  1.4524
11644SOL     OW36372   0.344   3.046   5.653  0.1774  0.1879  0.0780
11644SOL    HW136373   0.275   3.060   5.718  0.0592  1.1657 -0.2531
11644SOL    HW236374   0.387   2.965   5.682 -0.1582  0.3625  1.1246
11645SOL     OW36375   0.379   2.154   8.614 -0.2902 -0.3074  0.8130
11645SOL    HW136376   0.373   2.196   8.529 -1.2539 -0.4879  0.7878
11645SOL    HW236377   0.358   2.224   8.677  0.5651 -0.1351  0.9301
11646SOL     OW36378   7.261   6.473  11.597  0.1625 -0.3846 -0.2833
11646SOL    HW136379   7.330   6.488  11.662  0.4526  1.8280 -1.0019
11646SOL    HW236380   7.180   6.475  11.647  0.4796 -0.5214  0.2454
11647SOL     OW36381   5.982   1.848   1.040  0.4825 -0.5041  0.0262
11647SOL    HW136382   6.069   1.886   1.049  0.4074 -0.1310 -0.7455
11647SOL    HW236383   5.935   1.874   1.120  0.9799 -0.4484  0.3004
11648SOL     OW36384   2.983   4.919   7.883 -0.4931  0.2533 -0.0485
11648SOL    HW136385   2.922   4.854   7.851  0.6413  0.3047 -2.5232
11648SOL    HW236386   2.942   5.004   7.864 -0.2497  0.2826 -0.4402
11649SOL     OW36387   0.413   2.914   2.298  0.1018 -0.8215  0.3970
11649SOL    HW136388   0.396   2.901   2.392 -0.3332 -0.6814  0.3418
11649SOL    HW236389   0.505   2.937   2.293  0.1058 -0.7372  0.8062
11650SOL     OW36390   7.537   3.556  10.199  0.2568  0.2389  0.4720
11650SOL    HW136391   7.486   3.507  10.134  2.7857  0.4165 -1.8559
11650SOL    HW236392   7.621   3.511  10.201  1.1066  1.7954  1.7390
11651SOL     OW36393   2.534   2.784   7.144 -0.4760 -0.2906 -0.1842
11651SOL    HW136394   2.577   2.841   7.207  0.3936 -2.0783  0.9257
11651SOL    HW236395   2.440   2.799   7.158 -0.2747  0.3836  0.5151
11652SOL     OW36396   4.701   2.161   6.261  0.0760  0.0079 -0.4140
11652SOL    HW136397   4.726   2.141   6.170  0.8649  0.1039 -0.2275
11652SOL    HW236398   4.606   2.164   6.260  0.0916  1.3152 -1.5301
11653SOL     OW36399   7.477   1.798   9.267  0.1254 -0.0778  0.0595
11653SOL    HW136400   7.419   1.739   9.316 -0.2894 -1.0242 -1.5251
11653SOL    HW236401   7.565   1.770   9.291 -0.0392 -2.1678 -1.5474
11654SOL     OW36402   0.502   1.665   0.199 -0.3521  0.0087  0.3458
11654SOL    HW136403   0.443   1.598   0.234 -3.0522  0.8444 -2.1973
11654SOL    HW236404   0.565   1.615   0.147 -1.6430 -0.7039 -0.6053
11655SOL     OW36405   6.386   4.218   5.257 -0.3133 -0.7558  0.1242
11655SOL    HW136406   6.329   4.260   5.322  0.5973  0.3374  0.2531
11655SOL    HW236407   6.376   4.272   5.178  0.3085 -0.7215  0.0600
11656SOL     OW36408   4.591   5.132   9.157  0.0367  0.2269  0.3516
11656SOL    HW136409   4.546   5.058   9.118  0.6034 -0.0491  0.2014
11656SOL    HW236410   4.603   5.194   9.086 -0.9543  0.7247  0.6076
11657SOL     OW36411   0.054   7.655   7.942 -0.6879 -0.0289 -0.0086
11657SOL    HW136412   0.113   7.623   7.874 -2.0782 -1.3805 -0.6480
11657SOL    HW236413   0.035   7.577   7.995  0.1868  0.9445  1.8280
11658SOL     OW36414   2.367   5.395   8.801 -0.2192  0.4074 -0.1081
11658SOL    HW136415   2.450   5.440   8.788 -0.9530  1.5299 -1.1555
11658SOL    HW236416   2.301   5.464   8.793 -1.2634 -0.4842  0.5429
11659SOL     OW36417   3.780   7.346   3.246  0.0855  0.1659 -0.5921
11659SOL    HW136418   3.869   7.329   3.216  0.5007 -1.6383  1.4079
11659SOL    HW236419   3.736   7.261   3.241 -1.4266  0.9303 -1.1183
11660SOL     OW36420   1.797   5.274  12.106  0.1332 -0.4126  0.2313
11660SOL    HW136421   1.834   5.327  12.036 -3.0688 -0.1820 -1.5055
11660SOL    HW236422   1.814   5.324  12.186  2.3010  0.2290 -0.5670
11661SOL     OW36423   6.353   6.987   0.119  0.2294 -0.5196  0.2637
11661SOL    HW136424   6.430   7.029   0.158  0.2260 -0.7257  0.4956
11661SOL    HW236425   6.366   6.997   0.024  0.3606 -0.2346  0.3102
11662SOL     OW36426   2.016   4.079   7.350  0.1520  0.6474  0.2474
11662SOL    HW136427   1.972   4.048   7.271  0.5173 -0.1024  0.3339
11662SOL    HW236428   2.090   4.131   7.317  0.0409  0.7151  0.1029
11663SOL     OW36429   5.509   5.715   0.978  0.2919 -0.1019  0.4282
11663SOL    HW136430   5.428   5.715   1.028 -0.9191  0.6582 -1.4479
11663SOL    HW236431   5.536   5.623   0.976 -1.0287 -0.5054  0.2996
11664SOL     OW36432   2.048   3.916   1.559 -0.6118  0.3722  0.1498
11664SOL    HW136433   2.143   3.918   1.548 -0.4262 -0.9575  1.3103
11664SOL    HW236434   2.022   4.008   1.556  0.8645  0.8526  1.0236
11665SOL     OW36435   7.669   6.102   7.459  0.0072  0.5180  0.1335
11665SOL    HW136436   7.615   6.024   7.448 -1.6853  1.7775 -0.8881
11665SOL    HW236437   7.665   6.122   7.552  1.1407 -1.0283  0.5657
11666SOL     OW36438   1.654   7.251   3.876 -0.0527  0.2161  0.5361
11666SOL    HW136439   1.658   7.261   3.971  2.0243  2.9213  0.2410
11666SOL    HW236440   1.571   7.292   3.851  0.8823  2.4210  0.9260
11667SOL     OW36441   1.337   2.320  12.261 -0.1678 -0.0448  0.2381
11667SOL    HW136442   1.289   2.386  12.212  0.3890 -0.6264 -1.1482
11667SOL    HW236443   1.423   2.317  12.219  0.4980 -0.2345  1.5657
11668SOL     OW36444   6.995   2.507  11.972  0.6268 -0.5659  0.0164
11668SOL    HW136445   6.903   2.482  11.976  0.1071  1.0737 -0.5204
11668SOL    HW236446   7.042   2.436  12.015 -0.8927 -1.4111  0.3456
11669SOL     OW36447   1.789   2.563   1.502 -0.3537  0.3052 -0.2900
11669SOL    HW136448   1.751   2.516   1.576  0.5264  1.4190  0.9099
11669SOL    HW236449   1.713   2.601   1.457 -0.9275 -0.6959 -0.1898
11670SOL     OW36450   0.852   6.613  11.757  0.0597 -0.7204 -0.1334
11670SOL    HW136451   0.757   6.617  11.754  0.0891 -0.2036 -0.6047
11670SOL    HW236452   0.880   6.639  11.669  0.6315 -1.0554 -0.0587
11671SOL     OW36453   7.884   4.316   8.048 -0.0532 -0.3427  0.2525
11671SOL    HW136454   7.902   4.285   8.137  0.8976 -4.3719 -1.1186
11671SOL    HW236455   7.942   4.391   8.036  0.8917 -0.6278  2.5538
11672SOL     OW36456   3.051   7.132   4.639  0.3189 -0.0277  0.5178
11672SOL    HW136457   2.983   7.152   4.704 -0.7505 -1.3478 -0.1444
11672SOL    HW236458   3.132   7.128   4.689 -0.0417  1.7503  1.3028
11673SOL     OW36459   2.823   2.006  11.036  0.3930  0.1690  0.0481
11673SOL    HW136460   2.909   2.038  11.010 -0.0619  0.5996 -1.0099
11673SOL    HW236461   2.833   1.911  11.042  0.6488  0.0979 -1.2751
11674SOL     OW36462   3.827   5.495   5.177  0.2194 -0.3823  0.2772
11674SOL    HW136463   3.738   5.500   5.213  0.0410 -1.1559 -0.0370
11674SOL    HW236464   3.877   5.448   5.243 -0.0068 -1.4179 -0.2630
11675SOL     OW36465   0.284   1.490  11.316  0.3643 -0.4179 -0.7189
11675SOL    HW136466   0.366   1.446  11.294  0.8636  0.0515  0.1554
11675SOL    HW236467   0.262   1.458  11.403  1.0325  1.4233  0.1771
11676SOL     OW36468   7.937   6.966  10.559 -0.4480 -0.0703  0.3888
11676SOL    HW136469   7.959   6.883  10.601 -0.7132  0.0905  0.8493
11676SOL    HW236470   8.008   6.980  10.496  0.1342 -0.1542  1.0087
11677SOL     OW36471   6.802   3.572   1.992 -0.1301  0.2095 -0.1228
11677SOL    HW136472   6.896   3.571   2.007 -0.2225  1.2225  0.6728
11677SOL    HW236473   6.792   3.599   1.901  0.3469  0.2656 -0.1578
11678SOL     OW36474   0.274   7.768  12.357 -0.0621 -0.5614 -0.3501
11678SOL    HW136475   0.359   7.725  12.369 -0.7082 -1.4840  1.2066
11678SOL    HW236476   0.290   7.834  12.290  2.3700  0.6354  1.2630
11679SOL     OW36477   1.746   2.841   4.984 -0.1507  0.4675 -0.1217
11679SOL    HW136478   1.755   2.773   5.050  0.3960  0.7166  0.0641
11679SOL    HW236479   1.701   2.913   5.029 -3.3432 -0.7610 -1.0350
11680SOL     OW36480   7.800   4.577   1.796 -0.0073  0.2788  0.4434
11680SOL    HW136481   7.742   4.556   1.723  1.1039  0.8179 -0.6255
11680SOL    HW236482   7.743   4.576   1.873 -1.7252  2.0533 -0.7062
11681SOL     OW36483   2.092   1.102  12.301 -0.1225  0.4964  0.2072
11681SOL    HW136484   2.106   1.127  12.210 -0.3411  1.8461  0.5261
11681SOL    HW236485   2.168   1.135  12.348 -0.5439  0.8160  0.6864
11682SOL     OW36486   3.334   6.510   8.915 -0.0209 -0.0360 -0.2671
11682SOL    HW136487   3.375   6.553   8.840  0.3556 -0.4702 -0.3130
11682SOL    HW236488   3.314   6.421   8.885 -0.1237 -0.1264  0.0602
11683SOL     OW36489   0.292   0.854  11.977 -0.8746 -0.2853 -0.4014
11683SOL    HW136490   0.227   0.790  12.005 -2.0807  0.5806 -1.1147
11683SOL    HW236491   0.244   0.913  11.918  1.1569 -1.2019 -3.2243
11684SOL     OW36492   3.176   7.639  10.954  0.1128  0.4299 -0.4082
11684SOL    HW136493   3.257   7.672  10.915  0.0106  1.0950 -0.0635
11684SOL    HW236494   3.112   7.642  10.884 -0.1283  1.8279 -0.1642
11685SOL     OW36495   0.143   3.786   4.836  0.0386 -0.5970 -0.0593
11685SOL    HW136496   0.168   3.819   4.750  1.7214  0.2104  0.6729
11685SOL    HW236497   0.200   3.710   4.850  0.2075 -0.3568  0.5816
11686SOL     OW36498   0.374   2.106   4.417  0.1864  0.2584  0.0105
11686SOL    HW136499   0.321   2.163   4.362 -0.8627  1.2720  1.9611
11686SOL    HW236500   0.328   2.022   4.415  1.2872 -0.3418 -2.2229
11687SOL     OW36501   3.863   0.212   1.925  0.4421 -0.1890  0.3270
11687SOL    HW136502   3.822   0.129   1.950 -0.3972  0.3664  0.8178
11687SOL    HW236503   3.918   0.235   2.000  0.0164  0.1180  0.5495
11688SOL     OW36504   1.383   4.412   1.867 -0.2537 -0.1808 -0.2808
11688SOL    HW136505   1.317   4.363   1.917  0.0918 -0.6973 -0.3320
11688SOL    HW236506   1.340   4.432   1.784 -0.4199 -0.3315 -0.2315
11689SOL     OW36507   1.621   1.248  11.061 -0.5774  0.0817 -0.0094
11689SOL    HW136508   1.610   1.341  11.041 -1.3941 -0.5423 -2.8715
11689SOL    HW236509   1.532   1.212  11.056  0.0256 -1.2809 -1.6117
11690SOL     OW36510   0.103   5.527   7.518  0.0740 -0.0595 -0.1192
11690SOL    HW136511   0.107   5.606   7.572 -0.7870  0.6529 -1.0591
11690SOL    HW236512   0.103   5.560   7.428  0.6556 -1.1848 -0.5446
11691SOL     OW36513   1.079   7.061   4.350  0.1388 -0.1964  0.2160
11691SOL    HW136514   1.013   7.053   4.281 -0.7883 -1.2772  1.2000
11691SOL    HW236515   1.162   7.050   4.304 -0.4250 -0.3532 -0.8074
11692SOL     OW36516   4.568   4.585   2.127  0.2387 -0.2081 -0.3582
11692SOL    HW136517   4.597   4.646   2.059  0.4721  1.2579  0.9946
11692SOL    HW236518   4.602   4.621   2.208 -1.8488 -0.7072  0.8262
11693SOL     OW36519   7.248   6.888  11.302  0.1959  0.3349 -0.3466
11693SOL    HW136520   7.298   6.806  11.300 -0.2354  0.0182  0.9663
11693SOL    HW236521   7.304   6.948  11.351  0.0991  0.5358 -0.4837
11694SOL     OW36522   0.499   5.766  11.740 -0.2180 -0.4255 -0.4509
11694SOL    HW136523   0.433   5.835  11.750 -0.9722 -0.7108 -2.7784
11694SOL    HW236524   0.453   5.685  11.761  0.2097 -0.3822  0.6878
11695SOL     OW36525   5.614   1.147  10.812 -0.4085 -0.2358  0.2661
11695SOL    HW136526   5.679   1.202  10.856  0.1552 -0.6384 -0.0347
11695SOL    HW236527   5.663   1.107  10.740 -1.0513 -0.3893 -0.0858
11696SOL     OW36528   6.407   4.847   2.965 -0.2871 -0.1753 -0.0785
11696SOL    HW136529   6.314   4.846   2.989 -1.1276 -0.1007 -2.8873
11696SOL    HW236530   6.452   4.875   3.044 -2.4505 -1.9529  1.9364
11697SOL     OW36531   5.680   2.272  10.477  0.1678  0.2516  0.1912
11697SOL    HW136532   5.678   2.311  10.565 -1.5119  0.0592  0.2860
11697SOL    HW236533   5.597   2.224  10.471  0.6477 -0.4512 -1.1891
11698SOL     OW36534   6.292   7.213   3.687 -0.1834  0.0399  0.0230
11698SOL    HW136535   6.259   7.252   3.607  0.2310 -0.7292 -0.5309
11698SOL    HW236536   6.328   7.128   3.660  0.8929  0.2127  0.8478
11699SOL     OW36537   6.924   7.392   3.055  0.2266  0.0651 -0.2728
11699SOL    HW136538   6.853   7.415   3.115 -0.5054 -2.0539 -0.2407
11699SOL    HW236539   6.924   7.462   2.991 -0.9195  0.8830  0.5683
11700SOL     OW36540   1.497   5.503  12.443 -0.2954  0.1617 -0.0082
11700SOL    HW136541   1.579   5.542  12.411 -1.4931  2.2128 -0.8118
11700SOL    HW236542   1.501   5.512  12.538  0.3071  0.4888 -0.0608
11701SOL     OW36543   3.850   0.584   4.276  0.3321 -0.5676 -0.7222
11701SOL    HW136544   3.843   0.670   4.234  1.4009 -0.1339 -0.0675
11701SOL    HW236545   3.814   0.598   4.364 -0.0757 -0.9561 -0.8259
11702SOL     OW36546   5.749   7.158   7.153  0.6458  0.5497  0.0980
11702SOL    HW136547   5.838   7.133   7.179  0.3306 -1.2349 -0.3853
11702SOL    HW236548   5.757   7.181   7.060  0.0701 -3.2546 -1.0492
11703SOL     OW36549   4.989   7.427   2.656  0.3251  0.2164 -0.0711
11703SOL    HW136550   5.033   7.509   2.632 -2.5218  1.6185 -0.9784
11703SOL    HW236551   4.945   7.399   2.576 -0.9231 -0.7141  0.8869
11704SOL     OW36552   5.097   0.229   8.881  0.1554  0.1577 -0.0718
11704SOL    HW136553   5.191   0.224   8.898  0.0948 -2.0592 -0.1468
11704SOL    HW236554   5.086   0.190   8.795 -0.9727 -1.1571  0.6238
11705SOL     OW36555   2.748   4.741   3.561  0.0781 -0.7944  0.2034
11705SOL    HW136556   2.704   4.792   3.629 -1.9587 -0.9951 -0.8897
11705SOL    HW236557   2.764   4.804   3.490  0.7135 -0.9377  0.2129
11706SOL     OW36558   7.600   0.020   6.402 -0.0165 -0.4743  0.1460
11706SOL    HW136559   7.602   0.025   6.498 -0.1005  1.0134  0.0958
11706SOL    HW236560   7.691   0.003   6.377 -0.3249 -3.1844  0.5346
11707SOL     OW36561   4.404   2.154   6.370  0.2785 -0.2037  0.5539
11707SOL    HW136562   4.312   2.131   6.383  0.2663  0.3728  1.5299
11707SOL    HW236563   4.402   2.225   6.306  0.1078 -0.6619  0.0350
11708SOL     OW36564   7.531   6.236  11.325  0.0887 -0.1729  0.2045
11708SOL    HW136565   7.594   6.302  11.353  0.7566 -0.6010 -0.2661
11708SOL    HW236566   7.445   6.277  11.340  0.4886  0.7665  0.0036
11709SOL     OW36567   4.746   7.495   3.409 -0.1965 -0.2280 -0.2970
11709SOL    HW136568   4.665   7.480   3.458 -1.2895 -0.1746 -2.0092
11709SOL    HW236569   4.757   7.590   3.410 -0.0148 -0.2498  0.1284
11710SOL     OW36570   7.750   1.304   9.622 -0.4139 -0.8097  0.7114
11710SOL    HW136571   7.785   1.317   9.710 -1.0515 -0.1970  0.8924
11710SOL    HW236572   7.793   1.226   9.589  2.1030  0.6145  0.3860
11711SOL     OW36573   2.674   3.149   9.183 -0.4271  0.3232 -0.1442
11711SOL    HW136574   2.616   3.082   9.219 -1.1647 -1.0482 -3.5264
11711SOL    HW236575   2.706   3.196   9.260 -3.1238 -1.2121  2.1206
11712SOL     OW36576   6.846   7.835   0.657  0.1595 -0.9578  0.3943
11712SOL    HW136577   6.759   7.862   0.684  0.2160 -1.3437  0.9940
11712SOL    HW236578   6.891   7.916   0.634 -0.6585 -0.8328 -0.8691
11713SOL     OW36579   1.188   2.961  11.708  0.2475 -0.7228  0.3200
11713SOL    HW136580   1.226   3.049  11.709  0.1478 -0.6838  1.0535
11713SOL    HW236581   1.116   2.966  11.644  1.5318 -0.8384 -1.2118
11714SOL     OW36582   4.100   3.250  10.897 -0.0296  0.2659 -0.0694
11714SOL    HW136583   4.189   3.278  10.919 -0.8902  1.7560  1.8253
11714SOL    HW236584   4.111   3.167  10.852  2.3661  0.8461 -0.6809
11715SOL     OW36585   3.681   0.839   4.616  0.1873  0.1379  0.3515
11715SOL    HW136586   3.612   0.883   4.665 -0.6687  1.3050 -1.7612
11715SOL    HW236587   3.723   0.910   4.566  2.5502 -0.6322  1.1087
11716SOL     OW36588   2.057   5.132  10.815 -0.8658 -0.5591  1.2039
11716SOL    HW136589   2.084   5.220  10.791  2.0115 -1.8020 -0.5471
11716SOL    HW236590   2.068   5.128  10.910  0.1988  0.5747  1.1346
11717SOL     OW36591   1.060   6.641   4.166  0.4172 -0.7732  1.4332
11717SOL    HW136592   1.146   6.603   4.183  0.7893 -0.2035  0.8768
11717SOL    HW236593   1.060   6.660   4.072  0.7984  1.8169  1.8674
11718SOL     OW36594   3.782   1.431   8.201  0.3892  0.0658 -0.1953
11718SOL    HW136595   3.690   1.434   8.227  0.2337 -1.1830 -0.5625
11718SOL    HW236596   3.829   1.407   8.281  0.4915  1.3324  0.1527
11719SOL     OW36597   6.297   0.921   1.746 -0.5623  0.5885  0.4370
11719SOL    HW136598   6.286   0.827   1.739  0.9063  0.4688 -0.8328
11719SOL    HW236599   6.224   0.958   1.697 -1.5704  0.1609  1.5666
11720SOL     OW36600   6.574   3.335   3.287 -0.1937  0.3137 -0.1908
11720SOL    HW136601   6.639   3.338   3.357 -0.5264  0.6484  0.1102
11720SOL    HW236602   6.617   3.288   3.216  0.9074  1.7501 -0.5307
11721SOL     OW36603   0.755   6.117   8.461 -0.2511  0.1439 -0.2768
11721SOL    HW136604   0.798   6.191   8.419 -0.1138 -0.1413 -0.6565
11721SOL    HW236605   0.826   6.055   8.478 -0.5967 -0.7038 -1.7025
11722SOL     OW36606   7.744   7.361   2.929 -0.0592  0.5938 -0.0363
11722SOL    HW136607   7.824   7.355   2.877  0.1166  0.8628  0.2010
11722SOL    HW236608   7.761   7.430   2.993 -0.6438  0.9666 -0.2719
11723SOL     OW36609   7.705   1.150   5.300 -0.5199  0.4679 -0.0108
11723SOL    HW136610   7.616   1.154   5.266 -0.0572  1.5671 -1.1595
11723SOL    HW236611   7.759   1.126   5.225  0.2820  0.9681  0.3870
11724SOL     OW36612   5.386   3.726   6.117  0.3436  0.3216 -0.1871
11724SOL    HW136613   5.374   3.816   6.086 -1.5496 -0.6894 -2.7603
11724SOL    HW236614   5.362   3.729   6.209  0.6695  2.4974 -0.1144
11725SOL     OW36615   2.783   7.062   0.677  0.2403  0.2146  0.9017
11725SOL    HW136616   2.824   7.020   0.602  0.3544  0.2609  0.9384
11725SOL    HW236617   2.738   7.138   0.641  0.2923  0.2348  0.8807
11726SOL     OW36618   4.033   0.264   2.129 -0.0044 -0.2122  0.7076
11726SOL    HW136619   4.037   0.205   2.203  2.8204 -0.4247  0.4796
11726SOL    HW236620   4.069   0.347   2.161  2.2594 -0.6063 -0.5839
11727SOL     OW36621   4.028   2.466   0.586  0.5962 -0.2395 -0.6142
11727SOL    HW136622   4.040   2.381   0.626  1.2798 -0.3274 -0.9804
11727SOL    HW236623   3.940   2.493   0.611  0.8978 -0.4088  0.7013
11728SOL     OW36624   0.005   1.981   4.677  0.0609  0.1894  0.3701
11728SOL    HW136625   0.050   1.922   4.616  0.6818  0.1362  0.8757
11728SOL    HW236626   0.067   2.051   4.693 -1.1688  1.7715 -1.3139
11729SOL     OW36627   4.537   6.947  11.506  0.2578 -0.1786 -0.0085
11729SOL    HW136628   4.452   6.985  11.525 -0.1075 -0.7762 -0.4133
11729SOL    HW236629   4.536   6.932  11.412  1.0855  0.4554 -0.1331
11730SOL     OW36630   0.130   5.022   7.844  0.6954 -0.2702  0.1941
11730SOL    HW136631   0.139   4.943   7.791 -1.6995 -0.3881 -0.1589
11730SOL    HW236632   0.167   5.092   7.789  2.5529 -1.0307  0.3922
11731SOL     OW36633   4.552   0.652   5.470 -0.1609 -0.0883  0.1570
11731SOL    HW136634   4.564   0.744   5.446 -0.1931  0.4922  2.1831
11731SOL    HW236635   4.491   0.618   5.405 -0.5991  1.4749 -0.3007
11732SOL     OW36636   3.254   2.547  10.577  0.3043 -0.1519  0.2376
11732SOL    HW136637   3.298   2.512  10.500  0.0002 -0.9143  0.4051
11732SOL    HW236638   3.183   2.486  10.594  1.6736 -1.2542  2.4334
11733SOL     OW36639   3.792   0.113   4.720  0.0994  0.0136 -0.1368
11733SOL    HW136640   3.844   0.073   4.789  0.3667 -0.6883 -0.7278
11733SOL    HW236641   3.776   0.042   4.658 -2.2463  0.0113  0.3940
11734SOL     OW36642   5.485   7.920   3.392  0.6586 -0.6047 -0.2836
11734SOL    HW136643   5.466   7.903   3.300  1.2025 -0.6856 -0.3790
11734SOL    HW236644   5.538   8.000   3.392 -0.2783  0.0384  0.0366
11735SOL     OW36645   2.848   3.492   3.951  0.2567  0.2753 -0.7063
11735SOL    HW136646   2.940   3.469   3.939  0.3956  0.4527 -0.0152
11735SOL    HW236647   2.849   3.588   3.960 -0.0519  0.3256 -1.1912
11736SOL     OW36648   3.925   0.268   0.160  0.2519 -0.1307 -0.0907
11736SOL    HW136649   3.903   0.286   0.068  1.6305  0.1713 -0.3898
11736SOL    HW236650   3.946   0.354   0.196 -1.0308 -0.1473  0.7403
11737SOL     OW36651   5.206   4.657   9.630  0.0372 -0.0767 -0.7366
11737SOL    HW136652   5.139   4.680   9.565  0.4657 -1.4532 -1.7135
11737SOL    HW236653   5.280   4.626   9.577  1.0689  0.4397  0.3648
11738SOL     OW36654   0.833   6.512   9.902  0.0095 -0.7088 -0.8103
11738SOL    HW136655   0.739   6.497   9.916 -0.1289  0.7843  0.1385
11738SOL    HW236656   0.838   6.603   9.872  1.2462 -0.2657  0.6040
11739SOL     OW36657   6.230   0.341  10.919 -0.1730 -0.0463  0.5307
11739SOL    HW136658   6.313   0.293  10.909 -0.3062 -0.2456  0.3551
11739SOL    HW236659   6.162   0.275  10.902 -0.3490  0.5740 -1.4980
11740SOL     OW36660   6.453   4.250   3.823  0.0334 -0.2229  0.2239
11740SOL    HW136661   6.546   4.225   3.821 -0.0397 -0.4617 -0.2621
11740SOL    HW236662   6.413   4.199   3.753 -0.0865  1.4597 -0.9878
11741SOL     OW36663   3.918   6.191  11.476  0.2546 -0.5868 -0.4027
11741SOL    HW136664   3.988   6.143  11.520  0.5148 -1.1764 -1.4050
11741SOL    HW236665   3.867   6.122  11.431  0.2506  0.0110 -1.3391
11742SOL     OW36666   1.764   5.369   1.453  0.2276 -0.6555  0.1668
11742SOL    HW136667   1.744   5.369   1.547  1.5542  0.1438  0.4801
11742SOL    HW236668   1.846   5.418   1.446  0.4924 -1.2515 -1.3444
11743SOL     OW36669   3.671   5.311  10.782 -0.1155 -0.0180  0.2477
11743SOL    HW136670   3.620   5.281  10.707 -0.7475 -0.3807  0.8133
11743SOL    HW236671   3.733   5.374  10.745  0.1617 -0.8312 -0.7068
11744SOL     OW36672   0.541   6.794   5.694 -0.5102 -0.6181 -0.0935
11744SOL    HW136673   0.589   6.761   5.617  1.2973 -0.2956  0.8304
11744SOL    HW236674   0.531   6.717   5.750 -1.4491 -0.7619 -0.4421
11745SOL     OW36675   0.135   7.647   7.453  0.3774 -0.2280 -0.0227
11745SOL    HW136676   0.203   7.676   7.392  1.5780 -1.2949  0.7835
11745SOL    HW236677   0.098   7.729   7.487  1.7454  0.3741  0.0762
11746SOL     OW36678   4.567   4.398   3.170 -0.6692 -0.4375 -0.1403
11746SOL    HW136679   4.625   4.454   3.221 -1.8468  0.3508  0.3706
11746SOL    HW236680   4.611   4.312   3.169  0.9488  0.3469 -0.5692
11747SOL     OW36681   3.565   4.027  11.950 -0.2669  0.2997  0.3449
11747SOL    HW136682   3.615   3.949  11.926 -0.9270 -0.2726  0.7998
11747SOL    HW236683   3.523   4.055  11.869  0.5031  0.5796  0.0343
11748SOL     OW36684   3.205   4.638   8.615  0.2091 -0.1813 -0.3424
11748SOL    HW136685   3.254   4.604   8.690 -0.9135  0.1396  0.5617
11748SOL    HW236686   3.141   4.570   8.594 -1.2703  0.8257  0.7373
11749SOL     OW36687   6.037   0.779  11.662  0.2833  0.4877  0.4010
11749SOL    HW136688   6.094   0.704  11.648  0.6628  0.5732  1.4179
11749SOL    HW236689   6.050   0.834  11.584  2.6019  1.1409  1.1763
11750SOL     OW36690   7.305   2.527   9.291  0.4032  0.3051  0.0051
11750SOL    HW136691   7.223   2.531   9.339 -0.2633 -0.2539 -1.0548
11750SOL    HW236692   7.311   2.437   9.260  0.7708  0.6731 -1.0331
11751SOL     OW36693   0.842   1.420   0.949 -0.2083 -0.0824 -0.2417
11751SOL    HW136694   0.765   1.367   0.927 -1.1188  0.7460  0.7781
11751SOL    HW236695   0.916   1.370   0.916 -1.0031 -2.0754  0.8116
11752SOL     OW36696   7.430   3.826   0.917 -0.1517  0.4740  0.7956
11752SOL    HW136697   7.496   3.759   0.935 -0.3492  0.0673  0.0173
11752SOL    HW236698   7.480   3.899   0.879  0.0968  0.8768  1.8591
11753SOL     OW36699   7.537   6.863  12.232 -0.3847 -0.1383  0.6620
11753SOL    HW136700   7.500   6.800  12.171 -1.7306  2.3615 -1.2555
11753SOL    HW236701   7.627   6.831  12.247 -0.2247 -1.2516 -2.0542
11754SOL     OW36702   2.250   1.114   1.612  0.4844 -0.3669 -0.6847
11754SOL    HW136703   2.193   1.120   1.688 -0.2448  0.1152 -1.2572
11754SOL    HW236704   2.332   1.156   1.639 -0.4185  1.5166 -0.7662
11755SOL     OW36705   2.715   7.036   9.707 -0.2683  0.1826  0.5944
11755SOL    HW136706   2.632   7.024   9.754 -0.6052  0.4072  0.0661
11755SOL    HW236707   2.694   7.098   9.637  0.3374  0.2093  0.4335
11756SOL     OW36708   2.855   4.837   9.828 -0.3934  0.5964 -0.5107
11756SOL    HW136709   2.945   4.809   9.839 -0.0647  1.4291 -0.9403
11756SOL    HW236710   2.839   4.894   9.903 -0.3692  0.8946 -0.7287
11757SOL     OW36711   6.807   3.845   2.132  0.2109  0.5573 -0.2478
11757SOL    HW136712   6.876   3.882   2.077  0.2059 -0.5928 -1.0716
11757SOL    HW236713   6.794   3.756   2.097  0.2522 -0.2436  1.6591
11758SOL     OW36714   2.127   2.451   8.234 -0.3552 -0.7065  0.1057
11758SOL    HW136715   2.159   2.384   8.175 -0.1159 -2.0331  1.6771
11758SOL    HW236716   2.162   2.427   8.320  1.2038  2.3829  0.5028
11759SOL     OW36717   2.169   0.937   9.341  0.0610  0.0192 -0.0480
11759SOL    HW136718   2.089   0.964   9.296  0.1349 -1.0139 -0.8087
11759SOL    HW236719   2.238   0.941   9.274  0.5336  0.2967  0.4443
11760SOL     OW36720   0.850   0.939   6.975  0.0959 -0.0768  0.4852
11760SOL    HW136721   0.821   0.914   7.062  0.4085 -0.9019  0.3568
11760SOL    HW236722   0.933   0.984   6.988  0.0236  0.0159  0.6277
11761SOL     OW36723   3.978   6.910   7.219  0.5933  0.3012 -0.0325
11761SOL    HW136724   3.970   6.998   7.183 -1.2841  0.5701  0.9012
11761SOL    HW236725   3.924   6.855   7.163  2.0857 -0.3983 -0.8645
11762SOL     OW36726   0.267   5.135   9.735 -0.1834 -0.1749  0.0072
11762SOL    HW136727   0.347   5.185   9.750 -0.7988  1.5793 -2.0746
11762SOL    HW236728   0.281   5.053   9.782  2.5690  0.3115  0.2073
11763SOL     OW36729   4.814   2.883   1.291 -0.2518  0.3326 -0.1103
11763SOL    HW136730   4.835   2.948   1.358 -0.5083 -0.5046  0.8210
11763SOL    HW236731   4.727   2.851   1.316  0.2722 -1.0498  0.0250
11764SOL     OW36732   6.794   1.657   3.256  0.5874 -0.0700  0.0015
11764SOL    HW136733   6.840   1.594   3.201  0.9878  0.5795 -0.4219
11764SOL    HW236734   6.778   1.732   3.198 -2.5466 -0.9052 -0.4156
11765SOL     OW36735   1.446   1.265   1.944  0.2440  0.5993  0.4072
11765SOL    HW136736   1.437   1.175   1.913 -1.9252  0.6676  0.7443
11765SOL    HW236737   1.519   1.261   2.006 -0.8357 -1.3055  1.6708
11766SOL     OW36738   5.336   3.538   7.475 -0.4480 -0.7024  0.0854
11766SOL    HW136739   5.411   3.508   7.526 -0.7447 -2.5573 -0.4976
11766SOL    HW236740   5.264   3.480   7.502 -1.7472  1.1444  0.7682
11767SOL     OW36741   5.030   4.807   7.335  0.7894 -0.2903  0.2618
11767SOL    HW136742   4.954   4.853   7.300  0.6447 -1.5637 -1.2076
11767SOL    HW236743   5.105   4.861   7.311  0.4770  0.1902  0.3560
11768SOL     OW36744   2.332   6.496   6.304  0.2584 -0.1708  0.2950
11768SOL    HW136745   2.250   6.498   6.255 -0.3709 -1.2088  1.2612
11768SOL    HW236746   2.388   6.561   6.261 -0.4610 -0.6404 -1.4246
11769SOL     OW36747   6.962   0.038   9.970  0.1237  0.2463 -0.3883
11769SOL    HW136748   6.943  -0.033   9.908  0.9453 -1.5320  1.3311
11769SOL    HW236749   7.056   0.032   9.986 -0.1281  0.4279  1.3086
11770SOL     OW36750   6.676   1.529   5.949  0.0044 -0.2741  0.0816
11770SOL    HW136751   6.638   1.525   5.861 -0.4554 -0.0955  0.2666
11770SOL    HW236752   6.657   1.618   5.979  0.4750 -0.2214  0.2246
11771SOL     OW36753   1.795   2.704   7.999 -0.0119 -0.1452 -0.5010
11771SOL    HW136754   1.721   2.699   7.938 -1.1092  0.6001  0.7064
11771SOL    HW236755   1.770   2.647   8.071  1.8946 -2.1271 -1.3083
11772SOL     OW36756   1.261   3.006   8.189 -0.3950  0.0106 -0.1541
11772SOL    HW136757   1.169   3.030   8.187 -0.2510  0.6602  0.5368
11772SOL    HW236758   1.279   2.989   8.282  0.6346  1.7930  0.0168
11773SOL     OW36759   5.817   2.271   3.304 -0.3031 -0.1775 -0.5745
11773SOL    HW136760   5.750   2.247   3.240 -1.3955  0.2509  0.3747
11773SOL    HW236761   5.770   2.322   3.369  1.1453  0.9516 -0.3696
11774SOL     OW36762   2.543   6.552   1.452 -0.7010  0.1848  0.1305
11774SOL    HW136763   2.463   6.544   1.504 -0.3199  0.7484  0.8171
11774SOL    HW236764   2.514   6.537   1.361 -1.3774 -0.7557  0.4821
11775SOL     OW36765   6.852   1.453   2.472 -0.5391 -0.2180  0.1686
11775SOL    HW136766   6.921   1.517   2.488 -0.6049  0.2077 -1.1562
11775SOL    HW236767   6.897   1.368   2.478 -0.2889 -0.0375  1.1158
11776SOL     OW36768   4.889   5.447   5.965 -0.5526  0.5571 -0.1558
11776SOL    HW136769   4.795   5.430   5.973 -0.5615 -0.6467 -2.1069
11776SOL    HW236770   4.918   5.385   5.898  1.6332  0.9451  0.3801
11777SOL     OW36771   4.126   5.915   7.466 -0.2429 -0.4655  0.7678
11777SOL    HW136772   4.195   5.901   7.401  0.7995  0.0058  1.7165
11777SOL    HW236773   4.121   6.010   7.474 -2.2260 -0.4169 -0.4983
11778SOL     OW36774   1.738   5.726   4.936  0.3311  0.0575  0.1784
11778SOL    HW136775   1.706   5.779   4.863 -0.1811 -1.6718 -0.9158
11778SOL    HW236776   1.658   5.697   4.981  0.3384 -2.5668 -1.3190
11779SOL     OW36777   6.612   5.296   5.453 -0.3190 -0.2111 -0.4711
11779SOL    HW136778   6.622   5.368   5.390 -0.6783  0.4390  0.1980
11779SOL    HW236779   6.694   5.248   5.449 -0.4602 -0.3767 -1.6716
11780SOL     OW36780   3.870   0.336   3.137  0.2803 -0.2081 -0.4939
11780SOL    HW136781   3.964   0.341   3.121  0.5731 -0.6688  0.9013
11780SOL    HW236782   3.861   0.346   3.232 -1.0890 -0.0705 -0.6139
11781SOL     OW36783   7.376   2.562  11.480  0.4361 -0.6370  0.1875
11781SOL    HW136784   7.361   2.652  11.508 -1.0730 -0.8203  0.0400
11781SOL    HW236785   7.416   2.571  11.393  2.6444 -0.1131  1.1929
11782SOL     OW36786   2.132   5.179   8.449  0.0789 -0.0353  0.1752
11782SOL    HW136787   2.085   5.215   8.524  0.4623  0.6072  0.1214
11782SOL    HW236788   2.211   5.141   8.487 -0.9242 -1.9939  0.3824
11783SOL     OW36789   2.566   3.041   4.870 -0.4245 -0.1519 -0.5299
11783SOL    HW136790   2.605   3.123   4.898 -1.8298  0.3157  0.1593
11783SOL    HW236791   2.573   2.984   4.946  0.0710 -0.5060 -0.8338
11784SOL     OW36792   1.059   0.249   4.638 -0.1891  0.0225 -0.1265
11784SOL    HW136793   1.116   0.198   4.581 -0.2934  1.9626 -2.0932
11784SOL    HW236794   0.981   0.266   4.586 -1.6314 -0.5946  1.6922
11785SOL     OW36795   3.495   2.476   0.546  0.6884  0.0880 -0.3168
11785SOL    HW136796   3.510   2.507   0.456 -0.6068  0.9748 -0.2654
11785SOL    HW236797   3.429   2.537   0.580  0.3619 -0.9092  0.8666
11786SOL     OW36798   5.833   1.813   5.036  0.1758  0.2984  0.1029
11786SOL    HW136799   5.800   1.735   4.991 -1.8914 -0.4470  2.6379
11786SOL    HW236800   5.768   1.881   5.019  2.3318  1.8645 -2.7065
11787SOL     OW36801   3.157   1.011   0.054  0.1043  0.2933 -0.8678
11787SOL    HW136802   3.098   0.974   0.121  2.6201 -0.6913  0.9519
11787SOL    HW236803   3.161   0.943  -0.013 -0.5990  0.2624 -0.8947
11788SOL     OW36804   0.247   0.898   7.228 -0.0708 -0.0224  0.0743
11788SOL    HW136805   0.239   0.994   7.233 -0.9801 -0.1249  0.9931
11788SOL    HW236806   0.297   0.875   7.306 -1.7542 -0.4566  1.0820
11789SOL     OW36807   7.351   4.108   8.133  0.4870 -0.3078  0.3216
11789SOL    HW136808   7.352   4.034   8.194  1.1197  0.2596  1.0232
11789SOL    HW236809   7.399   4.177   8.179  0.5596  0.2916 -0.6357
11790SOL     OW36810   5.318   2.942  12.045  0.0110  0.6164  0.7544
11790SOL    HW136811   5.409   2.960  12.066  0.3677  1.1971 -1.0757
11790SOL    HW236812   5.321   2.868  11.984 -0.6915  0.8519  0.4116
11791SOL     OW36813   7.914   5.958   8.559  0.1322  0.0086 -0.7275
11791SOL    HW136814   7.870   6.025   8.508 -1.8332 -0.6389  0.0251
11791SOL    HW236815   7.895   5.980   8.651 -1.3343 -1.9930 -0.4790
11792SOL     OW36816   3.219   2.173  10.474 -0.1237  0.1656 -0.0675
11792SOL    HW136817   3.159   2.099  10.471  0.5290 -0.3816  0.2989
11792SOL    HW236818   3.179   2.234  10.537 -0.8161  0.2774 -0.6026
11793SOL     OW36819   0.164   2.951   2.912  0.1050 -0.0408 -0.1742
11793SOL    HW136820   0.204   2.950   2.825 -1.0218  1.6092 -0.7540
11793SOL    HW236821   0.234   2.979   2.970 -0.1109  2.8599 -1.1793
11794SOL     OW36822   6.905   1.620   2.018  0.1859 -0.9268 -0.5832
11794SOL    HW136823   6.899   1.528   1.990 -0.1827 -0.6835 -1.3217
11794SOL    HW236824   6.860   1.669   1.950 -2.4448 -0.4594  1.3272
11795SOL     OW36825   4.491   6.730   0.357 -0.0841  0.0379  0.2845
11795SOL    HW136826   4.547   6.800   0.322  0.4394 -0.5107 -0.0021
11795SOL    HW236827   4.441   6.772   0.427  1.4007  0.3108  1.2301
11796SOL     OW36828   5.143   6.894  10.134  0.5322 -0.0357  0.4414
11796SOL    HW136829   5.233   6.926  10.142  0.9412 -1.2460  0.9099
11796SOL    HW236830   5.128   6.888  10.039  1.1447 -0.3398  0.3589
11797SOL     OW36831   1.485   5.491   2.411  0.1485 -0.0549 -0.1865
11797SOL    HW136832   1.426   5.567   2.408 -0.9371 -0.8883 -3.2495
11797SOL    HW236833   1.439   5.427   2.466 -0.3302  0.4067 -0.0433
11798SOL     OW36834   4.342   3.772  11.610 -0.3155  0.0574 -0.5184
11798SOL    HW136835   4.407   3.807  11.671 -1.6894  1.9057 -0.0140
11798SOL    HW236836   4.285   3.718  11.664  0.6062 -1.3368 -0.9077
11799SOL     OW36837   2.704   4.393   9.249 -0.2688 -0.3372  0.1498
11799SOL    HW136838   2.759   4.399   9.327 -1.4674 -2.1331  1.2019
11799SOL    HW236839   2.694   4.484   9.220  1.7387  0.1904  0.9495
11800SOL     OW36840   4.651   6.373   3.439  0.0725  0.2192 -0.3894
11800SOL    HW136841   4.702   6.370   3.358 -0.4644  3.0195 -0.9681
11800SOL    HW236842   4.560   6.365   3.411 -0.0064 -1.8734  0.3232
11801SOL     OW36843   0.389   4.066   5.285  0.0135 -0.4121  0.9194
11801SOL    HW136844   0.475   4.029   5.264  0.4221  0.3320  1.2115
11801SOL    HW236845   0.409   4.150   5.327 -0.8637  0.3286 -0.0719
11802SOL     OW36846   7.037   5.618   9.151 -0.3085 -0.3107  0.0858
11802SOL    HW136847   6.948   5.603   9.182 -0.5084 -1.2004 -0.8990
11802SOL    HW236848   7.033   5.604   9.057  0.8879 -0.4725  0.0450
11803SOL     OW36849   3.683   2.798   5.280  0.3934  0.2724 -0.1265
11803SOL    HW136850   3.592   2.826   5.288  0.2210 -0.1709 -0.4766
11803SOL    HW236851   3.733   2.879   5.273 -0.2574  0.5455 -2.8296
11804SOL     OW36852   7.956   0.226   5.872  0.4532  0.1560  0.6265
11804SOL    HW136853   7.926   0.168   5.942  0.5380  0.7501  1.1604
11804SOL    HW236854   8.023   0.281   5.913  0.4111  0.5945  0.1147
11805SOL     OW36855   0.890   7.628   8.005 -0.3377  0.1496  0.2986
11805SOL    HW136856   0.922   7.548   7.964 -1.3486  1.1878 -2.8002
11805SOL    HW236857   0.914   7.698   7.944 -2.3393  1.7790  1.2403
11806SOL     OW36858   3.022   6.730   0.746  0.6093  0.3996  0.2393
11806SOL    HW136859   3.026   6.794   0.818  1.7063  1.5562 -0.8151
11806SOL    HW236860   3.077   6.767   0.677 -0.5883 -0.5635 -1.3121
11807SOL     OW36861   1.453   4.964   3.425  0.2740 -0.3595 -0.5599
11807SOL    HW136862   1.500   4.893   3.470  1.9537 -0.2432 -2.0390
11807SOL    HW236863   1.522   5.019   3.388 -1.0281  1.1993 -0.7751
11808SOL     OW36864   7.777   0.520   1.702 -0.0598 -0.5984 -0.5190
11808SOL    HW136865   7.754   0.598   1.754  1.0906 -2.3846  3.0088
11808SOL    HW236866   7.696   0.469   1.697 -0.4946  0.1608 -1.7254
11809SOL     OW36867   7.858   1.745   6.265  0.5151 -0.2773 -0.0421
11809SOL    HW136868   7.784   1.781   6.313  0.1113 -0.4755 -0.5004
11809SOL    HW236869   7.860   1.652   6.289  0.9382 -0.1655  0.3681
11810SOL     OW36870   3.882   5.855  11.157  0.2063  0.1013  0.5655
11810SOL    HW136871   3.907   5.810  11.076  1.0526  0.9563  0.3308
11810SOL    HW236872   3.858   5.943  11.128  0.8962  0.5342  1.2860
11811SOL     OW36873   4.865   2.470   5.508  0.5532  0.0193  0.1923
11811SOL    HW136874   4.786   2.430   5.544  1.3651  0.0362  2.0802
11811SOL    HW236875   4.924   2.397   5.490  1.3404  0.1678  1.9383
11812SOL     OW36876   2.570   5.725   6.082  0.4123  0.2983 -0.6075
11812SOL    HW136877   2.647   5.740   6.136  1.4084  1.4824 -2.2614
11812SOL    HW236878   2.498   5.764   6.130  0.9029 -0.4217  0.7589
11813SOL     OW36879   3.412   1.330   6.658 -0.3779  0.3598  0.3079
11813SOL    HW136880   3.461   1.406   6.626 -1.4203  0.7710 -0.3752
11813SOL    HW236881   3.348   1.313   6.589 -0.0155 -1.2974  0.3459
11814SOL     OW36882   1.775   2.674   3.238  0.3003  0.5269 -0.0014
11814SOL    HW136883   1.827   2.631   3.307 -0.1167  0.5972  0.3657
11814SOL    HW236884   1.723   2.739   3.285 -0.1200  0.4553 -0.3644
11815SOL     OW36885   4.660   0.583   2.718  0.3904 -0.2418  0.0018
11815SOL    HW136886   4.649   0.677   2.733 -1.3030 -0.5206  0.6745
11815SOL    HW236887   4.744   0.576   2.672  0.0578  1.6972 -1.0250
11816SOL     OW36888   1.289   4.443   3.346  0.5158  0.0542 -0.1269
11816SOL    HW136889   1.336   4.362   3.327 -0.0356 -0.5581  0.9918
11816SOL    HW236890   1.197   4.420   3.334  0.2683  0.1290  1.3899
11817SOL     OW36891   4.211   3.767  10.198  0.1228  0.2532  0.8044
11817SOL    HW136892   4.304   3.754  10.176 -0.0311  0.8532 -0.2594
11817SOL    HW236893   4.204   3.737  10.289  0.9512 -1.5893  0.3181
11818SOL     OW36894   5.370   6.578   4.235  0.0805  0.1705 -0.4302
11818SOL    HW136895   5.367   6.669   4.265  0.9087  0.7766 -2.0727
11818SOL    HW236896   5.399   6.584   4.144  0.8664 -1.7917 -0.3482
11819SOL     OW36897   6.118   5.911   4.474 -0.1707 -0.2134 -0.5016
11819SOL    HW136898   6.074   5.837   4.433  0.0507  0.7181 -2.4995
11819SOL    HW236899   6.210   5.884   4.480 -0.3945 -0.8329  0.6121
11820SOL     OW36900   3.587   6.741   2.185 -0.2047 -0.2523 -0.4478
11820SOL    HW136901   3.645   6.666   2.198  2.6007  1.9621  0.8441
11820SOL    HW236902   3.535   6.717   2.108  0.1221 -3.7096  0.2292
11821SOL     OW36903   1.530   1.784   6.296  0.5222 -0.0825 -0.2252
11821SOL    HW136904   1.609   1.739   6.266  0.2849  0.6969 -2.2275
11821SOL    HW236905   1.557   1.876   6.306  0.0437  0.0649 -0.2538
11822SOL     OW36906   2.925   5.265   2.690 -0.0591  0.5777  0.1759
11822SOL    HW136907   2.836   5.238   2.711 -0.0384 -0.1324 -0.5611
11822SOL    HW236908   2.945   5.335   2.752 -1.2552  0.9922  0.1171
11823SOL     OW36909   7.485   4.277  12.369  0.2456  0.2275  0.2087
11823SOL    HW136910   7.441   4.194  12.347 -1.3177  0.8114  0.9409
11823SOL    HW236911   7.534   4.257  12.449  1.0732 -0.3632 -0.4415
11824SOL     OW36912   5.475   5.497   3.424 -0.4836 -0.0131 -0.0915
11824SOL    HW136913   5.441   5.519   3.338  0.5594 -2.1663 -1.1222
11824SOL    HW236914   5.558   5.545   3.431  0.2721 -1.1312 -1.0402
11825SOL     OW36915   7.945   7.359   0.544 -0.4140  0.1500  0.2444
11825SOL    HW136916   7.875   7.395   0.491  1.2889  0.6822 -1.7583
11825SOL    HW236917   8.024   7.368   0.490  1.7943  2.2876  3.4700
11826SOL     OW36918   3.646   4.650  10.674 -0.0564  0.5069  0.0941
11826SOL    HW136919   3.561   4.674  10.711 -1.2376 -1.6037 -1.0775
11826SOL    HW236920   3.625   4.605  10.592  2.0775 -1.4572  0.5205
11827SOL     OW36921   2.731   7.336   4.046  0.1941  0.3703  0.1558
11827SOL    HW136922   2.757   7.340   3.955 -0.5345  0.8859 -0.0363
11827SOL    HW236923   2.789   7.398   4.091  0.7573 -0.1103  0.1027
11828SOL     OW36924   5.494   3.797  10.636  0.7351  0.2411  0.1418
11828SOL    HW136925   5.451   3.826  10.717  3.1904 -0.3814  1.7683
11828SOL    HW236926   5.440   3.724  10.605 -0.2137  0.4340  1.2732
11829SOL     OW36927   5.753   3.017  10.808 -0.2749  0.0074  0.4203
11829SOL    HW136928   5.720   3.074  10.878  0.8567  0.1991  0.8186
11829SOL    HW236929   5.804   2.951  10.854  1.2223  0.6474 -0.2788
11830SOL     OW36930   2.364   7.630   5.721  0.3677 -0.5513 -0.2877
11830SOL    HW136931   2.282   7.602   5.680 -0.2391  0.7737 -0.0295
11830SOL    HW236932   2.418   7.551   5.722 -0.8293 -1.4130 -0.6424
11831SOL     OW36933   7.057   7.985   1.469  0.0278  0.2214 -0.2528
11831SOL    HW136934   7.121   7.927   1.429 -0.1312  0.8698 -1.4948
11831SOL    HW236935   6.982   7.928   1.489  0.1785 -0.1499 -0.7301
11832SOL     OW36936   1.465   7.000   6.664  0.1975  0.3367  0.2147
11832SOL    HW136937   1.416   7.056   6.603  0.0143 -0.5136 -0.4476
11832SOL    HW236938   1.550   6.987   6.621 -0.0707 -0.5863 -0.0803
11833SOL     OW36939   3.169   7.458   9.573  0.5118 -0.2717  0.2864
11833SOL    HW136940   3.259   7.451   9.541  0.0616  0.3218 -1.1844
11833SOL    HW236941   3.174   7.520   9.646  1.2127  0.2394 -0.1832
11834SOL     OW36942   4.823   3.822   5.436 -0.0323 -0.3421 -0.1471
11834SOL    HW136943   4.867   3.754   5.488 -1.2335 -0.6922  0.4291
11834SOL    HW236944   4.853   3.806   5.346  1.4417 -0.2236  0.2992
11835SOL     OW36945   3.194   4.941   1.755  0.5808  0.3622  0.3824
11835SOL    HW136946   3.115   4.932   1.809  0.5452 -0.9689  0.1500
11835SOL    HW236947   3.217   4.851   1.731  1.4255  0.8249 -0.6377
11836SOL     OW36948   6.192   7.550   7.300  0.6234 -0.2110 -0.5041
11836SOL    HW136949   6.267   7.570   7.356 -0.0367 -0.3925  0.4837
11836SOL    HW236950   6.129   7.508   7.359 -1.2170  2.0164 -0.7266
11837SOL     OW36951   7.465   4.593   4.433 -0.0704  0.4996  0.2959
11837SOL    HW136952   7.447   4.582   4.340 -0.7895 -0.5741  0.5480
11837SOL    HW236953   7.492   4.506   4.463  2.4009  1.2936  0.6448
11838SOL     OW36954   4.846   6.499  12.033  0.4851 -0.1853 -0.4890
11838SOL    HW136955   4.795   6.555  11.974  0.0838 -0.0864 -0.0517
11838SOL    HW236956   4.807   6.413  12.023 -0.6124  0.1317  0.7826
11839SOL     OW36957   2.616   6.684   4.417 -0.0794  0.1647 -0.1411
11839SOL    HW136958   2.523   6.670   4.403 -0.2355  1.7545 -0.8694
11839SOL    HW236959   2.652   6.695   4.329  0.5341  1.0046  0.2022
11840SOL     OW36960   2.804   1.197   2.677 -0.1782 -0.5177 -0.4573
11840SOL    HW136961   2.739   1.130   2.654 -0.4860 -0.9143  1.3951
11840SOL    HW236962   2.800   1.203   2.772 -0.2696  2.2929 -0.5641
11841SOL     OW36963   1.393   1.504   0.821  0.4192 -0.4502 -0.4625
11841SOL    HW136964   1.449   1.549   0.884  0.2135  0.3134 -0.8043
11841SOL    HW236965   1.443   1.505   0.739 -0.0005  0.0498 -0.7175
11842SOL     OW36966   2.342   5.758   7.034  0.2776 -0.4330 -1.2918
11842SOL    HW136967   2.351   5.692   7.103  3.6824  1.3753  0.2569
11842SOL    HW236968   2.308   5.710   6.959 -3.1505 -2.6363  1.3565
11843SOL     OW36969   6.375   3.707   6.923  1.0279 -0.1588  0.7360
11843SOL    HW136970   6.363   3.797   6.892  0.3938  0.5321  2.7936
11843SOL    HW236971   6.470   3.698   6.933  1.1003  0.2554  0.4772
11844SOL     OW36972   6.025   2.127  10.894  0.0643  0.5951  0.2956
11844SOL    HW136973   6.119   2.148  10.894  0.1251  0.3408 -0.5694
11844SOL    HW236974   5.994   2.159  10.979  1.1424 -0.2661  1.0472
11845SOL     OW36975   6.534   4.478  11.436  0.5081 -0.4189 -0.3817
11845SOL    HW136976   6.446   4.443  11.418 -0.4567  0.3208  2.3117
11845SOL    HW236977   6.544   4.550  11.375 -1.3857  0.3502  0.1364
11846SOL     OW36978   1.618   3.775   7.472 -0.6635  0.0363  0.3019
11846SOL    HW136979   1.578   3.695   7.440  0.8628 -1.6318  2.2949
11846SOL    HW236980   1.709   3.771   7.440 -0.4208  0.6725  0.8885
11847SOL     OW36981   1.500   0.593  12.452 -0.1595  0.2884  0.3044
11847SOL    HW136982   1.441   0.544  12.394 -0.9065  1.3266  0.1661
11847SOL    HW236983   1.543   0.525  12.505 -1.6744 -0.4914  0.5933
11848SOL     OW36984   5.409   4.895   0.239  0.0063  0.2202 -0.1042
11848SOL    HW136985   5.475   4.962   0.259  1.5752 -1.1935 -0.3004
11848SOL    HW236986   5.348   4.899   0.312  0.8714  0.8918  0.6032
11849SOL     OW36987   6.935   6.035   2.782 -0.0326 -0.0653  0.1173
11849SOL    HW136988   6.928   5.983   2.702  2.5396 -0.6269  0.1843
11849SOL    HW236989   6.944   5.971   2.853 -1.6484  0.4390  0.8332
11850SOL     OW36990   0.168   1.177  12.046  0.0485  0.0784  0.3872
11850SOL    HW136991   0.183   1.173  12.140  0.0148 -3.0196  0.3825
11850SOL    HW236992   0.255   1.181  12.007  0.3274 -2.3376  0.5861
11851SOL     OW36993   1.092   4.865  12.172  0.3670 -0.1729  0.0984
11851SOL    HW136994   1.015   4.900  12.217 -0.0541  1.8955 -2.0313
11851SOL    HW236995   1.116   4.786  12.222 -2.5775 -0.3932  1.3443
11852SOL     OW36996   3.725   2.129   4.424  0.0695 -0.1109 -0.6281
11852SOL    HW136997   3.776   2.193   4.374 -0.0542 -0.2680 -0.9570
11852SOL    HW236998   3.649   2.111   4.370 -0.0303 -0.3370 -0.4135
11853SOL     OW36999   7.333   5.503   8.856  0.1645  0.0488 -0.4779
11853SOL    HW137000   7.400   5.440   8.829  0.0456  0.6392 -2.2562
11853SOL    HW237001   7.377   5.588   8.851  0.5853  0.1546  2.7231
11854SOL     OW37002   7.505   1.672   9.013  0.8080 -0.0898 -0.0229
11854SOL    HW137003   7.461   1.600   9.057  1.3227  0.0197  0.6873
11854SOL    HW237004   7.528   1.733   9.083 -2.2852  2.2956 -0.8590
11855SOL     OW37005   6.388   1.522   5.469  0.2427  0.2243  0.1319
11855SOL    HW137006   6.405   1.439   5.424 -0.2972  0.3409 -0.2973
11855SOL    HW237007   6.441   1.518   5.548  1.6478  0.2287 -0.7710
11856SOL     OW37008   2.737   3.957  10.625  0.0401  0.8211  0.2530
11856SOL    HW137009   2.823   3.933  10.591 -0.3568 -0.8537  0.3186
11856SOL    HW237010   2.713   3.884  10.682 -0.6554  2.1051  1.6852
11857SOL     OW37011   1.066   1.327   9.182  0.2993 -0.0056 -0.9220
11857SOL    HW137012   1.035   1.282   9.104 -1.8696 -0.1791 -0.0308
11857SOL    HW237013   1.161   1.329   9.172  0.3847 -3.2186 -1.8339
11858SOL     OW37014   3.792   1.512  11.080  0.2081 -0.0989 -0.2081
11858SOL    HW137015   3.768   1.459  11.155 -0.0025  0.8548  0.4173
11858SOL    HW237016   3.730   1.487  11.011 -0.6102  0.1395  0.4338
11859SOL     OW37017   6.656   4.538   0.121  0.0072 -0.2532  0.1073
11859SOL    HW137018   6.594   4.540   0.194 -0.7402 -0.2714 -0.5144
11859SOL    HW237019   6.613   4.485   0.054  1.1064 -1.0659  0.0170
11860SOL     OW37020   4.944   1.676   2.266  0.7744  0.1721  0.4351
11860SOL    HW137021   4.969   1.585   2.286 -0.3573 -0.6678 -1.5813
11860SOL    HW237022   5.027   1.720   2.249  1.5250  0.1483  3.4422
11861SOL     OW37023   0.664   5.937   1.573 -0.2034  0.0744 -0.1665
11861SOL    HW137024   0.723   5.898   1.638 -0.4517 -0.9835 -0.5536
11861SOL    HW237025   0.652   6.027   1.603  0.0894 -0.2457  0.9753
11862SOL     OW37026   3.932   0.129   1.539 -0.6023  0.1942 -0.5618
11862SOL    HW137027   3.916   0.205   1.596  0.0253  0.3253 -0.5446
11862SOL    HW237028   3.941   0.166   1.451  0.5253  0.2532 -0.4388
11863SOL     OW37029   0.567   6.910   0.607 -0.1663  0.1500 -0.0597
11863SOL    HW137030   0.479   6.892   0.574  0.1010 -1.8818  0.1943
11863SOL    HW237031   0.561   6.891   0.701  0.4920  0.1539 -0.0168
11864SOL     OW37032   4.389   5.879   8.427  0.1040 -0.4530  0.1595
11864SOL    HW137033   4.431   5.824   8.360 -1.2060 -0.5347 -0.6311
11864SOL    HW237034   4.415   5.840   8.510  0.9747 -0.9447 -0.3294
11865SOL     OW37035   2.091   5.227   0.400  0.2449  0.1163  0.2292
11865SOL    HW137036   2.013   5.188   0.360  1.6188 -1.3290 -1.2160
11865SOL    HW237037   2.078   5.321   0.391 -1.0781 -0.1056 -0.4940
11866SOL     OW37038   2.411   6.901   3.352 -0.2537  0.0990  0.1231
11866SOL    HW137039   2.319   6.875   3.359 -0.4012  0.8654  1.1407
11866SOL    HW237040   2.457   6.841   3.410  0.0484 -0.8820 -1.0622
11867SOL     OW37041   4.231   5.367   7.743 -0.0908  0.1870 -0.2860
11867SOL    HW137042   4.176   5.297   7.709  0.4061 -0.0421 -0.6398
11867SOL    HW237043   4.181   5.405   7.814 -0.6750 -0.0621 -0.5564
11868SOL     OW37044   2.150   6.478   9.915 -0.5378  0.4364  0.8710
11868SOL    HW137045   2.059   6.509   9.908 -0.0690  1.6278 -0.1768
11868SOL    HW237046   2.202   6.558   9.917  0.7634 -0.2091 -2.4182
11869SOL     OW37047   0.384   7.975  12.202 -0.5926 -0.2599 -0.6881
11869SOL    HW137048   0.443   7.998  12.274 -0.0604 -2.7410 -0.2252
11869SOL    HW237049   0.443   7.942  12.134 -1.3615 -2.6986 -0.2595
11870SOL     OW37050   1.241   1.583  11.375 -0.4303  0.0769  0.2861
11870SOL    HW137051   1.241   1.679  11.377 -0.5199  0.0767  0.2957
11870SOL    HW237052   1.151   1.559  11.356 -0.9743 -0.0672  2.7270
11871SOL     OW37053   2.109   7.298   4.604  0.6324 -0.4045 -0.4025
11871SOL    HW137054   2.077   7.387   4.617 -0.2021 -0.6306 -0.8513
11871SOL    HW237055   2.199   7.309   4.574 -0.0107  0.3630 -2.1996
11872SOL     OW37056   4.756   3.952   1.506  0.5322 -0.2632 -0.2957
11872SOL    HW137057   4.691   3.905   1.559  0.0622  0.0815 -0.5561
11872SOL    HW237058   4.705   3.996   1.438  0.8507  1.2957  0.4201
11873SOL     OW37059   4.157   0.435   8.044 -0.0182  0.2268 -0.6328
11873SOL    HW137060   4.185   0.371   7.979  1.2414 -1.0377  1.0337
11873SOL    HW237061   4.237   0.456   8.093 -1.0003  0.6079  0.9095
11874SOL     OW37062   2.531   2.106   8.952 -0.1512 -0.2414 -0.5594
11874SOL    HW137063   2.469   2.099   8.880 -0.5170 -1.1440 -0.1803
11874SOL    HW237064   2.489   2.165   9.014 -0.3004 -0.2632 -0.6381
11875SOL     OW37065   4.285   5.033   5.895 -0.3568 -0.2844 -0.4083
11875SOL    HW137066   4.195   5.028   5.864 -0.3504  0.0018 -0.4825
11875SOL    HW237067   4.313   5.122   5.872 -0.6698  0.2901  1.3013
11876SOL     OW37068   7.595   0.219  10.761 -0.1947  0.0806 -0.7960
11876SOL    HW137069   7.669   0.163  10.740  0.0022 -0.0511  0.2111
11876SOL    HW237070   7.548   0.172  10.830 -0.7297  0.5709 -0.8160
11877SOL     OW37071   6.300   3.914  12.330 -0.0398 -0.1493  0.3562
11877SOL    HW137072   6.269   3.944  12.415 -0.0638 -0.9309  0.6229
11877SOL    HW237073   6.395   3.928  12.332 -0.1419  0.6204  0.1857
11878SOL     OW37074   3.021   2.484   5.626 -0.8829  0.0457 -0.9312
11878SOL    HW137075   3.089   2.545   5.654 -0.1519 -0.3683 -1.7719
11878SOL    HW237076   3.037   2.471   5.532 -2.1762  0.0082 -1.1737
11879SOL     OW37077   6.252   3.584   6.594 -0.5103  0.2382  0.4274
11879SOL    HW137078   6.206   3.550   6.671 -1.5296  1.4700  0.3926
11879SOL    HW237079   6.213   3.670   6.579  0.6491  0.5995 -0.6420
11880SOL     OW37080   3.121   6.200  10.857  0.5265 -0.1205  0.1066
11880SOL    HW137081   3.136   6.276  10.801  1.1758  1.0103  1.7426
11880SOL    HW237082   3.127   6.125  10.797  1.2450  1.0120 -1.3179
11881SOL     OW37083   1.147   3.006   7.462 -0.8187  0.2122 -0.4644
11881SOL    HW137084   1.187   2.997   7.375  0.4221 -2.5713  0.2852
11881SOL    HW237085   1.217   3.039   7.517 -1.2737  0.8872 -0.2883
11882SOL     OW37086   0.231   3.195   7.694 -0.1144 -0.2561  0.2792
11882SOL    HW137087   0.270   3.278   7.666 -0.2153 -0.2772  0.0694
11882SOL    HW237088   0.147   3.192   7.647  0.8857 -1.5474 -1.5356
11883SOL     OW37089   0.556   0.126   6.054  0.2212 -0.0047 -0.2661
11883SOL    HW137090   0.559   0.161   6.143  1.4677  2.5714 -1.2446
11883SOL    HW237091   0.562   0.031   6.066 -1.1111  0.1394  2.4252
11884SOL     OW37092   5.124   4.838  10.890 -0.2009 -0.1861  0.2130
11884SOL    HW137093   5.048   4.863  10.838 -0.8031  1.2961  1.7081
11884SOL    HW237094   5.087   4.793  10.966  0.4615 -0.1650  0.5555
11885SOL     OW37095   3.398   2.731   1.385 -0.5100 -0.0213  0.2281
11885SOL    HW137096   3.406   2.740   1.480  1.0281 -2.9688  0.5109
11885SOL    HW237097   3.317   2.683   1.372 -0.2519 -0.4410  0.1479
11886SOL     OW37098   0.017   2.321   5.422 -0.0308  0.2078 -0.7602
11886SOL    HW137099   0.062   2.291   5.343  0.5926 -1.0763  0.0452
11886SOL    HW237100   0.059   2.404   5.443  0.9222 -0.2327 -0.8843
11887SOL     OW37101   6.469   0.835   1.126 -0.9027 -0.2224 -0.5641
11887SOL    HW137102   6.408   0.890   1.176  0.0606  0.4117 -0.0554
11887SOL    HW237103   6.535   0.808   1.190 -0.5770 -0.8119 -1.1304
11888SOL     OW37104   4.074   0.039   3.699  0.1500 -0.8485 -0.3032
11888SOL    HW137105   4.036   0.090   3.770  0.0369 -0.3313 -0.7334
11888SOL    HW237106   4.075  -0.051   3.732  0.6270 -0.5343  0.5780
11889SOL     OW37107   3.984   7.330  11.299  0.3011  0.4170  0.0031
11889SOL    HW137108   3.962   7.415  11.337 -1.0267  0.4305 -0.7300
11889SOL    HW237109   3.934   7.266  11.349  2.6234 -0.2128  1.7233
11890SOL     OW37110   0.497   3.408   1.496 -0.7873 -0.3023  0.6829
11890SOL    HW137111   0.587   3.426   1.471 -0.5117 -0.4249  1.5371
11890SOL    HW237112   0.444   3.459   1.435 -0.1420 -0.2887  0.1289
11891SOL     OW37113   2.298   6.576   7.707  0.1967  0.6016  0.2784
11891SOL    HW137114   2.281   6.624   7.788  1.0985  2.3906 -0.5544
11891SOL    HW237115   2.212   6.542   7.681 -0.3184  1.0716  1.2947
11892SOL     OW37116   0.209   7.681   2.795 -1.0614 -0.2999  0.3373
11892SOL    HW137117   0.255   7.721   2.720 -1.7998 -0.6225 -0.2982
11892SOL    HW237118   0.228   7.739   2.868 -1.0340  0.4989 -0.2875
11893SOL     OW37119   5.393   0.377   6.281  0.1548 -0.1819  0.4500
11893SOL    HW137120   5.355   0.441   6.341 -1.5935 -1.1878  0.4674
11893SOL    HW237121   5.443   0.429   6.219 -1.9580  1.3287 -0.0873
11894SOL     OW37122   2.617   1.170   9.625 -0.0556  0.4240 -0.0461
11894SOL    HW137123   2.599   1.254   9.583  2.2020  0.1377 -1.7291
11894SOL    HW237124   2.542   1.115   9.602 -0.8417  1.5202 -0.1599
11895SOL     OW37125   4.775   6.690   0.235 -0.1333 -0.0111 -0.2817
11895SOL    HW137126   4.786   6.717   0.144  0.8029  0.3277 -0.0701
11895SOL    HW237127   4.803   6.765   0.286  1.4448 -0.9571  0.3070
11896SOL     OW37128   6.172   4.751   0.629  0.1554  0.3081 -0.1112
11896SOL    HW137129   6.080   4.776   0.637  0.3013  0.5638  0.9838
11896SOL    HW237130   6.220   4.834   0.630  0.4354  0.1489  0.1400
11897SOL     OW37131   7.385   3.937   2.708 -0.0392 -0.0889  0.1015
11897SOL    HW137132   7.377   3.945   2.803 -0.7551  1.2604 -0.0423
11897SOL    HW237133   7.415   3.848   2.694 -1.6104 -0.9099  1.5034
11898SOL     OW37134   2.685   5.495   1.014 -0.0760  0.1525 -0.3265
11898SOL    HW137135   2.683   5.471   0.922 -0.1737  0.5789 -0.4353
11898SOL    HW237136   2.772   5.533   1.026  2.3932 -4.9315  1.0318
11899SOL     OW37137   7.693   1.154   3.507  0.5858 -0.0704  0.1624
11899SOL    HW137138   7.726   1.238   3.540  1.0630 -0.4676  0.6909
11899SOL    HW237139   7.717   1.155   3.414  2.1138 -0.3545  0.5326
11900SOL     OW37140   2.063   0.195   1.691  0.1054 -0.3286  0.3964
11900SOL    HW137141   2.127   0.199   1.619  0.9149 -1.2865  1.0339
11900SOL    HW237142   1.982   0.230   1.653  1.0525  1.1730 -0.3691
11901SOL     OW37143   2.774   1.259   4.172 -0.2689  0.1499  0.1251
11901SOL    HW137144   2.687   1.255   4.211 -0.3099 -0.0335  0.0178
11901SOL    HW237145   2.761   1.297   4.086 -0.0657  1.3211  0.6021
11902SOL     OW37146   5.098   1.490  11.415 -0.2864 -0.1357 -0.3751
11902SOL    HW137147   5.050   1.414  11.447  1.4806 -1.0628  0.1807
11902SOL    HW237148   5.131   1.533  11.495  0.3379  0.1092 -0.7559
11903SOL     OW37149   3.405   4.339  10.171 -0.1019  0.3279 -0.0936
11903SOL    HW137150   3.375   4.355  10.081  0.0329 -3.3221 -0.9512
11903SOL    HW237151   3.498   4.362  10.169  0.3384 -1.3274 -1.4916
11904SOL     OW37152   5.891   7.774  10.759 -0.2829  0.1395  0.3314
11904SOL    HW137153   5.860   7.845  10.814 -0.6107  2.3721 -2.5193
11904SOL    HW237154   5.952   7.815  10.698  1.1729 -2.4559 -0.1117
11905SOL     OW37155   0.757   1.067   4.591 -0.0470 -0.1816 -0.1310
11905SOL    HW137156   0.809   1.095   4.667  0.0096 -1.8622  0.4886
11905SOL    HW237157   0.773   1.135   4.525  1.7147  0.1569  0.5808
11906SOL     OW37158   2.402   3.265   2.087  0.0702 -0.3338  0.2988
11906SOL    HW137159   2.453   3.323   2.143  0.4384  0.3081 -0.6727
11906SOL    HW237160   2.468   3.214   2.039 -0.2343 -2.2060  1.7445
11907SOL     OW37161   4.140   7.330  12.407  0.4292  0.2946  0.6658
11907SOL    HW137162   4.176   7.411  12.443 -0.3065  0.3966  1.1751
11907SOL    HW237163   4.045   7.344  12.405  0.1258 -1.2377  2.4680
11908SOL     OW37164   7.793   4.141   5.768 -0.2686  0.8968  0.3849
11908SOL    HW137165   7.820   4.227   5.800  3.6467  1.8097 -4.3133
11908SOL    HW237166   7.735   4.160   5.695 -0.5642 -0.5735  0.2109
11909SOL     OW37167   4.856   7.030   9.982 -0.3075  0.0608  0.2404
11909SOL    HW137168   4.868   7.120  10.011 -0.5313  0.0933  0.2312
11909SOL    HW237169   4.793   6.993  10.044 -0.9748  0.1988 -0.3533
11910SOL     OW37170   2.996   3.535   7.415  0.0852 -0.2584  0.0725
11910SOL    HW137171   2.961   3.604   7.471 -1.1475 -1.0823  0.3545
11910SOL    HW237172   2.945   3.541   7.334  1.8129  0.8885 -0.9947
11911SOL     OW37173   4.358   7.517  10.803 -0.5072 -0.2417 -0.5833
11911SOL    HW137174   4.439   7.501  10.753  0.0484  0.4505  0.0753
11911SOL    HW237175   4.353   7.612  10.810 -0.3604 -0.3357  0.9995
11912SOL     OW37176   7.161   1.310  12.221 -0.2219  0.4486 -0.0322
11912SOL    HW137177   7.222   1.305  12.295 -0.0388  1.7790 -0.0782
11912SOL    HW237178   7.081   1.268  12.254  0.3000 -0.2148  0.4385
11913SOL     OW37179   7.818   3.392   8.630 -0.1323  0.2231 -0.5454
11913SOL    HW137180   7.775   3.421   8.549 -2.1642  1.1441  0.7876
11913SOL    HW237181   7.831   3.472   8.681 -2.3441 -0.6378  1.5814
11914SOL     OW37182   7.186   0.020   3.085 -0.1137  0.2748  0.6558
11914SOL    HW137183   7.151   0.068   3.160 -0.9876  1.4894 -0.4788
11914SOL    HW237184   7.281   0.025   3.095 -0.1732  2.1507  0.6889
11915SOL     OW37185   1.011   2.139   4.814 -0.6413 -0.2926  0.1366
11915SOL    HW137186   0.967   2.165   4.732  0.1622  0.7501  0.0072
11915SOL    HW237187   1.026   2.222   4.859 -0.9926 -0.8541  1.3158
11916SOL     OW37188   1.997   1.617  11.278  0.0935  0.4034 -0.2109
11916SOL    HW137189   2.048   1.680  11.227 -2.1173  1.3822 -1.3299
11916SOL    HW237190   2.041   1.613  11.363  2.9961 -0.1083 -1.6068
11917SOL     OW37191   7.440   0.893   9.505  0.1171 -0.4358  0.7470
11917SOL    HW137192   7.361   0.853   9.468  0.4129 -0.1713 -0.2047
11917SOL    HW237193   7.409   0.949   9.575 -0.4901 -0.7416  0.7261
11918SOL     OW37194   0.780   5.127  12.189 -0.4921 -0.3660  0.5582
11918SOL    HW137195   0.812   5.179  12.262  2.8171 -1.4700  0.0805
11918SOL    HW237196   0.814   5.172  12.111  0.5980 -1.9929  0.0420
11919SOL     OW37197   1.351   4.825   8.049 -0.1256 -0.6586 -0.2067
11919SOL    HW137198   1.306   4.792   7.971 -0.8419 -0.2856  0.0408
11919SOL    HW237199   1.299   4.901   8.076 -0.5414 -1.4225  1.2659
11920SOL     OW37200   7.013   6.407   9.393  0.3056 -0.0844  0.6616
11920SOL    HW137201   7.081   6.363   9.444 -1.4195  0.0045  3.1703
11920SOL    HW237202   6.944   6.426   9.456 -1.4510  1.1231 -1.5077
11921SOL     OW37203   5.300   7.706   3.481 -0.0554  0.5221  0.0501
11921SOL    HW137204   5.327   7.652   3.407  0.7009 -0.7508  1.1967
11921SOL    HW237205   5.339   7.791   3.464  1.4195 -0.1910 -0.2743
11922SOL     OW37206   5.284   4.782  11.239  0.8252  0.1701 -0.8465
11922SOL    HW137207   5.355   4.748  11.184 -0.9090 -3.5146 -1.1491
11922SOL    HW237208   5.283   4.723  11.315 -0.4817  1.5424  0.2553
11923SOL     OW37209   1.876   0.468   3.132  0.0528  0.4671 -0.2914
11923SOL    HW137210   1.885   0.372   3.134  0.3186  0.4895 -0.2795
11923SOL    HW237211   1.966   0.499   3.121 -0.0403  0.7145 -0.3471
11924SOL     OW37212   6.738   6.625   8.816 -0.1633  0.0925 -0.1060
11924SOL    HW137213   6.743   6.682   8.892  0.5255  1.8519 -1.4026
11924SOL    HW237214   6.674   6.667   8.758 -0.9470 -1.3999 -0.3694
11925SOL     OW37215   4.311   0.370   4.419  0.1751  0.1416  0.1735
11925SOL    HW137216   4.399   0.356   4.454  0.2260 -0.7078 -0.2820
11925SOL    HW237217   4.257   0.307   4.467  0.1408 -0.6123 -0.8277
11926SOL     OW37218   3.072   2.059  10.790 -0.2344 -0.1373  0.7151
11926SOL    HW137219   3.082   2.128  10.856 -0.3819  1.8550 -1.2239
11926SOL    HW237220   2.997   2.087  10.737 -1.5323 -2.8020  0.9591
11927SOL     OW37221   6.902   7.583   4.785  0.3785  0.1688  0.4592
11927SOL    HW137222   6.904   7.546   4.696  0.4119 -0.2591  0.6374
11927SOL    HW237223   6.974   7.646   4.785 -0.8533  1.6603 -0.4487
11928SOL     OW37224   1.173   6.256   2.620  0.8030 -0.3329  0.3617
11928SOL    HW137225   1.146   6.174   2.663  0.6393  0.1499  1.1975
11928SOL    HW237226   1.248   6.231   2.567  1.7615 -0.7257  1.8395
11929SOL     OW37227   2.074   4.910   1.839 -0.2654 -0.1190 -0.4283
11929SOL    HW137228   2.161   4.879   1.867 -0.1358  0.6422  0.0235
11929SOL    HW237229   2.034   4.833   1.799 -0.0150 -0.9428  0.8387
11930SOL     OW37230   6.885   4.375   9.343  0.2808 -0.7646  0.1971
11930SOL    HW137231   6.930   4.348   9.423  0.2891 -0.6305  0.2374
11930SOL    HW237232   6.876   4.294   9.292 -1.0218 -1.1336  0.9699
11931SOL     OW37233   1.469   1.992   8.905 -0.1930 -0.1148 -0.3744
11931SOL    HW137234   1.393   1.984   8.963 -1.6324  2.7058 -1.6843
11931SOL    HW237235   1.490   2.085   8.906  3.4788 -0.8164  0.0820
11932SOL     OW37236   2.874   0.211   9.470  0.5827  0.2056 -0.6548
11932SOL    HW137237   2.927   0.276   9.425  1.9039  0.5176  1.2345
11932SOL    HW237238   2.920   0.128   9.456 -0.2134 -0.0778 -1.6947
11933SOL     OW37239   0.801   0.352   2.836 -0.2851 -0.2118 -0.5336
11933SOL    HW137240   0.737   0.353   2.765  0.4409  2.1389 -1.2270
11933SOL    HW237241   0.812   0.443   2.861 -0.1390 -0.9208  2.3130
11934SOL     OW37242   0.685   6.923   3.706  0.3947 -0.1650  0.0853
11934SOL    HW137243   0.694   7.008   3.748  0.6232 -0.1383 -0.0193
11934SOL    HW237244   0.646   6.867   3.773  0.7717 -0.1270  0.3371
11935SOL     OW37245   1.554   3.245   8.472 -0.4005  0.4672 -0.6547
11935SOL    HW137246   1.572   3.295   8.552  0.9771  1.1850 -1.3768
11935SOL    HW237247   1.493   3.300   8.423  0.3709  1.0287 -1.0144
11936SOL     OW37248   0.800   2.215   7.083 -0.1086  0.0309 -0.3704
11936SOL    HW137249   0.752   2.163   7.146 -0.0704 -0.0399 -0.3995
11936SOL    HW237250   0.823   2.153   7.013  0.3421 -0.0209 -0.1821
11937SOL     OW37251   6.987   0.134   2.402 -0.3181  0.6876 -0.0924
11937SOL    HW137252   6.987   0.128   2.307 -0.4908  2.1734 -0.2090
11937SOL    HW237253   6.982   0.043   2.432 -1.7818  0.2572 -1.5034
11938SOL     OW37254   5.121   3.139   5.489 -0.0247 -0.2504 -0.2145
11938SOL    HW137255   5.053   3.093   5.440 -0.8558 -0.6477  1.2218
11938SOL    HW237256   5.073   3.188   5.556  1.0232  0.6073 -0.0548
11939SOL     OW37257   3.608   4.957   9.759  0.1120  0.3680  0.0423
11939SOL    HW137258   3.569   4.938   9.673  0.1154  1.3024 -0.1798
11939SOL    HW237259   3.533   4.966   9.818  0.0070  1.4041 -0.2262
11940SOL     OW37260   0.915   4.114   5.809 -0.3971  0.0171  0.2910
11940SOL    HW137261   0.851   4.097   5.878  0.2473  1.2016  1.2093
11940SOL    HW237262   0.919   4.032   5.759 -0.8859 -0.8547  1.6446
11941SOL     OW37263   4.696   0.911   8.501 -0.2670  0.4919 -0.0577
11941SOL    HW137264   4.618   0.856   8.501  0.7915 -1.1165 -0.8504
11941SOL    HW237265   4.729   0.905   8.411  0.1784  2.0218 -0.0200
11942SOL     OW37266   2.255   4.478  10.941  0.1102 -0.0431  0.4928
11942SOL    HW137267   2.291   4.448  11.024  1.0737  0.8047  0.4114
11942SOL    HW237268   2.306   4.557  10.920  1.1422 -1.2206 -1.7782
11943SOL     OW37269   6.193   3.031   0.543  0.0989 -0.1696 -0.0635
11943SOL    HW137270   6.120   3.014   0.603 -0.1385  1.9940  0.3365
11943SOL    HW237271   6.229   2.944   0.524  0.3172 -0.9654  3.3582
11944SOL     OW37272   5.618   1.822   3.141  0.3332 -0.0253 -0.5916
11944SOL    HW137273   5.608   1.770   3.220  1.1111  1.0310  0.2408
11944SOL    HW237274   5.538   1.874   3.135  0.8016  0.8157  0.2289
11945SOL     OW37275   0.891   5.057   0.003 -0.2227  0.1532  0.4947
11945SOL    HW137276   0.982   5.046   0.031 -0.3782  0.9380  1.3179
11945SOL    HW237277   0.887   5.146  -0.033  0.0798 -0.9093 -2.5262
11946SOL     OW37278   0.096   4.555   8.071 -0.0180  0.1157  0.5674
11946SOL    HW137279   0.153   4.533   7.997 -0.4508  1.6007 -0.2478
11946SOL    HW237280   0.156   4.566   8.145  0.8917  2.1441 -0.3773
11947SOL     OW37281   6.210   3.006  10.688  0.1946 -0.5741 -0.1655
11947SOL    HW137282   6.209   2.936  10.623 -1.1998  0.5853 -1.4645
11947SOL    HW237283   6.157   3.076  10.649 -1.1992 -0.0335  2.4359
11948SOL     OW37284   0.018   3.146   4.880  0.1433 -0.7441  0.0237
11948SOL    HW137285   0.051   3.234   4.864 -0.9784 -0.5193 -1.3282
11948SOL    HW237286   0.006   3.141   4.975  0.5354  0.4389  0.1499
11949SOL     OW37287   6.144   6.588   7.289  0.2269  0.6752  0.3019
11949SOL    HW137288   6.179   6.501   7.309 -0.1452  0.3891 -0.2688
11949SOL    HW237289   6.049   6.575   7.283 -0.0025  1.4219  1.7415
11950SOL     OW37290   5.523   4.381   5.887  0.1970  0.3155  0.3035
11950SOL    HW137291   5.448   4.340   5.930 -0.1421 -0.5797 -1.0864
11950SOL    HW237292   5.596   4.363   5.946 -0.4755  0.2745  1.1575
11951SOL     OW37293   3.036   2.898   1.818 -0.0652 -0.0532  0.3702
11951SOL    HW137294   2.993   2.935   1.741 -0.0133 -0.3184  0.2150
11951SOL    HW237295   3.021   2.963   1.887  1.5875  1.1482 -0.3365
11952SOL     OW37296   0.318   7.461   3.465 -0.0640  0.3082 -0.2980
11952SOL    HW137297   0.335   7.411   3.545  1.8860 -0.1524 -0.9305
11952SOL    HW237298   0.224   7.457   3.454 -0.1033 -2.3172  0.2818
11953SOL     OW37299   7.252   5.438  11.496 -0.1896 -0.1518 -0.3132
11953SOL    HW137300   7.163   5.417  11.525  0.0001  0.2455  0.6291
11953SOL    HW237301   7.258   5.533  11.509  0.2950 -0.1414 -0.6094
11954SOL     OW37302   1.242   2.974   6.928  0.1439 -0.5797  0.0060
11954SOL    HW137303   1.216   2.937   7.013  1.6535 -0.4466  0.5462
11954SOL    HW237304   1.221   2.905   6.865 -1.2879 -0.5569  0.4276
11955SOL     OW37305   7.034   4.118   4.161 -0.4361  0.2660 -0.2208
11955SOL    HW137306   7.089   4.184   4.118 -1.9993  1.2542 -0.7814
11955SOL    HW237307   7.080   4.035   4.145  0.8095  1.0260 -0.7858
11956SOL     OW37308   1.495   6.685   7.852  0.0232  0.5921  0.3690
11956SOL    HW137309   1.537   6.702   7.937  0.9239  1.9823 -0.3189
11956SOL    HW237310   1.410   6.728   7.858  0.1717  0.8722  0.5026
11957SOL     OW37311   0.583   5.582   9.618 -0.2101 -0.1070  0.6806
11957SOL    HW137312   0.645   5.512   9.600  0.4679  0.5368  0.4299
11957SOL    HW237313   0.500   5.552   9.580  0.2899 -0.3877 -0.2185
11958SOL     OW37314   0.096   1.380   7.407 -0.2670 -0.2397 -0.1519
11958SOL    HW137315   0.009   1.378   7.447 -0.5422 -0.2383 -0.7355
11958SOL    HW237316   0.091   1.452   7.344  0.1803 -0.1930 -0.1336
11959SOL     OW37317   2.446   3.595   4.470  0.3220  0.1382  0.5067
11959SOL    HW137318   2.356   3.574   4.494  0.8085 -0.4913  1.8769
11959SOL    HW237319   2.476   3.656   4.538  0.6054  1.2106 -0.5356
11960SOL     OW37320   7.004   7.301   1.249 -0.6163 -0.0736 -0.3230
11960SOL    HW137321   7.077   7.361   1.231  0.1531 -1.1877 -1.0118
11960SOL    HW237322   7.002   7.294   1.344  0.8452 -0.8170 -0.3321
11961SOL     OW37323   7.139   7.967   7.859  0.6934  0.2668  0.6352
11961SOL    HW137324   7.113   8.012   7.939  0.0836  0.2491  0.4522
11961SOL    HW237325   7.214   8.017   7.826 -0.2997  1.4832  0.1425
11962SOL     OW37326   3.951   0.720   1.832 -0.0011 -0.3672 -0.3785
11962SOL    HW137327   3.933   0.784   1.763 -0.5648  0.4633  0.5257
11962SOL    HW237328   3.988   0.771   1.904  3.1578 -1.5622 -0.9814
11963SOL     OW37329   2.424   1.843  11.965  0.0387  0.3071 -0.4250
11963SOL    HW137330   2.393   1.882  12.047  0.5904  0.2985 -0.2127
11963SOL    HW237331   2.432   1.749  11.985 -2.1258 -0.1077 -1.1790
11964SOL     OW37332   6.072   4.057   9.719 -0.4898  0.3802  0.1637
11964SOL    HW137333   6.075   4.150   9.698  0.4376  0.5797  1.0983
11964SOL    HW237334   6.005   4.050   9.787  0.5994  0.6519  1.3082
11965SOL     OW37335   0.503   3.143   0.268 -0.0580  0.0462 -0.4979
11965SOL    HW137336   0.523   3.225   0.314  0.0972  0.5282 -1.3954
11965SOL    HW237337   0.412   3.153   0.239  0.2299  0.3026 -1.3739
11966SOL     OW37338   4.154   0.112   7.096  0.5841 -0.1668  0.0310
11966SOL    HW137339   4.067   0.148   7.078  0.4816 -1.1192 -1.5743
11966SOL    HW237340   4.157   0.102   7.191 -0.8120  0.4880  0.1643
11967SOL     OW37341   7.130   0.423   3.762  0.0683 -0.0000 -0.4316
11967SOL    HW137342   7.073   0.492   3.797 -0.0738  0.8049 -2.1531
11967SOL    HW237343   7.177   0.390   3.838 -2.3935 -0.4326  1.0185
11968SOL     OW37344   0.448   7.519   0.961 -0.4017  0.0765  0.1741
11968SOL    HW137345   0.388   7.592   0.973  0.7770  1.0330  0.4210
11968SOL    HW237346   0.415   7.474   0.883 -2.0015 -0.0296  0.8697
11969SOL     OW37347   3.409   2.975   2.515 -0.3078 -0.1401 -0.6944
11969SOL    HW137348   3.350   2.983   2.589 -0.7060  0.3619 -1.0588
11969SOL    HW237349   3.459   2.896   2.533 -0.1564  0.1717  0.2703
11970SOL     OW37350   5.484   6.305   5.162 -0.1869  0.1915 -0.1854
11970SOL    HW137351   5.495   6.211   5.151  0.0694  0.4103 -2.2494
11970SOL    HW237352   5.543   6.344   5.097 -0.8636  1.7453  0.0848
11971SOL     OW37353   1.446   1.678   9.099 -0.6831 -0.1484 -0.1105
11971SOL    HW137354   1.363   1.721   9.078  0.1782  0.4592 -2.5254
11971SOL    HW237355   1.492   1.742   9.154 -1.6959 -0.4374  1.1440
11972SOL     OW37356   3.226   4.860   9.427  0.0976  0.3293  0.8562
11972SOL    HW137357   3.167   4.823   9.361  1.0734 -0.0634  0.1971
11972SOL    HW237358   3.203   4.814   9.508  0.8376 -1.2527  0.1908
11973SOL     OW37359   0.563   4.618   1.559 -0.2468  0.3692 -0.1262
11973SOL    HW137360   0.486   4.658   1.519 -1.1207  0.4097  1.5061
11973SOL    HW237361   0.605   4.570   1.488 -3.0535 -1.6137 -0.6540
11974SOL     OW37362   4.274   4.311   1.639  0.3536 -0.0553 -0.1504
11974SOL    HW137363   4.338   4.369   1.597  1.4447 -1.7574 -0.9130
11974SOL    HW237364   4.189   4.344   1.608  0.9663  0.7674 -1.0312
11975SOL     OW37365   6.874   0.423   4.340  0.3940  0.2593 -0.1478
11975SOL    HW137366   6.858   0.355   4.406 -0.6669 -0.4958 -1.1573
11975SOL    HW237367   6.792   0.471   4.334  0.2972 -0.0313 -1.3057
11976SOL     OW37368   7.432   5.404   4.363 -0.4448  0.0669  0.3703
11976SOL    HW137369   7.357   5.345   4.357  0.1581 -0.6846  0.2373
11976SOL    HW237370   7.503   5.359   4.319 -0.3737  1.5609 -1.1460
11977SOL     OW37371   1.736   2.624   1.002  0.1966  0.0205 -0.0520
11977SOL    HW137372   1.695   2.540   0.982 -0.1393 -0.0720  1.0147
11977SOL    HW237373   1.805   2.603   1.065  1.5320  0.2520 -1.3721
11978SOL     OW37374   1.233   6.944   9.567  0.3438 -0.0729  0.4019
11978SOL    HW137375   1.247   6.961   9.660 -0.1426  2.8741  0.0269
11978SOL    HW237376   1.318   6.960   9.526  0.2654 -0.1999  0.1840
11979SOL     OW37377   7.885   7.817   9.653 -0.3154 -0.5424 -0.4064
11979SOL    HW137378   7.933   7.898   9.673 -1.6215  0.1852 -0.0959
11979SOL    HW237379   7.885   7.768   9.735 -0.7576 -0.1826 -0.1852
11980SOL     OW37380   5.447   2.437   6.065 -0.2483  0.3255  0.5352
11980SOL    HW137381   5.426   2.350   6.031 -0.5779  0.5056  0.2755
11980SOL    HW237382   5.418   2.497   5.997  0.2428  0.6254  0.5902
11981SOL     OW37383   1.119   1.663   0.289 -0.4994  0.1132  0.3056
11981SOL    HW137384   1.059   1.639   0.219 -0.8928  0.2201  0.6058
11981SOL    HW237385   1.206   1.645   0.253 -0.7612 -1.9304  0.5405
11982SOL     OW37386   3.565   6.765   4.477 -0.1092 -0.1805  0.4128
11982SOL    HW137387   3.624   6.829   4.516 -0.8834 -0.0121  1.3348
11982SOL    HW237388   3.621   6.714   4.418  1.3068 -0.9819  2.3315
11983SOL     OW37389   7.309   0.961   0.360 -0.3798  0.2669 -0.4346
11983SOL    HW137390   7.281   0.944   0.271 -0.6989 -1.9898  0.0494
11983SOL    HW237391   7.361   0.885   0.384 -1.4221  0.1720  1.7571
11984SOL     OW37392   1.735   6.598   8.246 -0.7479 -0.0044 -0.0618
11984SOL    HW137393   1.723   6.683   8.204 -0.6422 -0.2457 -0.5858
11984SOL    HW237394   1.666   6.543   8.209  1.2645 -1.1389 -2.3959
11985SOL     OW37395   6.607   6.690   9.508  0.2247 -0.4109  0.0483
11985SOL    HW137396   6.632   6.723   9.594  2.2653 -3.3333  0.7540
11985SOL    HW237397   6.536   6.747   9.479  1.0217  2.0960  2.6147
11986SOL     OW37398   5.639   4.502   0.022 -0.8056  0.3998 -0.1163
11986SOL    HW137399   5.685   4.568   0.075  0.8708 -1.2237  0.6151
11986SOL    HW237400   5.578   4.461   0.083 -1.1158  0.6046 -0.2903
11987SOL     OW37401   1.927   7.889   0.158 -0.3471 -0.4747  0.3407
11987SOL    HW137402   1.962   7.817   0.211  2.9267  0.7175  0.0667
11987SOL    HW237403   1.935   7.966   0.215 -1.8427  0.0259 -0.0840
11988SOL     OW37404   3.987   4.005  11.746  0.4429 -0.2978  0.2810
11988SOL    HW137405   4.073   4.020  11.706  0.4495  0.4102  0.5422
11988SOL    HW237406   4.004   3.940  11.815  0.2362 -2.3810 -1.5228
11989SOL     OW37407   4.715   1.284   8.322 -0.0595 -0.3878 -0.3899
11989SOL    HW137408   4.737   1.312   8.411  0.3753  1.2840 -0.9875
11989SOL    HW237409   4.620   1.289   8.318 -0.1381 -1.3142  0.2390
11990SOL     OW37410   5.386   5.088   5.354 -0.7802  0.4102  0.3115
11990SOL    HW137411   5.373   5.158   5.417 -0.7098 -0.3113  1.1352
11990SOL    HW237412   5.371   5.007   5.403  2.5629 -0.3383  0.3423
11991SOL     OW37413   6.893   5.493  11.884  0.0889 -0.0131  0.0089
11991SOL    HW137414   6.826   5.429  11.909  0.4524 -0.7639 -0.8993
11991SOL    HW237415   6.964   5.479  11.947 -0.1375  0.0112  0.2723
11992SOL     OW37416   2.258   1.364   2.497 -0.1503 -0.1124  0.3992
11992SOL    HW137417   2.324   1.372   2.566  0.7058  1.5450 -0.5739
11992SOL    HW237418   2.201   1.440   2.510 -0.4625 -0.2349 -0.2430
11993SOL     OW37419   3.585   0.708  12.009  0.0900 -0.3749 -0.2121
11993SOL    HW137420   3.574   0.657  11.929 -0.1291 -0.1000 -0.3589
11993SOL    HW237421   3.646   0.777  11.985 -0.6894  0.2590 -0.4029
11994SOL     OW37422   4.726   0.006  10.990  0.5314  0.6792  0.2767
11994SOL    HW137423   4.709  -0.003  10.896  0.1656 -0.9119  0.4784
11994SOL    HW237424   4.821   0.015  10.996  0.7057 -0.7305 -0.1538
11995SOL     OW37425   6.817   0.101   0.145  0.0521  0.2764  0.4886
11995SOL    HW137426   6.909   0.111   0.122  0.9485  0.3786  3.6502
11995SOL    HW237427   6.799   0.173   0.205 -1.9018 -0.1432  0.4833
11996SOL     OW37428   3.412   7.774  12.203 -1.0087 -0.1311 -0.0173
11996SOL    HW137429   3.397   7.766  12.109 -1.2832 -1.5234  0.1173
11996SOL    HW237430   3.478   7.708  12.223 -1.9485 -0.8117  0.9643
11997SOL     OW37431   3.131   7.464  11.137 -0.5263  0.8186 -0.4835
11997SOL    HW137432   3.148   7.376  11.105  1.5237  0.4262  1.4512
11997SOL    HW237433   3.111   7.515  11.059 -1.8639 -1.3307 -1.6429
11998SOL     OW37434   5.710   1.779   0.174 -0.2921  0.3385  0.9374
11998SOL    HW137435   5.770   1.853   0.167 -0.5450  0.3874 -1.2682
11998SOL    HW237436   5.623   1.817   0.159 -0.3733 -0.4437 -0.7510
11999SOL     OW37437   0.074   4.584  10.859  0.1270 -0.1047  0.1484
11999SOL    HW137438   0.067   4.542  10.774  0.6035 -0.1251  0.1128
11999SOL    HW237439   0.144   4.649  10.848  0.3423 -0.2562  0.5817
12000SOL     OW37440   3.130   1.798   5.071 -0.4534 -0.0781  0.5901
12000SOL    HW137441   3.052   1.758   5.033 -1.1338  0.5194  1.3074
12000SOL    HW237442   3.146   1.876   5.016 -0.3651 -0.1973  0.4465
12001SOL     OW37443   2.548   3.651   0.601 -0.0102  0.2413 -0.6496
12001SOL    HW137444   2.549   3.677   0.693 -2.8225 -0.9988 -0.1299
12001SOL    HW237445   2.588   3.564   0.600  0.5076  0.4770 -0.7081
12002SOL     OW37446   4.192   5.898   0.605  0.3005 -0.5968 -0.1199
12002SOL    HW137447   4.110   5.910   0.653 -0.1445 -0.5414 -0.8959
12002SOL    HW237448   4.168   5.906   0.513  1.3175  0.2418 -0.3283
12003SOL     OW37449   3.539   0.907   6.884 -0.1758 -0.2188 -0.6330
12003SOL    HW137450   3.454   0.927   6.844 -0.5388  0.5835  0.4868
12003SOL    HW237451   3.532   0.942   6.973  0.8062 -1.4435 -0.0457
12004SOL     OW37452   5.755   2.492   4.289 -0.3617 -0.1965  0.0436
12004SOL    HW137453   5.731   2.576   4.249  1.2937 -0.1267 -0.8684
12004SOL    HW237454   5.693   2.482   4.362 -1.8211  0.8867 -0.9803
12005SOL     OW37455   4.880   5.325   8.792 -0.3131  0.4407  0.5481
12005SOL    HW137456   4.900   5.279   8.874 -0.8697  0.1364  0.5170
12005SOL    HW237457   4.872   5.255   8.727 -0.9702  0.5955  0.4578
12006SOL     OW37458   1.786   0.976   8.891 -0.0547 -0.4598  0.3912
12006SOL    HW137459   1.774   1.070   8.902  0.7945 -0.4959  1.9205
12006SOL    HW237460   1.872   0.967   8.850  0.1748 -0.5755  0.8867
12007SOL     OW37461   1.460   7.526   2.340 -0.2092 -0.5421 -0.3269
12007SOL    HW137462   1.518   7.598   2.365 -0.1562 -0.8200  0.3603
12007SOL    HW237463   1.497   7.449   2.382 -1.9929 -0.4604  1.5896
12008SOL     OW37464   1.183   2.042   4.478  0.1811  0.2138  0.1419
12008SOL    HW137465   1.101   2.071   4.438  0.7635  1.5550 -0.1227
12008SOL    HW237466   1.206   1.962   4.431  2.2313  3.0602 -4.3074
12009SOL     OW37467   1.825   0.322   5.853  0.0394 -0.0861 -0.0769
12009SOL    HW137468   1.797   0.233   5.876  3.6417 -0.9605  1.4859
12009SOL    HW237469   1.771   0.379   5.909  1.0231 -1.6264  2.6057
12010SOL     OW37470   7.030   7.799   6.847  0.6484 -0.1532 -0.4082
12010SOL    HW137471   7.033   7.756   6.933  1.7231  1.7228  0.5554
12010SOL    HW237472   7.111   7.850   6.843  0.8120 -0.4899 -2.7421
12011SOL     OW37473   4.070   1.186   2.888  0.0133 -0.6702  0.2845
12011SOL    HW137474   4.122   1.213   2.963  0.6409 -1.6658  0.2296
12011SOL    HW237475   3.980   1.192   2.918  0.1211  1.2496  0.3294
12012SOL     OW37476   0.956   1.149   7.880  1.0990 -0.3670  0.5208
12012SOL    HW137477   0.873   1.139   7.927  0.5580  0.5635 -0.1899
12012SOL    HW237478   0.949   1.090   7.806  0.0680  1.3127 -0.8113
12013SOL     OW37479   6.851   5.177   0.078  0.3550  0.4281  0.3839
12013SOL    HW137480   6.786   5.106   0.077  0.1423  0.5945 -1.8028
12013SOL    HW237481   6.847   5.211   0.167 -1.5120 -0.5303  0.7253
12014SOL     OW37482   3.114   3.416  11.545 -0.2675  0.0379  0.4058
12014SOL    HW137483   3.030   3.421  11.500  0.3372 -1.6399 -1.0539
12014SOL    HW237484   3.162   3.494  11.516  0.0764 -0.9617 -1.9122
12015SOL     OW37485   5.197   1.819   0.169 -0.0667  0.0744  0.4269
12015SOL    HW137486   5.253   1.782   0.101 -1.0761 -0.6720 -0.0259
12015SOL    HW237487   5.201   1.913   0.154  2.2916  0.1970  1.4001
12016SOL     OW37488   0.059   7.984   7.195 -0.1563  0.2731  0.8945
12016SOL    HW137489   0.109   8.022   7.267 -0.0494  1.0180  0.4367
12016SOL    HW237490   0.066   7.890   7.208  1.6307  0.3373  0.6642
12017SOL     OW37491   0.681   1.553   8.840 -0.1487  0.6949 -0.3189
12017SOL    HW137492   0.671   1.457   8.843  1.3866  0.5061  1.3996
12017SOL    HW237493   0.630   1.584   8.915 -1.0432  1.2926 -1.1627
12018SOL     OW37494   6.244   1.460  11.542  0.3402  0.5527  0.1684
12018SOL    HW137495   6.332   1.497  11.535  1.0480 -1.2643 -1.6824
12018SOL    HW237496   6.196   1.499  11.470  0.3179 -0.0913 -0.1758
12019SOL     OW37497   1.570   1.230   5.247  0.1853  0.0595 -0.5700
12019SOL    HW137498   1.649   1.177   5.260 -1.2022 -2.2254 -0.8351
12019SOL    HW237499   1.517   1.179   5.185 -1.9956  0.9260  0.4579
12020SOL     OW37500   2.978   2.264   9.338 -0.1841  0.3295 -0.0383
12020SOL    HW137501   3.002   2.172   9.342 -1.1307 -0.0117 -1.4666
12020SOL    HW237502   3.022   2.297   9.259  0.0940  1.1028  0.4213
12021SOL     OW37503   4.248   5.803  11.709 -0.0931  0.0382  0.4726
12021SOL    HW137504   4.173   5.778  11.762 -0.9426 -1.0527 -1.1649
12021SOL    HW237505   4.279   5.721  11.671  0.0583  0.8523 -1.2349
12022SOL     OW37506   1.219   6.332   4.051 -0.7341  0.4106 -0.2947
12022SOL    HW137507   1.202   6.251   4.002 -1.5105  0.2052  0.2982
12022SOL    HW237508   1.303   6.362   4.018  0.5562 -1.6836  0.8396
12023SOL     OW37509   6.148   4.070  10.982 -0.1641 -0.6878 -0.0817
12023SOL    HW137510   6.185   4.067  10.893  1.1149  0.0109  0.3936
12023SOL    HW237511   6.207   4.015  11.034  0.3198  0.5457  0.7224
12024SOL     OW37512   6.775   5.231   2.561 -0.1680 -0.2490 -0.1774
12024SOL    HW137513   6.829   5.269   2.630  0.2256 -1.1101  0.0040
12024SOL    HW237514   6.760   5.141   2.589 -2.7298  0.2916  0.3794
12025SOL     OW37515   6.904   5.562   6.369 -0.3763  0.4715 -0.0480
12025SOL    HW137516   6.869   5.589   6.284 -0.3360 -0.4941 -0.3817
12025SOL    HW237517   6.838   5.590   6.432 -1.1555 -0.1842 -0.5517
12026SOL     OW37518   4.932   0.599   4.780  0.4068  0.0664  0.4430
12026SOL    HW137519   4.915   0.676   4.835  1.5638  0.2341  0.5767
12026SOL    HW237520   4.886   0.618   4.698 -0.7027  0.1518  1.0589
12027SOL     OW37521   5.884   7.653   1.600  0.0810  0.2767 -0.1269
12027SOL    HW137522   5.932   7.684   1.523  1.5073 -0.8476  0.2718
12027SOL    HW237523   5.952   7.627   1.662 -1.0366 -0.9036  0.6583
12028SOL     OW37524   5.903   3.157   3.025  0.4210 -0.7355  0.0032
12028SOL    HW137525   5.972   3.159   2.959  1.2757  1.7356  0.8247
12028SOL    HW237526   5.823   3.182   2.979  1.0435  1.1453 -0.1342
12029SOL     OW37527   2.363   1.529   3.271 -0.1146 -0.1869  0.4750
12029SOL    HW137528   2.342   1.458   3.332  0.5823 -1.3386 -0.5614
12029SOL    HW237529   2.330   1.499   3.186 -0.6293  1.1590  0.1687
12030SOL     OW37530   6.882   2.016  12.352 -0.7610  0.7687 -0.3363
12030SOL    HW137531   6.799   1.969  12.346 -0.6462  0.2526  1.5386
12030SOL    HW237532   6.949   1.947  12.356 -0.3362  1.1555 -0.6778
12031SOL     OW37533   5.548   4.743  12.296 -0.5055 -0.0773 -0.5646
12031SOL    HW137534   5.543   4.838  12.298  0.6079 -0.0202  1.0563
12031SOL    HW237535   5.502   4.714  12.374 -0.5764 -0.8578 -0.8852
12032SOL     OW37536   4.185   3.656   2.585 -0.0252  0.0428  0.0568
12032SOL    HW137537   4.243   3.679   2.658 -0.9558 -0.4995  1.0071
12032SOL    HW237538   4.192   3.560   2.579  0.7556  0.1573 -1.2040
12033SOL     OW37539   1.152   6.574   7.636  0.4813 -0.0270  0.0024
12033SOL    HW137540   1.177   6.495   7.588 -2.2866 -1.3894  0.6337
12033SOL    HW237541   1.219   6.584   7.703  2.2157 -0.3687 -1.5791
12034SOL     OW37542   3.308   1.528   0.927  0.7316  0.3241 -0.9769
12034SOL    HW137543   3.291   1.487   0.842  0.6485  1.1525 -1.3711
12034SOL    HW237544   3.343   1.615   0.905 -1.9462  1.6985 -0.2212
12035SOL     OW37545   6.570   6.640   8.352 -0.0002 -0.2987  0.6420
12035SOL    HW137546   6.664   6.620   8.356  0.1630  0.1939 -0.4996
12035SOL    HW237547   6.541   6.605   8.268 -1.0299 -1.1417  1.3172
12036SOL     OW37548   7.284   3.813   7.979 -0.8955  0.3225 -0.2400
12036SOL    HW137549   7.338   3.885   8.013  0.8766 -1.0862  0.0799
12036SOL    HW237550   7.301   3.814   7.885 -0.1057 -0.2543 -0.1119
12037SOL     OW37551   2.804   5.997   1.744  0.0634  0.4510 -0.3599
12037SOL    HW137552   2.858   6.026   1.817 -0.2557  1.2189 -0.4249
12037SOL    HW237553   2.786   6.076   1.694  0.0662 -0.0247 -1.1333
12038SOL     OW37554   7.469   6.848   5.841  0.0692 -0.5481  0.0474
12038SOL    HW137555   7.541   6.840   5.779 -0.8856 -2.9287 -0.8659
12038SOL    HW237556   7.511   6.858   5.926  1.4175  0.3555 -0.6934
12039SOL     OW37557   5.752   7.810   3.997  0.1428 -0.2331 -0.1257
12039SOL    HW137558   5.775   7.788   3.907  0.2651  0.9139 -0.3837
12039SOL    HW237559   5.752   7.905   4.000  0.0372 -0.2501  1.0660
12040SOL     OW37560   4.417   7.972   0.432 -0.4792  0.4999 -0.7678
12040SOL    HW137561   4.489   8.035   0.431  1.7687 -1.8374  0.3882
12040SOL    HW237562   4.453   7.893   0.390 -1.8889 -1.1708  0.9617
12041SOL     OW37563   6.726   0.388   2.778 -0.0855  0.0915 -0.1213
12041SOL    HW137564   6.816   0.393   2.811  0.2277 -0.1916 -0.9133
12041SOL    HW237565   6.704   0.478   2.753  0.0356  0.1309 -0.0868
12042SOL     OW37566   4.603   6.806   5.113  0.2349  0.3396  0.7032
12042SOL    HW137567   4.608   6.878   5.050 -0.6359  0.0520  0.2818
12042SOL    HW237568   4.529   6.829   5.170  0.6513  0.3150  1.2622
12043SOL     OW37569   3.052   0.441   8.146 -0.6274 -0.6273  0.2097
12043SOL    HW137570   3.037   0.387   8.069 -1.8401  0.3530 -0.2786
12043SOL    HW237571   3.120   0.503   8.119 -0.5402 -0.7397  0.1706
12044SOL     OW37572   1.721   2.545   3.010  0.2073 -0.2324  0.7052
12044SOL    HW137573   1.705   2.462   3.054  0.8510 -0.3164  0.7943
12044SOL    HW237574   1.729   2.609   3.081  2.7042 -0.6081  0.8581
12045SOL     OW37575   4.598   7.073  12.217  0.3331  0.0041  0.7761
12045SOL    HW137576   4.559   7.144  12.167 -1.9076 -0.9286  1.1141
12045SOL    HW237577   4.568   7.087  12.307  1.1710 -0.4870  1.1462
12046SOL     OW37578   2.030   2.730  10.873 -0.1846  0.1261 -0.8223
12046SOL    HW137579   1.998   2.720  10.783  0.0199 -0.4021 -0.8435
12046SOL    HW237580   2.028   2.641  10.908 -1.8437  0.5269  0.2420
12047SOL     OW37581   6.038   6.554   4.064  0.2832 -0.2918 -0.0796
12047SOL    HW137582   5.947   6.529   4.047  0.5216 -0.8307 -0.5870
12047SOL    HW237583   6.089   6.510   3.996  1.1890 -1.8826  1.5432
12048SOL     OW37584   5.675   3.388  11.003  0.5232 -0.2613  0.3930
12048SOL    HW137585   5.735   3.314  11.009  1.0820  0.0491 -0.9660
12048SOL    HW237586   5.730   3.465  11.020  0.3002 -0.0368  0.0992
12049SOL     OW37587   5.157   4.977   3.848 -0.4151  0.1475  0.3805
12049SOL    HW137588   5.216   4.922   3.899 -1.7412 -1.5346  0.2274
12049SOL    HW237589   5.184   4.963   3.757 -0.5885 -0.0708  0.3604
12050SOL     OW37590   1.308   4.681   7.267 -0.5547 -0.4965 -0.1284
12050SOL    HW137591   1.315   4.630   7.348 -0.4107  0.9911  0.8372
12050SOL    HW237592   1.286   4.616   7.200 -2.4508 -1.5419  1.3919
12051SOL     OW37593   2.354   0.080   5.972 -0.8185  0.1950  0.3179
12051SOL    HW137594   2.394   0.073   5.885  0.3602 -1.0265  0.9368
12051SOL    HW237595   2.303   0.162   5.968  0.9538  1.3196 -0.8042
12052SOL     OW37596   1.871   4.381   9.628 -0.2298  0.0109  0.2998
12052SOL    HW137597   1.960   4.416   9.622 -0.3354  0.1176 -0.8532
12052SOL    HW237598   1.820   4.451   9.668 -0.4764  1.3130 -2.1142
12053SOL     OW37599   5.432   0.531   4.540  0.3073  0.0829  0.1510
12053SOL    HW137600   5.449   0.620   4.511 -2.0125  0.9874  1.2805
12053SOL    HW237601   5.398   0.486   4.463  2.0305 -0.0318 -0.5714
12054SOL     OW37602   1.370   1.046   3.547 -0.2047 -0.5117 -0.1403
12054SOL    HW137603   1.334   1.135   3.549  1.7181  0.3108  0.4177
12054SOL    HW237604   1.389   1.030   3.455 -0.5636 -0.3476 -0.2456
12055SOL     OW37605   1.120   5.861   4.967  0.5042  0.5074  0.0981
12055SOL    HW137606   1.109   5.942   4.918  2.8709  0.6143 -0.3702
12055SOL    HW237607   1.035   5.846   5.008  0.3193  3.8410  1.1773
12056SOL     OW37608   1.672   3.991   5.407  0.4294  0.2644 -0.0037
12056SOL    HW137609   1.627   4.058   5.357 -0.3481 -0.5562 -0.4234
12056SOL    HW237610   1.701   4.035   5.487 -0.3844  1.0031 -0.1114
12057SOL     OW37611   1.296   3.185   1.502  0.1653 -0.2678 -0.4640
12057SOL    HW137612   1.282   3.106   1.449 -1.8239 -0.3302  0.0828
12057SOL    HW237613   1.236   3.174   1.576  1.3292  0.8297  0.6833
12058SOL     OW37614   2.916   4.634   2.210  0.1661  0.5681  0.0383
12058SOL    HW137615   2.971   4.686   2.268  1.0453  0.9066 -1.0663
12058SOL    HW237616   2.885   4.697   2.145  1.2897 -0.2697 -1.3526
12059SOL     OW37617   7.082   4.897  10.727  0.1900  0.5130  0.0208
12059SOL    HW137618   7.090   4.955  10.651 -0.8078  2.0217  1.0118
12059SOL    HW237619   7.135   4.820  10.704  1.2840  1.6545 -1.4789
12060SOL     OW37620   3.509   5.115   3.095 -0.2526 -0.4064 -0.0929
12060SOL    HW137621   3.580   5.055   3.074  1.3744  0.7732  1.7344
12060SOL    HW237622   3.553   5.197   3.120 -2.2870  0.6272  0.3180
12061SOL     OW37623   6.123   7.086   8.312 -0.2696 -0.4113 -0.2204
12061SOL    HW137624   6.169   7.014   8.355 -1.5680  0.0173  2.0499
12061SOL    HW237625   6.111   7.152   8.381 -0.7760  1.1944 -1.7477
12062SOL     OW37626   0.148   3.025   5.331 -0.0198  0.4924  0.4606
12062SOL    HW137627   0.128   2.983   5.415 -0.6598 -0.1936 -0.0218
12062SOL    HW237628   0.074   3.001   5.274  1.5071 -1.0476 -1.0099
12063SOL     OW37629   7.333   2.016   8.934  0.5861 -0.3748 -0.0130
12063SOL    HW137630   7.412   1.963   8.928  0.9431  0.1645 -0.1502
12063SOL    HW237631   7.352   2.094   8.881  0.0719 -0.1171  0.1749
12064SOL     OW37632   5.362   3.542  10.624 -0.0327  0.0567  0.0180
12064SOL    HW137633   5.271   3.548  10.594 -0.2602  0.7048  0.7832
12064SOL    HW237634   5.383   3.449  10.620 -0.2258  0.0614 -1.5848
12065SOL     OW37635   7.241   3.219   8.360 -0.4723  0.4234  0.3213
12065SOL    HW137636   7.221   3.146   8.418 -2.6252  1.6305  1.1938
12065SOL    HW237637   7.283   3.284   8.416  0.9478  0.1090 -0.3350
12066SOL     OW37638   2.978   4.552   0.662 -0.1417 -0.5873  0.4769
12066SOL    HW137639   3.058   4.604   0.669 -0.0098 -0.8735  1.2976
12066SOL    HW237640   2.914   4.600   0.714 -1.0009  0.4980 -1.4812
12067SOL     OW37641   1.508   5.474   3.849  0.1367  0.0949  0.1399
12067SOL    HW137642   1.534   5.560   3.882  1.3254 -0.2473  0.1394
12067SOL    HW237643   1.419   5.461   3.883 -0.5195  1.7839 -0.7881
12068SOL     OW37644   4.044   1.487   0.648 -0.5034 -0.1210  0.5146
12068SOL    HW137645   4.127   1.448   0.621 -0.5390 -0.3393  0.7167
12068SOL    HW237646   4.044   1.574   0.609 -0.1262 -0.0758  0.6123
12069SOL     OW37647   5.325   0.293  10.220 -1.0991 -0.4646  0.1614
12069SOL    HW137648   5.308   0.298  10.126  2.3760 -1.0387 -0.6325
12069SOL    HW237649   5.256   0.236  10.254 -3.1604  0.7142 -1.7519
12070SOL     OW37650   3.097   2.203   1.559  0.4532  0.0464 -0.8510
12070SOL    HW137651   3.188   2.173   1.567 -0.0028 -1.5042 -1.2313
12070SOL    HW237652   3.095   2.250   1.475  0.9901  0.4854 -0.6307
12071SOL     OW37653   0.504   5.991  10.567 -0.2826  0.5244  0.0634
12071SOL    HW137654   0.578   5.939  10.539  1.2309  2.3173  0.5185
12071SOL    HW237655   0.480   6.042  10.489 -0.3726  0.6682  0.1826
12072SOL     OW37656   6.890   5.238   7.192  0.1790 -0.1799  0.2274
12072SOL    HW137657   6.952   5.186   7.242  1.4228 -0.0927 -1.1301
12072SOL    HW237658   6.826   5.175   7.160  0.5185 -0.5632  0.2877
12073SOL     OW37659   4.669   3.901   1.879  0.3963 -0.0812  0.0137
12073SOL    HW137660   4.737   3.835   1.891 -0.9933 -1.2608  1.9053
12073SOL    HW237661   4.643   3.892   1.787  0.8685 -1.5254 -0.0009
12074SOL     OW37662   1.472   5.666   7.120  0.0801  0.3580  0.0275
12074SOL    HW137663   1.522   5.748   7.115 -0.3005  0.6314  0.5967
12074SOL    HW237664   1.510   5.620   7.195  1.0204 -0.4900 -0.9414
12075SOL     OW37665   6.112   1.845   9.306  0.2752  0.0249 -0.4255
12075SOL    HW137666   6.080   1.882   9.224 -0.0157  0.5924 -0.0628
12075SOL    HW237667   6.034   1.840   9.362  0.6516  0.6099  0.1662
12076SOL     OW37668   5.005   0.049   7.370 -0.1719 -0.0655 -0.2015
12076SOL    HW137669   5.076   0.102   7.335  1.0689 -1.6969 -0.2820
12076SOL    HW237670   4.963   0.105   7.435 -0.8356  2.0623 -2.3376
12077SOL     OW37671   0.104   7.338   6.232  0.3930 -0.0373  0.3419
12077SOL    HW137672   0.149   7.272   6.285  0.9600  0.0172 -0.0552
12077SOL    HW237673   0.031   7.367   6.286 -0.0952 -1.2662  0.3767
12078SOL     OW37674   0.476   7.016   6.789  0.2774  0.2698  0.0549
12078SOL    HW137675   0.559   7.056   6.814  0.5727 -0.0099 -0.4428
12078SOL    HW237676   0.414   7.046   6.854  1.1211 -0.8260  1.4119
12079SOL     OW37677   6.473   4.051   2.022  0.2142  0.3678  0.2427
12079SOL    HW137678   6.388   4.030   2.061  0.0392  1.5104  0.5216
12079SOL    HW237679   6.502   3.970   1.982 -1.4347  0.1962 -0.6693
12080SOL     OW37680   7.558   0.419   3.630 -0.4618  0.9162 -0.2515
12080SOL    HW137681   7.571   0.461   3.715 -0.9486 -0.3886  0.4994
12080SOL    HW237682   7.643   0.383   3.608 -0.5082  0.6100  0.0559
12081SOL     OW37683   0.911   4.963   4.897  0.0207  0.3278 -0.2468
12081SOL    HW137684   0.841   4.910   4.935 -1.3073  1.7077 -0.6382
12081SOL    HW237685   0.948   5.010   4.971  0.2280 -0.0602 -0.1018
12082SOL     OW37686   6.139   2.879   2.946  0.1920  0.1887  0.4509
12082SOL    HW137687   6.153   2.957   3.000 -3.1608  0.9317  0.4510
12082SOL    HW237688   6.103   2.814   3.007 -1.2450  0.1905 -0.3494
12083SOL     OW37689   7.495   5.846   9.805 -0.0120  0.1899  0.3805
12083SOL    HW137690   7.530   5.887   9.884  2.1419  0.9614 -0.8879
12083SOL    HW237691   7.504   5.752   9.822  2.5527  0.3367  0.2599
12084SOL     OW37692   0.115   5.157   1.369 -0.3014 -0.2066  0.3506
12084SOL    HW137693   0.144   5.069   1.345 -1.2771 -0.4439 -0.0005
12084SOL    HW237694   0.054   5.182   1.299 -2.0203 -0.2766  1.7481
12085SOL     OW37695   5.942   4.643   8.417  0.2997  0.7895 -0.3213
12085SOL    HW137696   5.925   4.701   8.343  0.0613  0.8689 -0.2059
12085SOL    HW237697   5.860   4.594   8.428  0.1451  1.1671  0.2359
12086SOL     OW37698   1.433   5.638   6.297  0.1143  0.3876  0.4187
12086SOL    HW137699   1.428   5.724   6.257 -0.8379  1.0415  1.8412
12086SOL    HW237700   1.473   5.582   6.231  2.6066  2.3292  0.1364
12087SOL     OW37701   1.026   6.335   5.390 -0.5651  0.1031 -0.0221
12087SOL    HW137702   1.009   6.258   5.336 -0.2337  0.3038 -0.4176
12087SOL    HW237703   1.091   6.306   5.454 -0.7186 -0.0426  0.0721
12088SOL     OW37704   4.743   0.067   6.086 -0.4268 -0.2491 -0.6011
12088SOL    HW137705   4.833   0.100   6.085 -0.7378  0.6328 -0.1776
12088SOL    HW237706   4.697   0.123   6.149 -1.6175  0.2589 -1.8703
12089SOL     OW37707   5.186   7.212   2.716 -0.3613 -0.1058 -0.0498
12089SOL    HW137708   5.135   7.277   2.765  1.6550  1.8248 -0.3550
12089SOL    HW237709   5.221   7.153   2.783 -2.2240 -0.9897  0.2290
12090SOL     OW37710   1.985   0.143  12.156 -0.1460  0.2727  0.0201
12090SOL    HW137711   1.979   0.058  12.201 -0.0934  0.1163 -0.2638
12090SOL    HW237712   1.941   0.204  12.214 -1.9808 -0.3067 -0.6975
12091SOL     OW37713   1.390   7.329   3.803  0.4404 -0.3269  0.4007
12091SOL    HW137714   1.418   7.403   3.750  0.4669 -1.3951 -1.1323
12091SOL    HW237715   1.315   7.362   3.852 -0.6225  0.2590 -1.5256
12092SOL     OW37716   7.787   4.017   6.945  0.1837  0.5755 -0.5449
12092SOL    HW137717   7.836   4.036   7.024  1.2975 -2.9499 -0.2235
12092SOL    HW237718   7.727   3.946   6.970 -1.6979  1.5185 -2.1250
12093SOL     OW37719   0.775   0.105   0.107 -0.0898 -0.2610 -0.0131
12093SOL    HW137720   0.830   0.103   0.028 -0.8145 -1.6510 -0.5205
12093SOL    HW237721   0.832   0.075   0.177  0.9482  2.2265  0.3117
12094SOL     OW37722   6.194   5.273   6.904 -0.5697  0.4625  0.1784
12094SOL    HW137723   6.158   5.233   6.983  1.6614 -1.3473  0.3684
12094SOL    HW237724   6.264   5.330   6.935  0.5268 -0.4971 -0.4444
12095SOL     OW37725   4.536   7.264   6.435 -0.0150  0.5430  0.0616
12095SOL    HW137726   4.571   7.178   6.460 -0.7288 -0.0101 -0.7607
12095SOL    HW237727   4.606   7.326   6.458 -0.2536  0.0009  2.4877
12096SOL     OW37728   4.235   5.711  12.282  0.7135  0.1186  0.3359
12096SOL    HW137729   4.298   5.730  12.212  2.0655 -1.1340  1.1558
12096SOL    HW237730   4.287   5.671  12.351 -0.7719  0.3355  1.6395
12097SOL     OW37731   5.046   7.037   9.508 -0.5978  0.8600  0.2985
12097SOL    HW137732   5.115   7.103   9.502  0.1117  0.0611 -0.8466
12097SOL    HW237733   4.984   7.072   9.572  0.7329  1.7334  1.1613
12098SOL     OW37734   2.030   1.911   7.647 -0.3234 -0.2420  0.2152
12098SOL    HW137735   2.039   1.846   7.577  0.9166  0.3043 -0.1552
12098SOL    HW237736   1.966   1.974   7.613 -1.0031 -0.8699  0.2910
12099SOL     OW37737   5.102   5.277   8.549  0.6668  0.3303  0.0613
12099SOL    HW137738   5.094   5.369   8.575 -0.2276  0.0866  0.7205
12099SOL    HW237739   5.012   5.249   8.533  1.0212 -0.1372 -1.2504
12100SOL     OW37740   4.319   7.083   7.753  0.2748  0.3856  0.8753
12100SOL    HW137741   4.249   7.037   7.800 -0.1259  1.8582  1.8116
12100SOL    HW237742   4.330   7.034   7.672 -1.4002 -0.2676  1.0008
12101SOL     OW37743   7.948   4.979   5.672 -0.1221 -0.2041  0.7821
12101SOL    HW137744   8.028   5.029   5.689 -0.3946  0.2245  0.8135
12101SOL    HW237745   7.878   5.044   5.671 -0.4985 -0.5977  0.9308
12102SOL     OW37746   5.037   1.144  11.433 -0.1188 -0.7307 -0.4968
12102SOL    HW137747   4.987   1.203  11.488  0.8974  0.8916 -1.2436
12102SOL    HW237748   4.981   1.128  11.357 -0.6648 -1.3019  0.0102
12103SOL     OW37749   2.273   1.534  10.918 -0.1198 -0.0247  0.0137
12103SOL    HW137750   2.318   1.609  10.959 -0.4737  0.5616 -0.6518
12103SOL    HW237751   2.190   1.527  10.966  0.2503 -0.4910  0.5951
12104SOL     OW37752   1.448   7.744   4.403  0.1146 -0.1998 -0.3438
12104SOL    HW137753   1.414   7.771   4.489  1.4257  0.1674  0.0799
12104SOL    HW237754   1.388   7.675   4.374 -1.0613  0.5186  0.3060
12105SOL     OW37755   4.837   6.251   6.970  0.5016 -0.4859 -0.6264
12105SOL    HW137756   4.769   6.319   6.975  0.0212 -1.0556  1.1673
12105SOL    HW237757   4.816   6.190   7.040  2.6789 -0.8699 -0.2232
12106SOL     OW37758   6.971   3.289   4.318 -0.9189  0.1747 -0.0957
12106SOL    HW137759   6.916   3.217   4.287 -1.9050  1.1553 -0.7024
12106SOL    HW237760   7.020   3.251   4.392 -2.5015 -0.7150  0.5665
12107SOL     OW37761   2.738   2.399   4.832  0.0866 -0.0180  0.3743
12107SOL    HW137762   2.686   2.438   4.762  0.2441 -0.2963  0.0976
12107SOL    HW237763   2.740   2.306   4.810 -1.5649 -0.4524  1.8444
12108SOL     OW37764   4.436   5.648   3.556 -0.3082  0.1235 -0.1029
12108SOL    HW137765   4.439   5.743   3.543  1.9131  0.2339  0.7787
12108SOL    HW237766   4.470   5.635   3.645  2.3334 -1.6232 -1.2279
12109SOL     OW37767   6.939   4.360   7.795  0.1300 -0.4147 -0.3644
12109SOL    HW137768   6.863   4.303   7.788 -0.9256  0.7478  0.9791
12109SOL    HW237769   6.923   4.429   7.730  0.0743 -0.2147 -0.1387
12110SOL     OW37770   3.642   7.731   2.699 -0.3628 -0.0352  0.0002
12110SOL    HW137771   3.680   7.659   2.749 -1.4906 -1.6214 -1.3120
12110SOL    HW237772   3.678   7.721   2.611  0.0355  1.4707 -0.0303
12111SOL     OW37773   6.493   6.642   2.398 -0.3911  0.2699 -0.0692
12111SOL    HW137774   6.547   6.613   2.471 -2.1304 -0.7892  0.8901
12111SOL    HW237775   6.478   6.735   2.413  0.7287  0.4602 -0.0875
12112SOL     OW37776   3.820   3.143   4.948  0.4486 -0.0998  0.0143
12112SOL    HW137777   3.845   3.113   4.860 -1.6204  1.4568 -1.1906
12112SOL    HW237778   3.887   3.207   4.971  1.3002 -0.9010 -0.1770
12113SOL     OW37779   1.415   2.438   5.688 -0.3895  0.6999  0.2291
12113SOL    HW137780   1.390   2.354   5.650 -0.9352  1.0306 -0.1573
12113SOL    HW237781   1.511   2.439   5.681 -0.4624  0.7061 -1.0783
12114SOL     OW37782   5.044   0.639   0.949 -0.6584  0.1569  0.4200
12114SOL    HW137783   5.087   0.651   1.033  0.1780 -1.5485  0.2785
12114SOL    HW237784   5.048   0.725   0.907  3.6615 -0.0795 -0.0394
12115SOL     OW37785   6.878   5.651   6.781  0.1173  0.2539  0.4161
12115SOL    HW137786   6.790   5.619   6.761 -0.4427  0.3124  2.5244
12115SOL    HW237787   6.881   5.653   6.876  1.6546  2.3207  0.3896
12116SOL     OW37788   5.955   3.519   8.109 -0.2100 -0.6761 -0.2583
12116SOL    HW137789   5.901   3.593   8.136  1.3334 -0.1691  1.6925
12116SOL    HW237790   5.930   3.504   8.018 -2.9654  0.0452  0.2784
12117SOL     OW37791   3.537   1.771  12.373  0.9084 -0.4646  0.3409
12117SOL    HW137792   3.502   1.704  12.314 -1.4039  1.2094 -0.3361
12117SOL    HW237793   3.632   1.756  12.372  0.7917 -1.6585 -2.3605
12118SOL     OW37794   0.278   2.830  11.084  0.4079 -0.4006  0.2585
12118SOL    HW137795   0.295   2.746  11.041  0.8553  0.8559 -2.1973
12118SOL    HW237796   0.361   2.878  11.078  0.2201  0.1678  1.7979
12119SOL     OW37797   4.510   0.127  12.176 -0.0691  0.9847  0.2343
12119SOL    HW137798   4.478   0.135  12.086 -3.4270  1.1996  1.2888
12119SOL    HW237799   4.537   0.216  12.200  1.5372  0.7945 -0.7100
12120SOL     OW37800   6.174   7.474   1.649  0.0818  0.2316  0.0939
12120SOL    HW137801   6.110   7.404   1.639  0.7655 -0.7146  1.8177
12120SOL    HW237802   6.258   7.428   1.657  0.7234  1.3346 -0.1642
12121SOL     OW37803   6.769   5.286   6.138  0.2082  0.1983  0.1954
12121SOL    HW137804   6.859   5.315   6.154 -0.1538  0.5346  1.8006
12121SOL    HW237805   6.736   5.346   6.071  1.0587  0.2987 -0.1480
12122SOL     OW37806   3.120   1.751  11.365 -0.4856  0.2716  0.2624
12122SOL    HW137807   3.144   1.784  11.278  1.0833 -0.3932  0.4190
12122SOL    HW237808   3.080   1.666  11.348 -0.6170  0.3537  0.1566
12123SOL     OW37809   3.255   4.943  11.536  0.4525 -0.1960 -0.3103
12123SOL    HW137810   3.276   5.036  11.529  2.1732 -0.6120 -1.6917
12123SOL    HW237811   3.331   4.905  11.580  0.2045 -1.0692 -0.6208
12124SOL     OW37812   0.640   5.349   4.151  0.7796  0.2819  0.4285
12124SOL    HW137813   0.694   5.417   4.192  0.6209 -0.1335  1.3476
12124SOL    HW237814   0.678   5.267   4.181  0.4175 -0.0310  0.0428
12125SOL     OW37815   2.242   2.043   4.168  0.7246  0.2705 -0.1655
12125SOL    HW137816   2.164   2.074   4.121 -0.3194  0.9048  1.8744
12125SOL    HW237817   2.284   1.982   4.107 -1.1076  0.2672 -1.5085
12126SOL     OW37818   6.565   7.379   7.999  0.1538 -0.4993  0.1691
12126SOL    HW137819   6.621   7.444   8.042  1.2043 -0.5258 -1.0777
12126SOL    HW237820   6.581   7.298   8.048 -0.8075  0.0395  1.4345
12127SOL     OW37821   1.851   2.741   7.429  0.0007 -0.2782  0.0354
12127SOL    HW137822   1.838   2.714   7.339 -2.0202 -1.5036  0.6372
12127SOL    HW237823   1.941   2.714   7.449  0.5530  0.2257 -1.6456
12128SOL     OW37824   3.599   6.000   7.438 -0.3389  0.9109 -0.1511
12128SOL    HW137825   3.576   5.977   7.528  0.6562  0.0529 -0.0944
12128SOL    HW237826   3.689   5.969   7.428 -0.6018  0.5504 -1.5998
12129SOL     OW37827   3.947   4.053   6.449 -0.1289  0.9022 -0.0011
12129SOL    HW137828   3.855   4.063   6.425  0.2149  1.6457 -1.0831
12129SOL    HW237829   3.972   3.967   6.414 -0.3409  0.8158  0.0604
12130SOL     OW37830   2.602   2.388  12.052  0.1659  0.1659 -0.0053
12130SOL    HW137831   2.595   2.483  12.047  1.0287  0.2852  0.7000
12130SOL    HW237832   2.684   2.368  12.007 -0.1921 -0.2882 -0.4675
12131SOL     OW37833   6.202   1.106   3.016 -1.1011  0.4618 -0.2211
12131SOL    HW137834   6.113   1.126   2.987 -1.1223  0.6302 -0.0350
12131SOL    HW237835   6.228   1.031   2.961 -0.9697  1.0712 -1.0138
12132SOL     OW37836   2.069   3.141   3.641 -0.1810  0.1092 -0.7636
12132SOL    HW137837   2.152   3.104   3.671 -1.4436 -1.4163  1.0866
12132SOL    HW237838   2.067   3.229   3.679 -0.5569 -0.8277  1.5773
12133SOL     OW37839   0.622   6.195   1.621  0.1596 -0.9631 -0.1236
12133SOL    HW137840   0.543   6.226   1.666 -0.3123  0.8078 -2.0204
12133SOL    HW237841   0.694   6.223   1.678 -0.4161  1.2715 -0.3881
12134SOL     OW37842   3.067   5.084  11.193 -1.0359  0.1650  0.1941
12134SOL    HW137843   3.160   5.107  11.182 -0.4769 -1.2345  1.6540
12134SOL    HW237844   3.022   5.138  11.128  0.8849  0.2259 -1.1940
12135SOL     OW37845   4.509   1.164   0.910 -0.1213  0.1966 -0.1362
12135SOL    HW137846   4.416   1.182   0.923 -0.9017 -2.7463 -0.7866
12135SOL    HW237847   4.529   1.198   0.823 -1.1609 -0.8491 -0.8154
12136SOL     OW37848   0.935   2.011   2.873  0.3345  0.5209  0.1798
12136SOL    HW137849   0.934   2.073   2.946 -0.2079 -0.1631  0.7854
12136SOL    HW237850   0.849   2.021   2.832  0.7846  1.1745 -0.6146
12137SOL     OW37851   7.696   2.574   0.156  0.2201  0.5590  0.4474
12137SOL    HW137852   7.649   2.491   0.153  1.1359 -0.0284  1.3827
12137SOL    HW237853   7.715   2.588   0.249 -0.0080  1.8758  0.3190
12138SOL     OW37854   3.064   0.225   6.348  0.4871 -0.1520 -0.1549
12138SOL    HW137855   2.972   0.211   6.326  0.4136  0.6649 -0.3748
12138SOL    HW237856   3.076   0.320   6.348  0.7451 -0.1062  2.2800
12139SOL     OW37857   0.178   1.578   6.550 -0.1651  0.3867 -0.0591
12139SOL    HW137858   0.226   1.603   6.629  0.3319 -0.6300 -0.0273
12139SOL    HW237859   0.239   1.523   6.501 -0.6784  0.5252 -0.8736
12140SOL     OW37860   3.324   1.660   6.541  0.2136 -0.2782  0.4788
12140SOL    HW137861   3.347   1.738   6.591 -2.5230  0.6529  0.4920
12140SOL    HW237862   3.238   1.634   6.576  0.7567 -2.9487  0.0313
12141SOL     OW37863   1.749   0.524  10.906 -0.3734 -0.3321  0.7093
12141SOL    HW137864   1.750   0.562  10.994  0.5282 -1.0104  1.0084
12141SOL    HW237865   1.823   0.463  10.905 -0.0275  0.0653 -0.7058
12142SOL     OW37866   1.160   0.424   2.410 -0.6212 -0.5153 -0.1298
12142SOL    HW137867   1.077   0.414   2.455  0.2653 -0.4312  1.6105
12142SOL    HW237868   1.224   0.379   2.466  0.5065 -0.5889 -1.4158
12143SOL     OW37869   6.322   0.523  12.037 -0.5430 -0.1297  0.2848
12143SOL    HW137870   6.301   0.479  12.120  0.1843  0.2952  0.7092
12143SOL    HW237871   6.384   0.592  12.062  1.2055 -1.1909 -0.8554
12144SOL     OW37872   4.043   5.276   0.833  0.0800 -0.0836 -1.0223
12144SOL    HW137873   3.998   5.197   0.800  2.2294 -2.5790  1.4838
12144SOL    HW237874   3.974   5.325   0.878 -0.8011 -2.2009  0.0913
12145SOL     OW37875   0.532   6.468   6.717  0.8362 -0.0005 -0.1553
12145SOL    HW137876   0.620   6.478   6.754 -0.0992 -1.6818  2.8763
12145SOL    HW237877   0.474   6.507   6.783 -0.7915 -0.3131 -1.3444
12146SOL     OW37878   5.443   7.535   7.554 -0.2716 -0.6327 -0.3798
12146SOL    HW137879   5.537   7.537   7.539 -0.3056 -2.1940 -0.8980
12146SOL    HW237880   5.434   7.509   7.646 -0.2076  0.8342  0.0735
12147SOL     OW37881   3.850   6.096   9.230 -0.5399 -0.1682  0.0802
12147SOL    HW137882   3.930   6.044   9.231 -0.7012 -0.4188  1.1861
12147SOL    HW237883   3.834   6.114   9.137  0.2854 -0.8935 -0.2127
12148SOL     OW37884   7.456   6.571   5.780  0.0285 -0.2342  0.6275
12148SOL    HW137885   7.428   6.663   5.784 -0.4061 -0.3743  0.8791
12148SOL    HW237886   7.386   6.523   5.824  0.0374 -0.7375  0.1033
12149SOL     OW37887   0.339   7.526  10.151  0.0393 -0.1111 -0.2128
12149SOL    HW137888   0.267   7.464  10.138  1.5616 -1.7921 -1.1878
12149SOL    HW237889   0.417   7.479  10.121  1.7092  1.2858  1.6067
12150SOL     OW37890   7.112   2.840   4.522 -0.4564  0.2553  0.0737
12150SOL    HW137891   7.022   2.854   4.493 -0.5350 -0.2997  0.0462
12150SOL    HW237892   7.154   2.794   4.449  0.2244  1.6645 -0.4855
12151SOL     OW37893   0.330   4.626   7.886  0.8801  0.2346 -0.7951
12151SOL    HW137894   0.364   4.694   7.944  0.8545 -0.5979  0.2321
12151SOL    HW237895   0.276   4.672   7.822 -0.7164  1.0025  1.0444
12152SOL     OW37896   6.134   5.024   3.269  0.3526  0.5343  0.1991
12152SOL    HW137897   6.171   4.939   3.245 -0.1911  0.6299 -1.0467
12152SOL    HW237898   6.041   5.016   3.250  0.0392  0.9492  1.4398
12153SOL     OW37899   5.343   6.462   6.292 -0.1393  0.2801  0.3684
12153SOL    HW137900   5.322   6.369   6.282 -0.6351  0.2167  1.7729
12153SOL    HW237901   5.425   6.473   6.244 -0.0062 -0.9025  0.2825
12154SOL     OW37902   0.636   1.115   0.219  0.0906 -0.5448 -0.5486
12154SOL    HW137903   0.707   1.066   0.177  1.2727  0.0100  0.7378
12154SOL    HW237904   0.615   1.184   0.156  0.0561 -1.2633 -1.3393
12155SOL     OW37905   4.869   7.361   5.887 -0.3756 -0.1166  0.2682
12155SOL    HW137906   4.923   7.291   5.852 -0.5701 -0.3429  0.4164
12155SOL    HW237907   4.779   7.331   5.874 -0.5045  0.6764 -0.8479
12156SOL     OW37908   5.893   0.455  12.175 -0.0327  0.1335 -0.3465
12156SOL    HW137909   5.956   0.492  12.113 -0.7521 -0.7085 -1.6206
12156SOL    HW237910   5.811   0.451  12.126 -0.1028 -2.7222 -0.1658
12157SOL     OW37911   5.277   5.042  11.310  0.2733 -0.0525 -0.1888
12157SOL    HW137912   5.292   4.948  11.306  0.8462  0.0403 -0.2817
12157SOL    HW237913   5.255   5.059  11.401 -0.9449 -0.4345 -0.3914
12158SOL     OW37914   0.773   0.177   1.441  0.3533  0.2348  0.6434
12158SOL    HW137915   0.742   0.202   1.528 -0.0928 -0.6527  0.7567
12158SOL    HW237916   0.864   0.207   1.438  0.9678 -1.3188  2.1231
12159SOL     OW37917   3.359   7.930   7.194 -0.2533 -0.0785 -0.3064
12159SOL    HW137918   3.363   7.930   7.098 -2.8912 -1.9014 -0.5509
12159SOL    HW237919   3.396   7.845   7.219 -0.0895  0.1495  0.2289
12160SOL     OW37920   0.279   0.342   4.934  0.1089  0.0891  0.5555
12160SOL    HW137921   0.315   0.285   4.866 -0.6172  1.0455 -0.6648
12160SOL    HW237922   0.192   0.307   4.952  0.1023  0.1415  0.6273
12161SOL     OW37923   0.656   3.673  11.245  0.1272  0.1784  0.5937
12161SOL    HW137924   0.657   3.578  11.243 -0.2689  0.1559  1.3056
12161SOL    HW237925   0.610   3.696  11.326 -0.9184  0.9728 -0.1900
12162SOL     OW37926   1.487   6.098  12.233  0.3055 -0.3653  0.4452
12162SOL    HW137927   1.538   6.171  12.268  1.0757  0.1218 -1.5698
12162SOL    HW237928   1.550   6.044  12.186 -0.5185 -1.5411  0.6163
12163SOL     OW37929   1.430   3.024   0.148  0.0551  0.2311 -0.2076
12163SOL    HW137930   1.465   2.961   0.212 -1.4396  0.3008  0.7251
12163SOL    HW237931   1.344   3.047   0.183  0.2207  2.1592 -0.9875
12164SOL     OW37932   1.829   7.634   7.307 -0.0453  0.6332  0.1273
12164SOL    HW137933   1.916   7.599   7.327  0.4295  1.5429 -0.3076
12164SOL    HW237934   1.772   7.595   7.374  0.9419  1.1127  1.2809
12165SOL     OW37935   5.192   0.805   0.401 -0.0126  0.0235  0.0577
12165SOL    HW137936   5.175   0.727   0.454 -0.1124  1.0845  1.6632
12165SOL    HW237937   5.281   0.830   0.424  0.0080  0.3975 -0.4286
12166SOL     OW37938   1.440   4.226   1.114 -0.0250  0.7234 -0.3903
12166SOL    HW137939   1.347   4.204   1.107  0.2804 -0.0437 -2.6565
12166SOL    HW237940   1.443   4.321   1.114 -0.7936  0.7529 -0.2043
12167SOL     OW37941   0.289   1.125   8.626 -0.0964 -0.8952  0.1304
12167SOL    HW137942   0.245   1.166   8.700  1.3851  0.1818  0.4721
12167SOL    HW237943   0.262   1.033   8.630  0.9226 -1.1757  2.8159
12168SOL     OW37944   3.340   0.931   2.227  0.0443  0.1281  0.0354
12168SOL    HW137945   3.265   0.935   2.286 -1.5422  0.6025 -1.9193
12168SOL    HW237946   3.414   0.911   2.285 -1.5163 -0.1817  2.0626
12169SOL     OW37947   4.611   6.154   1.252 -0.1484 -0.2644 -0.2228
12169SOL    HW137948   4.539   6.176   1.312  1.6050 -1.3323  2.4919
12169SOL    HW237949   4.602   6.059   1.239  1.1833 -0.5909  0.9024
12170SOL     OW37950   4.079   7.634   8.694  0.2367 -0.2074 -0.1561
12170SOL    HW137951   4.087   7.722   8.730  0.4359 -0.2194 -0.1690
12170SOL    HW237952   4.117   7.640   8.606 -0.4439 -0.1267 -0.4561
12171SOL     OW37953   6.391   3.463   6.029 -0.4002  0.2018  0.7738
12171SOL    HW137954   6.365   3.372   6.017 -0.9933  0.2779  1.4346
12171SOL    HW237955   6.372   3.482   6.121  1.1945  0.5242  1.0604
12172SOL     OW37956   0.269   0.296   3.532  0.6707  0.0699  0.2145
12172SOL    HW137957   0.195   0.322   3.478  0.6704  1.5260  0.8704
12172SOL    HW237958   0.342   0.288   3.471 -0.1502 -2.1788 -0.5712
12173SOL     OW37959   6.682   0.686  12.091  0.8751  0.2071  0.0393
12173SOL    HW137960   6.651   0.776  12.085  2.7277  1.0152  1.5719
12173SOL    HW237961   6.681   0.667  12.185  1.6518 -0.9585 -0.1659
12174SOL     OW37962   6.859   5.875   7.209  0.0820 -0.0432  0.7494
12174SOL    HW137963   6.910   5.799   7.235  1.5622 -0.0099 -1.6857
12174SOL    HW237964   6.769   5.843   7.202  0.6105 -1.4624  0.1962
12175SOL     OW37965   1.452   4.925  12.028  0.3668 -0.2371  0.2945
12175SOL    HW137966   1.403   4.891  11.953  0.1256 -0.1030  0.3870
12175SOL    HW237967   1.528   4.969  11.990  1.5211 -2.1829  0.2511
12176SOL     OW37968   7.785   3.770   1.534 -0.4714 -0.5568 -0.3362
12176SOL    HW137969   7.824   3.710   1.470  0.5708  0.8792 -1.1024
12176SOL    HW237970   7.752   3.713   1.603  2.3803 -1.9306  0.0313
12177SOL     OW37971   1.770   1.201   9.331  0.1875 -0.0975  0.4229
12177SOL    HW137972   1.770   1.128   9.393  0.7004  0.4423  1.0785
12177SOL    HW237973   1.858   1.201   9.293 -0.4804 -1.1280 -1.1762
12178SOL     OW37974   5.450   0.909   0.425  0.0765 -0.2317 -0.8897
12178SOL    HW137975   5.541   0.880   0.431  0.5469  1.2870 -0.1655
12178SOL    HW237976   5.440   0.941   0.336 -0.1670 -1.5968 -1.3885
12179SOL     OW37977   6.890   0.860   3.817  0.1606 -1.1185  0.2778
12179SOL    HW137978   6.819   0.924   3.816 -0.9544 -2.3080  0.6545
12179SOL    HW237979   6.959   0.899   3.763 -1.2201 -0.4148 -1.0462
12180SOL     OW37980   1.736   0.249   2.868 -0.1545 -0.2287 -0.0620
12180SOL    HW137981   1.692   0.179   2.821 -0.8525  0.2516 -0.1314
12180SOL    HW237982   1.752   0.213   2.956 -1.2575 -0.1895  0.1647
12181SOL     OW37983   5.577   0.378  10.168 -0.3458 -0.1873 -0.5038
12181SOL    HW137984   5.564   0.407  10.078  2.0662  1.3725 -0.4466
12181SOL    HW237985   5.488   0.364  10.202 -1.3987  1.0668 -2.5392
12182SOL     OW37986   0.550   3.399   8.432 -0.5235  0.3118 -0.0763
12182SOL    HW137987   0.490   3.366   8.365 -0.4631  0.3316 -0.1403
12182SOL    HW237988   0.593   3.474   8.391 -2.1846  1.8072  0.7731
12183SOL     OW37989   3.195   1.458   2.399 -0.5027 -0.1006 -0.4165
12183SOL    HW137990   3.238   1.543   2.403 -0.6818 -0.0660  1.6380
12183SOL    HW237991   3.102   1.478   2.404 -0.5058 -0.4379  1.4235
12184SOL     OW37992   5.392   6.195   3.285  0.2288  0.6789  0.4537
12184SOL    HW137993   5.317   6.135   3.287  0.1802  0.7305  0.2498
12184SOL    HW237994   5.442   6.168   3.208 -0.4573  1.6884 -0.3867
12185SOL     OW37995   1.603   6.575   1.127  0.0524  0.1879 -1.0342
12185SOL    HW137996   1.655   6.638   1.077  0.5466 -0.0960 -0.8857
12185SOL    HW237997   1.662   6.501   1.141 -0.2387  0.0602 -0.4485
12186SOL     OW37998   3.197   6.639  10.961  0.2491 -0.1231 -0.7747
12186SOL    HW137999   3.207   6.643  11.056 -1.6486 -1.3551 -0.4709
12186SOL    HW238000   3.287   6.630  10.928  0.7878 -3.0151  1.1317
12187SOL     OW38001   0.504   1.792  10.035 -0.1239  0.8125  0.0514
12187SOL    HW138002   0.563   1.789  10.110 -0.1832  1.7517  0.1432
12187SOL    HW238003   0.416   1.792  10.074 -0.2515 -1.3479 -0.0994
12188SOL     OW38004   4.475   7.568   6.384 -0.1310  0.3117 -0.4419
12188SOL    HW138005   4.434   7.482   6.391 -0.0476  0.2586 -0.6003
12188SOL    HW238006   4.568   7.550   6.380 -0.0820  0.4462  0.1309
12189SOL     OW38007   1.476   2.165   0.259 -0.0344  0.0891 -0.2994
12189SOL    HW138008   1.385   2.137   0.267 -0.1059  0.6809  1.4319
12189SOL    HW238009   1.476   2.226   0.186 -1.2225  0.7086  0.1846
12190SOL     OW38010   1.910   4.218   4.788 -0.2539  0.1613 -0.4778
12190SOL    HW138011   1.967   4.152   4.827 -1.9084 -1.5375 -0.7826
12190SOL    HW238012   1.854   4.247   4.860  0.8501  1.7314 -0.2049
12191SOL     OW38013   4.772   6.267   7.985  0.0281 -0.0621 -0.0678
12191SOL    HW138014   4.865   6.266   8.005 -0.1960  1.2196  1.2683
12191SOL    HW238015   4.764   6.326   7.911  0.3737 -1.0110 -0.8754
12192SOL     OW38016   3.924   6.863   3.496  0.0645  0.1176 -0.0586
12192SOL    HW138017   3.851   6.805   3.519  0.1789  0.3680  1.0310
12192SOL    HW238018   3.929   6.860   3.401  0.6924 -2.4443 -0.0201
12193SOL     OW38019   7.983   6.258   6.961 -0.3437 -0.3730  0.4282
12193SOL    HW138020   7.928   6.223   6.891 -0.2934  2.2699 -1.0806
12193SOL    HW238021   7.926   6.262   7.038 -1.3959 -0.3196 -0.3385
12194SOL     OW38022   2.155   5.288   1.565  0.1069 -0.0360  0.7958
12194SOL    HW138023   2.093   5.215   1.575  0.8716 -0.5667  1.9533
12194SOL    HW238024   2.101   5.361   1.534 -0.8270 -0.8648  0.3981
12195SOL     OW38025   7.337   7.178   5.176 -0.3875 -0.9599 -0.7666
12195SOL    HW138026   7.329   7.158   5.269 -2.0619 -1.1254 -0.9268
12195SOL    HW238027   7.366   7.269   5.174 -0.4778 -0.9078 -0.0820
12196SOL     OW38028   2.955   0.967   3.668  0.0195  0.2993 -0.1682
12196SOL    HW138029   3.031   0.917   3.697  0.7742  0.8507 -1.1429
12196SOL    HW238030   2.988   1.055   3.654 -0.9288  0.6771 -0.0791
12197SOL     OW38031   0.176   2.242  10.250  0.4340  0.0672  0.1942
12197SOL    HW138032   0.171   2.182  10.176  0.3738 -0.0771  0.3151
12197SOL    HW238033   0.095   2.226  10.300  0.7328 -0.2280  0.5892
12198SOL     OW38034   6.292   3.196  11.290  0.3853  0.3540 -0.4033
12198SOL    HW138035   6.365   3.251  11.320  1.4004  0.6106 -3.0911
12198SOL    HW238036   6.327   3.151  11.213 -1.8161 -0.7608 -0.8076
12199SOL     OW38037   6.078   1.280   9.355  0.3060 -0.3707 -0.2958
12199SOL    HW138038   6.152   1.330   9.321 -0.2960  1.6036  1.1489
12199SOL    HW238039   6.117   1.198   9.386  1.6286 -0.0302 -0.9915
12200SOL     OW38040   7.096   1.609   5.158  0.2830 -0.3082  0.2893
12200SOL    HW138041   7.123   1.527   5.117  0.7772 -1.1577  2.1950
12200SOL    HW238042   7.018   1.635   5.110  1.1060 -0.9451 -1.4923
12201SOL     OW38043   4.137   3.682  12.378  0.1897  0.0486 -0.3047
12201SOL    HW138044   4.219   3.725  12.403  0.7995 -0.3931 -1.4743
12201SOL    HW238045   4.150   3.590  12.399  0.5152 -0.2431 -1.6638
12202SOL     OW38046   4.560   0.030   3.276  0.0004 -0.1632  0.7788
12202SOL    HW138047   4.615  -0.024   3.219  0.3500 -2.1511  2.8694
12202SOL    HW238048   4.618   0.055   3.348 -1.1417 -0.1564  1.7260
12203SOL     OW38049   3.261   4.489   2.746 -0.4808 -0.2789  0.3242
12203SOL    HW138050   3.184   4.541   2.769 -1.1446 -1.3421  0.5455
12203SOL    HW238051   3.329   4.519   2.807 -0.7675  0.5031  0.2724
12204SOL     OW38052   6.440   2.465   3.161 -0.8242  0.1943 -0.9186
12204SOL    HW138053   6.438   2.480   3.255  1.7846  0.1541 -0.8083
12204SOL    HW238054   6.373   2.524   3.126 -2.1614 -0.1073  0.9427
12205SOL     OW38055   4.407   3.457   0.322  0.0634 -0.3234 -0.7175
12205SOL    HW138056   4.454   3.512   0.260  0.7039 -0.7341 -0.6057
12205SOL    HW238057   4.472   3.431   0.387 -0.5848  0.0538  0.1074
12206SOL     OW38058   6.785   6.459   9.570 -0.4067  0.6123  1.0411
12206SOL    HW138059   6.743   6.391   9.623  0.6877  0.6390  1.9900
12206SOL    HW238060   6.713   6.516   9.543 -1.7623 -2.0770 -1.7162
12207SOL     OW38061   5.654   6.613   7.119  0.0538 -0.0807  0.0333
12207SOL    HW138062   5.664   6.572   7.034 -0.0711 -1.1780  0.5346
12207SOL    HW238063   5.562   6.600   7.142 -0.0261  0.6092  0.1418
12208SOL     OW38064   0.075   6.784  11.404  0.2515 -0.0437  0.3384
12208SOL    HW138065   0.024   6.856  11.443  1.2107  1.4051 -0.9495
12208SOL    HW238066   0.037   6.774  11.316  0.6696 -0.5510  0.2179
12209SOL     OW38067   2.095   2.503  11.408  0.2437 -0.2532  0.4301
12209SOL    HW138068   2.187   2.525  11.424  0.4375  1.3768 -2.1932
12209SOL    HW238069   2.065   2.571  11.348 -1.4668 -3.0418 -2.1698
12210SOL     OW38070   1.162   0.594   8.834  0.5664 -0.7615  0.4015
12210SOL    HW138071   1.118   0.597   8.919  0.1527 -0.1899  0.1698
12210SOL    HW238072   1.213   0.675   8.830 -2.2545  1.0757 -1.3944
12211SOL     OW38073   7.607   3.803   4.702 -0.1373  0.4631  0.2311
12211SOL    HW138074   7.625   3.766   4.788  0.6906 -0.1379 -0.1873
12211SOL    HW238075   7.689   3.846   4.677  0.7637 -2.1406 -1.6363
12212SOL     OW38076   6.417   0.054   4.250 -0.0935  0.3477  0.2902
12212SOL    HW138077   6.492   0.111   4.238 -1.0848  1.6757  0.1646
12212SOL    HW238078   6.445  -0.009   4.317  0.5484  1.8765  1.5149
12213SOL     OW38079   5.471   0.520  11.260 -0.3689  0.4585 -0.0604
12213SOL    HW138080   5.509   0.535  11.347  0.3769 -0.2109 -0.2603
12213SOL    HW238081   5.539   0.474  11.212 -1.2510 -0.2988 -0.6087
12214SOL     OW38082   5.206   0.053  12.145  0.0987  0.0887  0.3197
12214SOL    HW138083   5.164   0.069  12.061  1.0830 -0.2583 -0.2612
12214SOL    HW238084   5.262   0.129  12.159  0.8285 -0.3848  0.0746
12215SOL     OW38085   3.548   6.607   3.238  0.3887  1.1537  0.7335
12215SOL    HW138086   3.467   6.584   3.192  0.3263  1.4068  0.7146
12215SOL    HW238087   3.549   6.550   3.315  0.9537  0.0691 -0.0492
12216SOL     OW38088   3.071   4.251   1.464  0.3223  0.2473 -0.6787
12216SOL    HW138089   3.070   4.195   1.542  0.0475  1.1717 -0.0026
12216SOL    HW238090   3.099   4.193   1.394  0.4195 -0.6481  0.0756
12217SOL     OW38091   4.177   3.516   4.970  0.1708 -0.3744 -0.0060
12217SOL    HW138092   4.244   3.511   4.901  0.0291  0.1405 -0.1871
12217SOL    HW238093   4.213   3.578   5.033 -0.9193  1.3242 -0.9973
12218SOL     OW38094   3.581   4.725   0.291 -0.4166  0.3458  0.0384
12218SOL    HW138095   3.530   4.722   0.210 -0.3809  0.6865  0.0040
12218SOL    HW238096   3.619   4.637   0.298 -0.9511  0.1088  0.0302
12219SOL     OW38097   2.319   5.472   4.514 -0.1538 -0.5637  0.0055
12219SOL    HW138098   2.257   5.543   4.497 -0.9176 -1.5985 -1.8612
12219SOL    HW238099   2.370   5.466   4.433  1.7103 -0.4415  1.1158
12220SOL     OW38100   4.779   5.183   8.338 -0.0067 -0.1631  0.3149
12220SOL    HW138101   4.830   5.144   8.267 -1.8927 -0.9409 -0.7063
12220SOL    HW238102   4.709   5.120   8.354 -1.4302  1.4440  0.6936
12221SOL     OW38103   6.635   6.381   3.179 -0.1893 -0.5059  0.2418
12221SOL    HW138104   6.570   6.313   3.199 -1.1668  0.1061 -0.7673
12221SOL    HW238105   6.618   6.406   3.089  0.5657  0.6443  0.3881
12222SOL     OW38106   4.994   1.401   8.686 -0.4895 -0.1586  0.6308
12222SOL    HW138107   5.030   1.336   8.746 -1.3301 -1.6247 -0.3847
12222SOL    HW238108   5.020   1.371   8.599  1.4266  2.3841  0.2122
12223SOL     OW38109   3.106   5.539   5.762 -0.4704 -0.9275  0.0309
12223SOL    HW138110   3.063   5.562   5.679  3.3817  2.5906 -1.3294
12223SOL    HW238111   3.049   5.576   5.829 -1.4254  0.3193 -1.3934
12224SOL     OW38112   7.251   5.291  11.262  0.3045 -0.4104  0.2466
12224SOL    HW138113   7.303   5.354  11.214 -0.6509 -0.2987 -0.6631
12224SOL    HW238114   7.228   5.336  11.344 -0.9784  0.7226 -0.6960
12225SOL     OW38115   7.784   7.305   3.550 -0.5749 -0.3873 -0.4058
12225SOL    HW138116   7.722   7.246   3.593 -0.3690 -2.5354 -2.7964
12225SOL    HW238117   7.735   7.341   3.476  0.5448 -0.9431 -1.4563
12226SOL     OW38118   3.289   5.525   1.857 -0.1829 -0.1135 -0.4257
12226SOL    HW138119   3.228   5.599   1.858  0.0432  0.1220 -1.8271
12226SOL    HW238120   3.239   5.452   1.894 -0.5668  0.6195  0.5284
12227SOL     OW38121   5.139   3.112  11.916 -0.4985  0.2063 -0.2210
12227SOL    HW138122   5.181   3.044  11.968 -0.3661 -0.0192 -0.6137
12227SOL    HW238123   5.083   3.159  11.978  0.3834  0.5566  0.3185
12228SOL     OW38124   0.531   2.707   3.345  0.6258  0.4506  0.1367
12228SOL    HW138125   0.442   2.700   3.379  0.1833  0.6487 -0.9194
12228SOL    HW238126   0.567   2.619   3.352  0.5640  0.5022  1.1325
12229SOL     OW38127   3.044   5.983   2.515 -0.1150  0.4981  0.6787
12229SOL    HW138128   3.067   5.964   2.605 -2.2694  0.8447  1.3604
12229SOL    HW238129   3.121   6.025   2.478  1.1647 -0.5775  2.0366
12230SOL     OW38130   5.164   3.384   5.108 -0.0865 -0.0036  0.1123
12230SOL    HW138131   5.090   3.326   5.124 -0.8413  0.3859 -1.6800
12230SOL    HW238132   5.125   3.462   5.069  1.2496  0.3268 -0.6296
12231SOL     OW38133   1.913   1.843   2.298  0.2176  0.5669  0.3413
12231SOL    HW138134   1.983   1.909   2.297 -0.2469  1.0714  0.3830
12231SOL    HW238135   1.873   1.850   2.211  0.4487  0.0260  0.1884
12232SOL     OW38136   1.154   0.205   2.682  0.4492  0.0707 -0.2013
12232SOL    HW138137   1.192   0.200   2.770  2.0989  1.1644 -0.7930
12232SOL    HW238138   1.114   0.292   2.679  1.5008  0.5494 -0.9164
12233SOL     OW38139   5.351   6.289  10.886 -0.5768  0.1872 -0.0637
12233SOL    HW138140   5.438   6.252  10.901 -0.4211  0.2179 -0.8869
12233SOL    HW238141   5.305   6.276  10.970  1.1117  2.6857  1.3716
12234SOL     OW38142   1.145   5.536   7.414 -0.3989  0.2723 -0.1485
12234SOL    HW138143   1.187   5.612   7.373  0.8658 -0.5632 -0.4616
12234SOL    HW238144   1.215   5.493   7.463 -0.9816 -0.9241 -0.3184
12235SOL     OW38145   2.748   6.532   2.715 -0.0650 -0.2884  0.2589
12235SOL    HW138146   2.723   6.506   2.804 -0.7415  0.6493  0.3530
12235SOL    HW238147   2.813   6.467   2.689 -0.7974 -1.3285  0.9511
12236SOL     OW38148   4.891   4.218   8.795  0.1374 -0.4740  0.0867
12236SOL    HW138149   4.817   4.272   8.824 -0.5408 -0.2475 -1.8817
12236SOL    HW238150   4.849   4.141   8.755  0.7102  0.9370 -3.6264
12237SOL     OW38151   2.961   7.366   8.885 -0.2666  0.6283  0.1714
12237SOL    HW138152   3.015   7.293   8.916  0.7520  0.9517 -0.7867
12237SOL    HW238153   3.001   7.444   8.925  0.6341  0.9749 -1.3474
12238SOL     OW38154   1.238   5.215   7.393  0.7190 -0.3733 -0.3551
12238SOL    HW138155   1.259   5.122   7.391  0.8347 -0.3628  0.1946
12238SOL    HW238156   1.142   5.218   7.399  0.4614 -0.4179 -3.2592
12239SOL     OW38157   2.407   2.580   6.830 -0.0582  0.2274  0.2989
12239SOL    HW138158   2.471   2.608   6.764 -0.1695 -0.8053 -0.2564
12239SOL    HW238159   2.401   2.485   6.820 -1.2536  0.2385  0.7416
12240SOL     OW38160   0.855   4.424   1.677  0.1427  0.3703  0.2270
12240SOL    HW138161   0.820   4.433   1.588 -2.0597 -2.4105  0.6759
12240SOL    HW238162   0.878   4.331   1.685 -1.2358  0.1526  3.0002
12241SOL     OW38163   7.900   2.058   2.845 -0.2770  0.1219  0.3586
12241SOL    HW138164   7.849   2.061   2.926 -1.2198  1.1874 -0.2455
12241SOL    HW238165   7.988   2.084   2.871 -0.0514 -1.4861  1.3738
12242SOL     OW38166   0.350   6.700  11.358 -0.2366  0.1484 -0.9999
12242SOL    HW138167   0.254   6.696  11.350 -0.5908  3.0382  0.5922
12242SOL    HW238168   0.374   6.614  11.393 -2.2026 -0.6724 -1.5076
12243SOL     OW38169   6.778   5.923   1.017 -0.2562 -0.2832 -0.0821
12243SOL    HW138170   6.758   5.830   1.003 -1.1113 -0.1710  0.3144
12243SOL    HW238171   6.724   5.948   1.092 -0.7694  0.7694 -0.7763
12244SOL     OW38172   5.278   5.081   8.546 -1.2246 -0.4164  0.3171
12244SOL    HW138173   5.363   5.119   8.524 -1.2272 -0.7974 -0.3787
12244SOL    HW238174   5.220   5.157   8.559 -0.4862 -0.1166  2.0943
12245SOL     OW38175   2.267   5.803  10.616  0.4116  0.4163 -0.4401
12245SOL    HW138176   2.284   5.747  10.691 -0.9567  0.4825 -0.0555
12245SOL    HW238177   2.254   5.890  10.653  2.0573  0.9413 -0.9919
12246SOL     OW38178   1.779   0.825   2.803  0.1678  0.0502  0.6971
12246SOL    HW138179   1.773   0.733   2.827  0.9834 -0.2433 -0.1742
12246SOL    HW238180   1.693   0.845   2.764  0.6828 -0.9342 -1.0454
12247SOL     OW38181   4.178   2.842  11.596 -0.4428 -0.2455 -0.2616
12247SOL    HW138182   4.230   2.920  11.617  0.8755 -1.1780  0.0472
12247SOL    HW238183   4.149   2.809  11.681  1.0734 -1.4506 -0.1760
12248SOL     OW38184   1.030   6.304   4.270 -0.1145  0.0247 -0.1773
12248SOL    HW138185   0.950   6.295   4.218 -0.3871  0.8900  0.0793
12248SOL    HW238186   1.101   6.296   4.207 -0.3878 -0.9408 -0.3829
12249SOL     OW38187   7.663   7.470   7.793  0.5801  0.0737 -0.0995
12249SOL    HW138188   7.704   7.473   7.879  0.2281  0.9626  0.0591
12249SOL    HW238189   7.601   7.398   7.798  0.5537  0.1266  0.3980
12250SOL     OW38190   3.299   0.858   2.975  0.0290  0.4996 -0.8703
12250SOL    HW138191   3.221   0.806   2.989 -1.2936  2.1274 -1.8289
12250SOL    HW238192   3.348   0.810   2.908 -0.2626 -0.4038 -0.4434
12251SOL     OW38193   7.185   7.532   5.878  0.0720  0.4197  0.6424
12251SOL    HW138194   7.173   7.463   5.812  0.5681 -1.6939  2.6017
12251SOL    HW238195   7.110   7.522   5.937  0.5170  1.1012  1.3463
12252SOL     OW38196   6.605   5.746  11.876  0.6857 -0.0781 -0.0178
12252SOL    HW138197   6.573   5.832  11.901 -0.7900 -0.9907  1.3979
12252SOL    HW238198   6.668   5.763  11.806 -1.2952  1.9956 -1.4325
12253SOL     OW38199   2.541   7.393   5.693 -0.2488  0.7092  0.3882
12253SOL    HW138200   2.502   7.312   5.724  0.3357  0.6531  1.0068
12253SOL    HW238201   2.635   7.375   5.692 -0.2243  0.7075 -1.4291
12254SOL     OW38202   7.346   1.499   9.901  0.0020 -0.2586  0.4230
12254SOL    HW138203   7.427   1.535   9.866 -0.0885  0.4802  0.9620
12254SOL    HW238204   7.347   1.521   9.994  0.2900 -2.3075  0.9497
12255SOL     OW38205   1.466   4.631   4.830  0.1848  0.1231 -0.0481
12255SOL    HW138206   1.462   4.579   4.750  0.6356 -0.2011  0.1344
12255SOL    HW238207   1.451   4.568   4.901 -1.0699  0.5523  0.0846
12256SOL     OW38208   4.817   3.852  11.299 -0.0589  0.0251 -0.8775
12256SOL    HW138209   4.787   3.764  11.276  3.2610 -1.7097  0.7411
12256SOL    HW238210   4.823   3.898  11.215  0.1301 -1.9817 -2.0282
12257SOL     OW38211   7.196   6.824   2.523  0.1751  0.4970 -0.4270
12257SOL    HW138212   7.183   6.733   2.547  1.2887  0.2864 -0.5363
12257SOL    HW238213   7.245   6.821   2.441  1.3050  1.1663  0.1943
12258SOL     OW38214   2.290   3.788  11.357  0.3055 -0.0065  0.0266
12258SOL    HW138215   2.367   3.804  11.412  0.8715 -1.9333 -0.1522
12258SOL    HW238216   2.267   3.696  11.373 -1.2820  0.2094 -0.7829
12259SOL     OW38217   0.454   1.067   7.019  0.0168 -0.2417 -0.3186
12259SOL    HW138218   0.519   1.082   7.088  0.5650 -1.8133 -0.4517
12259SOL    HW238219   0.421   1.154   6.997  2.0239  0.5943 -0.1927
12260SOL     OW38220   4.019   7.776   3.783  0.1832  0.1078 -0.0818
12260SOL    HW138221   3.952   7.744   3.843  0.9046 -0.6595  0.3354
12260SOL    HW238222   3.974   7.782   3.698  0.2255 -3.0359 -0.4428
12261SOL     OW38223   4.570   6.499   9.627  0.6595 -0.7157  0.0686
12261SOL    HW138224   4.612   6.570   9.578  1.4545 -1.6396 -0.6280
12261SOL    HW238225   4.477   6.508   9.606  0.7857 -0.0627 -0.2486
12262SOL     OW38226   3.172   5.465   6.685 -0.5657 -0.1206 -0.9100
12262SOL    HW138227   3.236   5.469   6.614 -0.5058 -1.8497 -0.9776
12262SOL    HW238228   3.224   5.469   6.765 -0.7085  3.3150 -0.8457
12263SOL     OW38229   0.526   7.154   3.061 -0.0543 -0.5176  0.2776
12263SOL    HW138230   0.531   7.221   3.129 -1.7526 -0.0513  0.0075
12263SOL    HW238231   0.608   7.106   3.068  0.0265 -0.1825  2.3340
12264SOL     OW38232   3.513   1.075   1.322  0.1475  0.2614 -0.2944
12264SOL    HW138233   3.460   1.141   1.277 -0.5426 -0.5623 -0.7209
12264SOL    HW238234   3.459   0.996   1.319  0.3192  0.0339  1.5017
12265SOL     OW38235   5.012   3.308   1.586 -0.3486  0.3171  0.8683
12265SOL    HW138236   5.037   3.331   1.676 -1.2356  1.8175  0.7507
12265SOL    HW238237   5.082   3.342   1.532  0.0172 -0.2916  0.9433
12266SOL     OW38238   6.774   4.683   9.983 -0.7801 -0.1391  0.2881
12266SOL    HW138239   6.779   4.670  10.077  0.5059 -2.3425 -0.0117
12266SOL    HW238240   6.681   4.694   9.965 -1.0564  0.1723  1.7794
12267SOL     OW38241   0.072   3.311   1.891 -0.2282  0.1069 -0.1093
12267SOL    HW138242   0.037   3.235   1.844 -0.3452 -1.0920  1.8239
12267SOL    HW238243   0.165   3.292   1.903 -0.4441 -0.2081  1.2024
12268SOL     OW38244   6.225   5.348   1.820  0.0220  0.0678 -0.1629
12268SOL    HW138245   6.246   5.419   1.880  0.3545  0.2877 -0.5304
12268SOL    HW238246   6.227   5.269   1.874  0.2242  0.2726  0.1339
12269SOL     OW38247   0.684   6.307   9.732  0.7443  0.9135 -0.6566
12269SOL    HW138248   0.773   6.272   9.739 -0.2415 -1.7277 -0.3464
12269SOL    HW238249   0.663   6.336   9.821  1.3189  1.7404 -0.7717
12270SOL     OW38250   4.456   1.666   8.225 -0.6252  0.3042  0.2132
12270SOL    HW138251   4.414   1.586   8.192 -1.2570  0.6703  0.1061
12270SOL    HW238252   4.478   1.646   8.316 -0.3043 -0.1744  0.0317
12271SOL     OW38253   4.139   0.200   4.545  0.1228 -0.2801  0.5469
12271SOL    HW138254   4.051   0.233   4.526  0.4804  0.4263  0.0753
12271SOL    HW238255   4.131   0.155   4.629 -0.9241 -1.1514 -0.0022
12272SOL     OW38256   4.747   0.449   9.566  0.3576  0.2105  0.7121
12272SOL    HW138257   4.792   0.500   9.499 -0.7874  0.0918 -0.1770
12272SOL    HW238258   4.768   0.358   9.544 -0.3715  0.1484  0.2256
12273SOL     OW38259   7.220   0.208   3.611 -0.0065 -0.2118  0.3986
12273SOL    HW138260   7.195   0.294   3.646 -0.9339 -0.8214  1.3145
12273SOL    HW238261   7.296   0.183   3.663  0.2634  0.0627  0.1319
12274SOL     OW38262   1.614   0.192   3.139  0.1666  0.3321 -0.4641
12274SOL    HW138263   1.534   0.169   3.091  1.3305 -0.7842 -1.9662
12274SOL    HW238264   1.643   0.109   3.177  1.3174  0.4491 -1.0617
12275SOL     OW38265   0.041   0.391   8.282  0.0589 -0.4130  0.2496
12275SOL    HW138266   0.007   0.476   8.310  0.4953  0.3880 -1.5018
12275SOL    HW238267   0.065   0.347   8.363  2.0899  2.0865  1.1576
12276SOL     OW38268   0.089   1.072  11.390 -0.1261  0.0408 -0.2050
12276SOL    HW138269   0.157   1.044  11.452 -0.0130  1.1296  0.1955
12276SOL    HW238270   0.133   1.133  11.332  0.0674 -1.8930 -2.1922
12277SOL     OW38271   7.146   2.824   2.832  0.1688  0.2900  0.7745
12277SOL    HW138272   7.204   2.777   2.892 -1.3989 -0.1856  1.9847
12277SOL    HW238273   7.173   2.916   2.839  1.6373 -0.0775  0.2584
12278SOL     OW38274   0.472   1.003   7.947 -0.2993 -0.0855 -0.0267
12278SOL    HW138275   0.474   1.091   7.985  0.6963 -0.2139  0.2475
12278SOL    HW238276   0.461   0.945   8.023 -0.3065 -0.2356 -0.1421
12279SOL     OW38277   4.311   0.781  11.216  0.5558  0.1369 -0.0891
12279SOL    HW138278   4.346   0.827  11.141 -1.0766  1.1100 -0.2926
12279SOL    HW238279   4.316   0.688  11.192  3.4583  0.1535  0.1550
12280SOL     OW38280   1.343   5.212   4.532 -0.0999  0.1569 -0.1804
12280SOL    HW138281   1.438   5.205   4.518 -0.0162  0.1806  0.3534
12280SOL    HW238282   1.323   5.143   4.595 -0.2263  0.9539  0.6752
12281SOL     OW38283   3.242   1.894   0.036  0.3447  0.4001  0.3104
12281SOL    HW138284   3.255   1.813  -0.013 -2.3336 -0.1558  0.3966
12281SOL    HW238285   3.316   1.949   0.010  1.2368 -1.3670 -1.1723
12282SOL     OW38286   2.543   5.339   7.044  0.1123  0.4804  1.0387
12282SOL    HW138287   2.624   5.289   7.036 -0.5492 -0.8655  2.3347
12282SOL    HW238288   2.473   5.275   7.033 -0.8187  1.7036 -0.5716
12283SOL     OW38289   3.995   1.843   8.848  0.0389 -0.0723 -0.1147
12283SOL    HW138290   4.073   1.804   8.810  0.9133  2.0983 -0.6624
12283SOL    HW238291   4.013   1.937   8.852 -1.9967  0.3519  1.0465
12284SOL     OW38292   6.381   1.770   7.293  0.3967  0.3729  0.5634
12284SOL    HW138293   6.350   1.837   7.232  0.4592 -0.6649 -0.6771
12284SOL    HW238294   6.460   1.807   7.331 -0.1254  1.4026  0.6666
12285SOL     OW38295   7.130   6.436   0.941  0.0470  0.1733  0.8238
12285SOL    HW138296   7.070   6.412   1.011  0.0338  3.4424  2.1209
12285SOL    HW238297   7.083   6.504   0.892  0.6907 -0.9066 -1.4659
12286SOL     OW38298   0.691   3.785   9.124  0.0070 -0.4607 -0.4424
12286SOL    HW138299   0.732   3.757   9.043  2.2867  0.7392  0.2094
12286SOL    HW238300   0.727   3.872   9.141  0.6854 -1.1907  2.5122
12287SOL     OW38301   2.567   7.727   6.508  0.3580 -0.2518 -0.0689
12287SOL    HW138302   2.481   7.688   6.494  0.5010 -0.9659  0.9406
12287SOL    HW238303   2.554   7.790   6.580  0.5222  0.2039 -0.4323
12288SOL     OW38304   7.046   6.842   0.032  0.3887  0.0562  0.3030
12288SOL    HW138305   7.116   6.796  -0.013  0.6467  0.1740  0.5815
12288SOL    HW238306   7.052   6.812   0.123  0.1113  0.1075  0.3400
12289SOL     OW38307   4.904   7.460   0.811 -0.0404  0.3088  0.1987
12289SOL    HW138308   4.946   7.376   0.794  0.2387  0.4089  0.3831
12289SOL    HW238309   4.913   7.473   0.906  1.0883  1.1569 -0.0011
12290SOL     OW38310   1.592   5.474  10.548 -0.0593 -0.2862  0.3164
12290SOL    HW138311   1.599   5.544  10.613 -0.2350  0.5029 -0.4919
12290SOL    HW238312   1.678   5.433  10.548  0.3667  0.5886  0.0745
12291SOL     OW38313   7.730   7.615  10.132  0.2222 -0.1538  0.2871
12291SOL    HW138314   7.806   7.594  10.185  1.3907 -0.4457 -1.4304
12291SOL    HW238315   7.687   7.530  10.117  1.2825 -0.4522 -1.2371
12292SOL     OW38316   7.443   7.450   5.540  0.3665 -0.3769 -0.6396
12292SOL    HW138317   7.481   7.501   5.612  0.4531  2.0628 -2.2924
12292SOL    HW238318   7.348   7.458   5.553  0.3838 -0.6414 -0.3430
12293SOL     OW38319   3.057   4.722  11.057  0.0057  0.4737  0.0832
12293SOL    HW138320   3.089   4.774  11.131 -1.9302 -0.6520  1.8547
12293SOL    HW238321   3.101   4.637  11.067  1.5341  1.0263 -1.5268
12294SOL     OW38322   5.669   4.906   8.065 -0.4849  0.4567  0.2652
12294SOL    HW138323   5.597   4.849   8.040  0.4628 -1.7514  2.1780
12294SOL    HW238324   5.678   4.967   7.992 -3.2054 -0.2133 -0.7439
12295SOL     OW38325   7.251   0.780   4.203 -0.0431  0.6977 -0.7913
12295SOL    HW138326   7.285   0.718   4.267 -0.4047  2.1518  0.8774
12295SOL    HW238327   7.156   0.767   4.203 -0.0190  0.4727 -1.3080
12296SOL     OW38328   6.637   4.261  11.851 -0.0754  0.1543 -0.2909
12296SOL    HW138329   6.656   4.217  11.768 -1.6408  1.4266 -1.3982
12296SOL    HW238330   6.633   4.354  11.828 -0.3850  0.5434  1.2493
12297SOL     OW38331   7.934   5.535   1.078  0.2560  0.3435  0.0214
12297SOL    HW138332   8.000   5.603   1.072 -0.7790  1.5327  1.4829
12297SOL    HW238333   7.914   5.512   0.987 -0.1922  2.8150 -0.5558
12298SOL     OW38334   2.116   3.507   1.161 -0.1973 -0.1052 -0.4546
12298SOL    HW138335   2.163   3.572   1.214 -1.8827  0.4174  0.4607
12298SOL    HW238336   2.104   3.432   1.220 -0.6584 -0.1630 -0.6168
12299SOL     OW38337   7.605   6.638   8.737  0.0777  0.4401 -0.4212
12299SOL    HW138338   7.572   6.726   8.757  1.6476  1.2936 -1.3462
12299SOL    HW238339   7.541   6.601   8.676 -0.9318  0.6606  0.4698
12300SOL     OW38340   3.584   4.945   0.031  0.4710  0.2183  0.9701
12300SOL    HW138341   3.676   4.920   0.032  0.5843 -0.4954 -4.0199
12300SOL    HW238342   3.585   5.036   0.001 -0.4273  0.0536  0.4067
12301SOL     OW38343   3.515   3.295   8.922  0.1928  0.2776  0.3602
12301SOL    HW138344   3.431   3.268   8.886  0.9207 -1.1062 -0.4104
12301SOL    HW238345   3.495   3.372   8.975 -1.3759  0.6188 -0.6575
12302SOL     OW38346   1.286   7.841   5.939  0.5951  0.4817 -0.3752
12302SOL    HW138347   1.206   7.853   5.887 -0.2531  1.2076  1.0288
12302SOL    HW238348   1.265   7.770   5.999  1.2821  0.1840 -0.4800
12303SOL     OW38349   5.633   5.290   8.195 -0.1704  0.0358 -0.5889
12303SOL    HW138350   5.546   5.286   8.156 -0.2366 -0.9339 -0.3495
12303SOL    HW238351   5.677   5.360   8.147 -1.6747  1.8552  0.5281
12304SOL     OW38352   1.295   7.041   7.494  0.6192  0.5890  0.3328
12304SOL    HW138353   1.207   7.005   7.481 -0.3170  1.7595  2.7099
12304SOL    HW238354   1.351   6.965   7.509  0.3758 -0.2745 -2.5176
12305SOL     OW38355   2.284   7.545   2.509  0.3979  0.5872 -0.3683
12305SOL    HW138356   2.311   7.455   2.529 -0.7250  0.4081  0.4534
12305SOL    HW238357   2.357   7.599   2.539  1.3037 -0.0644 -1.3331
12306SOL     OW38358   3.074   3.320   9.910  0.4288  0.1493  0.0120
12306SOL    HW138359   3.145   3.370   9.950 -0.5021  1.6233 -0.1273
12306SOL    HW238360   3.114   3.280   9.832  0.7371  2.3035 -0.9960
12307SOL     OW38361   1.443   6.123   7.542  0.5103  0.8875 -0.4426
12307SOL    HW138362   1.371   6.185   7.533  0.0456  0.2970 -0.9295
12307SOL    HW238363   1.450   6.082   7.455  0.7128  0.1680 -0.0964
12308SOL     OW38364   4.791   1.869   2.370  0.2233 -0.0713  0.2448
12308SOL    HW138365   4.840   1.801   2.324 -0.9465 -0.3365 -0.6697
12308SOL    HW238366   4.849   1.945   2.370  1.4179 -0.9472  0.9766
12309SOL     OW38367   3.713   7.192   1.484 -0.2529 -0.2085  0.0745
12309SOL    HW138368   3.768   7.147   1.549  0.2724 -1.3937 -1.1207
12309SOL    HW238369   3.654   7.123   1.452  0.2403  0.0478 -1.4615
12310SOL     OW38370   1.160   6.773   8.578 -0.4543 -0.1824 -0.3980
12310SOL    HW138371   1.200   6.857   8.598  0.6289 -1.0189  1.1074
12310SOL    HW238372   1.122   6.743   8.661 -3.5557  0.1647 -1.5299
12311SOL     OW38373   2.900   4.622  10.551  0.4295 -0.6406  0.1461
12311SOL    HW138374   2.821   4.661  10.514  0.1013 -1.1328  0.3115
12311SOL    HW238375   2.934   4.566  10.482 -0.1195 -1.4706  0.5320
12312SOL     OW38376   0.176   5.464   0.719 -0.7759 -0.0710  0.0203
12312SOL    HW138377   0.114   5.436   0.652 -1.1046 -3.4020  1.5420
12312SOL    HW238378   0.262   5.457   0.677 -1.1065  0.0878 -0.6919
12313SOL     OW38379   2.554   0.239   7.406  0.1854  0.0125 -0.4873
12313SOL    HW138380   2.627   0.269   7.459 -0.5084 -3.2854  2.8408
12313SOL    HW238381   2.594   0.203   7.327  1.9461  0.2028  0.2742
12314SOL     OW38382   0.608   0.799   5.692  0.1030 -0.0042  0.0809
12314SOL    HW138383   0.513   0.797   5.705  0.0368  1.5484 -0.0408
12314SOL    HW238384   0.637   0.711   5.717 -1.3210 -0.4014  0.4249
12315SOL     OW38385   2.182   5.868   9.062 -0.2103 -0.5590 -0.5002
12315SOL    HW138386   2.161   5.789   9.011 -1.6871 -0.2079 -0.4623
12315SOL    HW238387   2.127   5.862   9.139  0.0563  0.2673 -0.2416
12316SOL     OW38388   5.789   1.334  12.359 -0.2875  0.0979 -0.1270
12316SOL    HW138389   5.737   1.329  12.439  0.0277 -1.1386  0.0234
12316SOL    HW238390   5.820   1.424  12.356 -0.4345  0.2022  1.0648
12317SOL     OW38391   3.397   5.345   9.725 -0.1528 -0.2636  0.5658
12317SOL    HW138392   3.424   5.427   9.682 -1.7266 -0.6437 -1.2678
12317SOL    HW238393   3.441   5.276   9.675 -0.5785 -0.6310  0.6950
12318SOL     OW38394   5.482   6.470   1.129 -0.4103 -0.6138 -0.1727
12318SOL    HW138395   5.555   6.508   1.176 -2.2810  1.5618  1.1586
12318SOL    HW238396   5.523   6.415   1.062  2.4237  0.9299  0.1358
12319SOL     OW38397   1.036   2.809   0.259  0.3113  0.0124 -0.1627
12319SOL    HW138398   1.038   2.713   0.262  1.2085  0.0171 -0.2619
12319SOL    HW238399   1.111   2.836   0.312  0.0902  0.6616 -0.1752
12320SOL     OW38400   5.129   0.579   2.042 -0.2959  0.1140  0.2821
12320SOL    HW138401   5.064   0.649   2.049 -0.7128 -0.1333 -0.8641
12320SOL    HW238402   5.164   0.569   2.131 -1.7323  0.3511  0.9034
12321SOL     OW38403   5.084   1.004   5.706 -0.1574 -0.2709 -0.0627
12321SOL    HW138404   5.042   0.922   5.678 -0.6601 -0.5727  1.4700
12321SOL    HW238405   5.102   0.991   5.799  0.6227  1.0168 -0.0121
12322SOL     OW38406   2.034   5.483   6.524  0.7729 -0.2539  0.1954
12322SOL    HW138407   2.029   5.430   6.445  1.1943  0.5866 -0.4005
12322SOL    HW238408   2.080   5.428   6.588 -0.4171 -1.3082  0.1824
12323SOL     OW38409   2.741   2.606   6.154  0.2017 -0.4594 -0.2044
12323SOL    HW138410   2.724   2.627   6.063  0.8351 -0.7470 -0.3976
12323SOL    HW238411   2.680   2.660   6.204  1.0660  1.0556 -0.7225
12324SOL     OW38412   0.798   7.221  10.890  0.4615 -1.1428 -0.4544
12324SOL    HW138413   0.859   7.148  10.894  1.0299 -0.6704 -0.5041
12324SOL    HW238414   0.836   7.288  10.948 -0.7857 -1.4330  0.7646
12325SOL     OW38415   1.782   4.593   9.778 -0.1096 -0.5216  0.1387
12325SOL    HW138416   1.687   4.606   9.783 -0.1628 -0.9855  0.3701
12325SOL    HW238417   1.814   4.616   9.866  0.2643  1.7006 -0.5168
12326SOL     OW38418   2.536   3.392   6.832 -0.1391 -0.2638  0.2441
12326SOL    HW138419   2.447   3.426   6.821 -0.3894 -0.7133  0.8459
12326SOL    HW238420   2.593   3.467   6.815 -0.6569  0.2114  0.6136
12327SOL     OW38421   3.905   6.695   0.588  0.2652  0.1858 -0.1307
12327SOL    HW138422   3.897   6.693   0.492 -2.1914 -0.3827  0.0220
12327SOL    HW238423   3.961   6.620   0.609  1.5815  0.8554 -1.1569
12328SOL     OW38424   7.178   0.058  11.327  0.4475  0.4007 -0.3783
12328SOL    HW138425   7.141   0.017  11.249  0.0699  0.5281 -0.2675
12328SOL    HW238426   7.200  -0.015  11.385  0.0935  0.3382 -0.3217
12329SOL     OW38427   6.715   0.653  12.360  0.3171  0.5673  0.1023
12329SOL    HW138428   6.645   0.684  12.418  0.5589  0.9153  0.2079
12329SOL    HW238429   6.785   0.626  12.419 -0.5666 -1.9313  0.1152
12330SOL     OW38430   0.066   2.537   6.067  0.0580 -0.0708  0.7163
12330SOL    HW138431   0.074   2.576   6.154 -0.9781 -1.8275  1.6431
12330SOL    HW238432  -0.027   2.541   6.047  0.1904 -0.3636  0.0117
12331SOL     OW38433   7.014   7.023   1.211  0.0478  0.0999  0.6696
12331SOL    HW138434   7.007   7.119   1.215 -0.5843  0.0759  0.2754
12331SOL    HW238435   6.924   6.993   1.199  0.3531 -0.4920 -0.2458
12332SOL     OW38436   6.408   5.383   7.315  0.0991 -0.5469  0.3940
12332SOL    HW138437   6.345   5.398   7.386  1.3057  1.3584  1.1412
12332SOL    HW238438   6.416   5.468   7.272  0.1779 -1.4319 -1.3988
12333SOL     OW38439   5.245   2.515  11.777 -0.1766  0.0475  0.0871
12333SOL    HW138440   5.220   2.526  11.685 -0.1918  0.9806  0.1876
12333SOL    HW238441   5.163   2.499  11.823 -0.0705 -1.3716 -0.1726
12334SOL     OW38442   4.243   1.334   1.271  0.4185  0.1806 -0.0119
12334SOL    HW138443   4.321   1.295   1.309  0.9847 -1.4871 -2.5743
12334SOL    HW238444   4.171   1.305   1.327  1.3104 -1.1398  0.4952
12335SOL     OW38445   0.633   0.120   7.130 -0.2835  0.0851  0.4343
12335SOL    HW138446   0.540   0.114   7.152 -0.9568  0.2311 -2.0455
12335SOL    HW238447   0.635   0.172   7.050  1.6783 -1.9069 -0.9331
12336SOL     OW38448   5.174   0.363   5.744 -0.8240 -0.1892 -0.4143
12336SOL    HW138449   5.170   0.450   5.783 -1.4959 -0.5778  0.4047
12336SOL    HW238450   5.194   0.379   5.652  1.5200  0.7103  0.2000
12337SOL     OW38451   7.420   7.109   0.896  0.3472  0.2837 -0.4245
12337SOL    HW138452   7.375   7.161   0.962  0.1459  3.4978 -2.8802
12337SOL    HW238453   7.354   7.093   0.828  1.4434  0.2734 -1.5321
12338SOL     OW38454   3.955   1.677   8.469 -0.5154 -0.1949  0.2709
12338SOL    HW138455   3.986   1.740   8.403 -1.6271  0.0307 -0.0454
12338SOL    HW238456   4.000   1.704   8.549  0.4882 -0.1815 -0.2794
12339SOL     OW38457   3.746   1.664   3.961  0.2682  0.5810 -0.4519
12339SOL    HW138458   3.714   1.574   3.955  0.2781  0.3975  1.5688
12339SOL    HW238459   3.674   1.712   4.002  1.0137  1.0206  0.3882
12340SOL     OW38460   1.672   1.207   3.235  0.0222 -0.7629 -0.1942
12340SOL    HW138461   1.744   1.146   3.251  0.4074 -0.2566  0.0488
12340SOL    HW238462   1.681   1.273   3.304 -0.5791 -0.6058 -0.2612
12341SOL     OW38463   1.481   7.132   5.653  0.4155  0.0400 -0.4601
12341SOL    HW138464   1.469   7.047   5.611 -2.7357 -0.3367  0.8698
12341SOL    HW238465   1.427   7.127   5.732  0.6960  3.0371  0.0402
12342SOL     OW38466   5.742   7.910   6.026  0.0617 -0.1213 -0.8136
12342SOL    HW138467   5.671   7.925   6.090 -1.5802  0.0828 -2.5840
12342SOL    HW238468   5.707   7.843   5.967  1.5653 -0.3649 -1.4565
12343SOL     OW38469   2.788   0.321   7.541  0.1055 -0.6508  0.2378
12343SOL    HW138470   2.830   0.236   7.556  1.5248 -0.3239 -1.5431
12343SOL    HW238471   2.855   0.385   7.565 -0.8993 -0.0160  1.4137
12344SOL     OW38472   4.786   0.081   1.872  0.1567  0.3445 -0.5093
12344SOL    HW138473   4.778   0.175   1.858 -1.3044  0.4719  0.8431
12344SOL    HW238474   4.695   0.049   1.874  0.6277 -1.4596 -3.0128
12345SOL     OW38475   1.203   7.033  11.827  0.0621 -0.5825  0.6054
12345SOL    HW138476   1.172   7.092  11.758  0.8215 -1.0699 -0.1624
12345SOL    HW238477   1.140   6.961  11.827 -0.9780  0.2642  1.6705
12346SOL     OW38478   5.052   6.177   0.791  0.2737  0.0979 -0.2297
12346SOL    HW138479   4.975   6.186   0.847  2.2853  0.5978  2.6778
12346SOL    HW238480   5.120   6.228   0.834  2.6517 -1.4208 -1.8981
12347SOL     OW38481   0.163   2.106   8.102  0.3460  0.1798 -0.2320
12347SOL    HW138482   0.166   2.190   8.148  1.6806 -0.1653  0.3479
12347SOL    HW238483   0.254   2.084   8.084 -0.0670 -0.3990 -1.7907
12348SOL     OW38484   3.733   5.101  10.019  0.1221 -0.0184 -0.4103
12348SOL    HW138485   3.693   5.019   9.990 -0.2383  0.0033  0.0147
12348SOL    HW238486   3.785   5.076  10.095 -0.6804  0.2876  0.2479
12349SOL     OW38487   3.600   5.670   3.712 -0.4848 -0.0153  0.2770
12349SOL    HW138488   3.643   5.593   3.674 -1.2115 -0.7712  0.9351
12349SOL    HW238489   3.513   5.671   3.672 -1.1493 -0.6459  1.6252
12350SOL     OW38490   0.739   5.095   4.197  0.2310  0.1783  0.5468
12350SOL    HW138491   0.812   5.041   4.228  0.0159  0.5239  1.6829
12350SOL    HW238492   0.694   5.123   4.277  0.5422  2.3472  0.0311
12351SOL     OW38493   1.673   6.075   3.124 -0.2812  0.2343  0.0394
12351SOL    HW138494   1.608   6.008   3.104 -2.0923  1.0606  2.6189
12351SOL    HW238495   1.707   6.051   3.210  2.1353  0.4426 -0.7668
12352SOL     OW38496   7.499   6.652   0.536 -0.3283 -0.4686  0.2619
12352SOL    HW138497   7.569   6.587   0.541 -1.3583 -1.5828  0.8565
12352SOL    HW238498   7.490   6.685   0.626 -0.5956 -0.3660  0.1995
12353SOL     OW38499   3.049   4.921   8.156 -0.9401  1.0360 -0.2860
12353SOL    HW138500   3.131   4.967   8.138  0.0423  0.5238  2.4217
12353SOL    HW238501   2.990   4.948   8.085  1.6798  0.9890 -2.6631
12354SOL     OW38502   5.521   4.839   6.580 -0.0743 -0.0081 -0.0594
12354SOL    HW138503   5.432   4.861   6.607 -0.3520 -1.1773  0.0493
12354SOL    HW238504   5.510   4.789   6.499  0.4898 -0.1110 -0.0771
12355SOL     OW38505   3.328   3.582  11.439 -0.0909 -0.4390 -0.1030
12355SOL    HW138506   3.299   3.653  11.382  1.2199 -0.8842 -1.3901
12355SOL    HW238507   3.366   3.517  11.380  1.5210 -0.8307  1.2623
12356SOL     OW38508   4.861   5.460   7.559 -0.1510 -0.0098  0.2543
12356SOL    HW138509   4.887   5.426   7.473 -0.4646 -2.0929  0.9306
12356SOL    HW238510   4.937   5.509   7.589 -0.1101  0.9325 -1.2793
12357SOL     OW38511   0.699   6.674  12.201 -0.3489  0.2034 -0.5652
12357SOL    HW138512   0.643   6.700  12.128 -0.6696 -0.3621 -0.5225
12357SOL    HW238513   0.667   6.726  12.275 -0.6820  0.0345 -0.5908
12358SOL     OW38514   3.072   0.302   5.703  0.1020  0.1998 -0.7295
12358SOL    HW138515   3.082   0.367   5.773  1.5554 -1.1345  0.3833
12358SOL    HW238516   2.980   0.278   5.705 -0.1396  1.1229 -0.1363
12359SOL     OW38517   4.288   3.552   8.098  0.0118 -0.1235 -0.1616
12359SOL    HW138518   4.348   3.626   8.104  1.0855 -1.0182  0.5302
12359SOL    HW238519   4.305   3.514   8.012 -0.1815  0.1272 -0.3120
12360SOL     OW38520   7.684   4.049   4.438 -0.0576 -0.2931 -0.5401
12360SOL    HW138521   7.717   4.105   4.368  2.3815  0.3444  1.0223
12360SOL    HW238522   7.622   4.104   4.486  1.5447  0.7823  0.3608
12361SOL     OW38523   1.873   2.583  12.257 -0.1218  0.1852 -1.0889
12361SOL    HW138524   1.800   2.635  12.289 -0.7982 -1.3159 -0.1302
12361SOL    HW238525   1.864   2.586  12.161 -1.2973  0.1930 -0.9879
12362SOL     OW38526   3.806   2.658   5.582 -0.3998  0.0079  0.1597
12362SOL    HW138527   3.822   2.690   5.493 -0.4220  0.2374  0.2391
12362SOL    HW238528   3.718   2.687   5.603 -1.1597 -1.6958 -0.4709
12363SOL     OW38529   7.949   1.085   7.124  0.0834 -0.4666 -0.1855
12363SOL    HW138530   7.972   1.057   7.036 -0.5431 -0.6360 -0.2960
12363SOL    HW238531   7.873   1.031   7.148 -0.7713  0.7135 -0.1724
12364SOL     OW38532   5.428   3.017   3.827  0.2923 -0.8519 -0.3447
12364SOL    HW138533   5.513   3.008   3.783  0.1527 -0.4278 -0.7167
12364SOL    HW238534   5.369   2.961   3.776  0.2143 -0.6583 -0.4698
12365SOL     OW38535   5.670   4.377   3.470 -0.5504  0.3222 -0.1775
12365SOL    HW138536   5.704   4.448   3.525  1.0426  1.0627 -2.0223
12365SOL    HW238537   5.748   4.337   3.432 -1.5719  1.1317 -3.4465
12366SOL     OW38538   2.432   6.729   5.627  0.4370  0.2438 -0.2232
12366SOL    HW138539   2.414   6.646   5.669  0.4528 -0.6573 -1.8982
12366SOL    HW238540   2.484   6.706   5.549  1.1209  1.8913 -0.3129
12367SOL     OW38541   0.209   7.722   9.228  0.1996  0.2734 -0.0705
12367SOL    HW138542   0.206   7.777   9.306 -0.8171 -0.8040  0.6829
12367SOL    HW238543   0.298   7.733   9.194  0.2397  1.8124  0.4405
12368SOL     OW38544   6.124   5.130   1.183  0.3764 -0.1707  0.6697
12368SOL    HW138545   6.038   5.109   1.221 -0.4152  0.2629 -0.7873
12368SOL    HW238546   6.187   5.107   1.251 -0.9178 -0.2116  1.9018
12369SOL     OW38547   4.468   5.343   9.265 -0.5639  0.4196 -0.0581
12369SOL    HW138548   4.544   5.393   9.296 -0.0697  0.0805 -0.6841
12369SOL    HW238549   4.505   5.260   9.235 -1.2359  0.0992 -0.0242
12370SOL     OW38550   5.352   5.825  11.431 -0.1710 -0.2078 -0.2051
12370SOL    HW138551   5.305   5.745  11.410  1.4491 -0.7940 -1.9311
12370SOL    HW238552   5.426   5.797  11.485 -0.4983  0.3600  0.5463
12371SOL     OW38553   5.028   4.622   3.331  0.0845 -0.1006 -0.1827
12371SOL    HW138554   4.932   4.626   3.325  0.0922  0.6583  0.0643
12371SOL    HW238555   5.058   4.695   3.277  0.5546 -0.8596 -0.9506
12372SOL     OW38556   6.710   7.788   5.751  0.5740  0.7068 -0.1546
12372SOL    HW138557   6.757   7.863   5.714  1.7269  0.2727  0.3493
12372SOL    HW238558   6.681   7.819   5.837 -0.4118  1.0972 -0.6201
12373SOL     OW38559   0.912   2.165   1.129  0.3559 -0.5812 -0.0755
12373SOL    HW138560   0.936   2.089   1.075  1.2908  0.4067 -1.1349
12373SOL    HW238561   0.825   2.190   1.098  0.7584 -0.2090 -0.9671
12374SOL     OW38562   4.557   5.678  10.841  0.7476 -1.0108 -0.1064
12374SOL    HW138563   4.618   5.686  10.768 -0.3176  0.3004 -0.8947
12374SOL    HW238564   4.498   5.752  10.831 -2.1931 -3.2127 -0.4954
12375SOL     OW38565   4.954   1.585  10.458 -0.8297  0.1797 -0.1606
12375SOL    HW138566   4.987   1.549  10.540 -0.3406 -2.1412 -1.2772
12375SOL    HW238567   5.026   1.640  10.426 -0.7141  0.4640  0.5743
12376SOL     OW38568   4.604   1.086   9.669  0.8748 -0.4183 -0.5102
12376SOL    HW138569   4.641   1.175   9.661  1.5152 -0.6827 -0.5828
12376SOL    HW238570   4.665   1.041   9.726 -0.1403 -0.4531  0.5687
12377SOL     OW38571   6.112   4.398   3.497 -0.2155 -0.2561 -0.4028
12377SOL    HW138572   6.049   4.331   3.469  0.1788 -0.8591  0.1512
12377SOL    HW238573   6.197   4.354   3.494 -0.0999 -0.2119  1.2801
12378SOL     OW38574   1.416   2.267  10.486  0.5661  0.0950  0.0032
12378SOL    HW138575   1.463   2.313  10.555  0.5878  0.2278 -0.1004
12378SOL    HW238576   1.331   2.246  10.524  0.4295  0.5235 -0.0698
12379SOL     OW38577   1.031   1.111   9.615 -0.4280  0.1092  0.2411
12379SOL    HW138578   1.018   1.123   9.521 -0.8261 -2.0033 -0.0351
12379SOL    HW238579   1.002   1.193   9.655 -0.1445  1.0812 -1.4654
12380SOL     OW38580   1.703   2.159   1.237 -0.5066 -0.1653  0.7256
12380SOL    HW138581   1.617   2.186   1.271 -0.8499 -0.6958  0.3033
12380SOL    HW238582   1.686   2.137   1.146 -0.0117 -0.7268  0.7657
12381SOL     OW38583   7.614   3.208  11.356 -0.6040 -0.0659 -0.6171
12381SOL    HW138584   7.579   3.129  11.398  1.8579 -0.5059  0.7766
12381SOL    HW238585   7.596   3.278  11.418  2.2745 -0.5784  0.9892
12382SOL     OW38586   7.525   6.965   5.429 -0.1980  0.1225  0.1513
12382SOL    HW138587   7.585   7.015   5.372  0.8783 -0.6438  0.5957
12382SOL    HW238588   7.442   7.013   5.423  0.0972  0.5162 -1.4453
12383SOL     OW38589   2.853   0.257   3.900  0.2150 -0.1203 -0.2914
12383SOL    HW138590   2.911   0.321   3.859 -0.5070 -0.1689 -1.4169
12383SOL    HW238591   2.832   0.196   3.830  0.3899 -1.2485  0.6081
12384SOL     OW38592   3.697   0.117   3.166 -0.1567 -0.4803  0.3689
12384SOL    HW138593   3.651   0.167   3.232  1.0043  0.0891  0.7613
12384SOL    HW238594   3.721   0.181   3.099 -3.9988 -1.4425 -2.3046
12385SOL     OW38595   6.741   3.201  10.687  0.2186 -0.0899 -0.0104
12385SOL    HW138596   6.734   3.256  10.765 -0.8496 -2.1874  1.4769
12385SOL    HW238597   6.673   3.235  10.628  0.5201  1.0354  0.2569
12386SOL     OW38598   3.157   1.370   8.922 -0.2283  0.0816 -0.3039
12386SOL    HW138599   3.149   1.456   8.962 -1.5036  0.6220 -1.5970
12386SOL    HW238600   3.067   1.338   8.916  0.1972 -1.1907 -0.1598
12387SOL     OW38601   6.527   3.919  11.184  0.1604 -0.1930  0.3483
12387SOL    HW138602   6.439   3.943  11.158  0.0416 -0.3086  0.6417
12387SOL    HW238603   6.538   3.829  11.154  0.0277 -0.3220  0.6773
12388SOL     OW38604   6.888   5.267   0.358  0.3497 -0.3849 -0.3413
12388SOL    HW138605   6.898   5.263   0.453 -2.5869  0.0616  0.0897
12388SOL    HW238606   6.913   5.356   0.334 -0.8749  0.1770  0.3701
12389SOL     OW38607   5.358   2.302   1.276  0.7746  0.7149 -0.4473
12389SOL    HW138608   5.344   2.254   1.194  0.7303 -0.5128  0.2487
12389SOL    HW238609   5.325   2.243   1.344 -0.7197  2.3927  0.3388
12390SOL     OW38610   2.104   2.343   2.151  0.1037  0.6201  0.0744
12390SOL    HW138611   2.084   2.255   2.182  1.2816  0.2933 -0.0359
12390SOL    HW238612   2.055   2.352   2.069 -1.2519  0.6638  0.8604
12391SOL     OW38613   5.172   1.753  11.026 -0.4233  0.4942  0.3804
12391SOL    HW138614   5.181   1.832  11.079  1.5959  0.5469  0.0288
12391SOL    HW238615   5.200   1.682  11.084 -1.7201  0.0713  0.5229
12392SOL     OW38616   3.739   5.173   0.195  0.2163 -0.0726 -0.3656
12392SOL    HW138617   3.819   5.212   0.161  0.6775 -0.5691  0.1357
12392SOL    HW238618   3.732   5.089   0.150  1.4325 -1.2519  1.5186
12393SOL     OW38619   4.055   1.043   4.198  0.1057  0.0983 -0.2939
12393SOL    HW138620   4.140   1.032   4.155  0.2776  1.6999 -0.4279
12393SOL    HW238621   4.007   1.104   4.142  0.1788  1.9172  1.4736
12394SOL     OW38622   2.406   3.854  12.179  0.5845 -0.9165 -0.2332
12394SOL    HW138623   2.445   3.788  12.122 -0.6264 -0.4892 -1.6317
12394SOL    HW238624   2.324   3.878  12.135  1.2989  2.0452 -0.2005
12395SOL     OW38625   2.266   1.780   7.652 -0.0308  0.6090  0.7088
12395SOL    HW138626   2.286   1.818   7.566 -0.0864 -0.2586  0.3030
12395SOL    HW238627   2.188   1.828   7.681 -0.6566  0.1727 -0.2172
12396SOL     OW38628   5.225   6.447   3.905  0.1611 -0.8938 -0.0575
12396SOL    HW138629   5.158   6.469   3.970 -0.6483 -1.3256 -0.7314
12396SOL    HW238630   5.232   6.524   3.849  1.1710 -0.3517  0.7692
12397SOL     OW38631   5.783   1.792  10.665 -0.2936  0.7539  0.5545
12397SOL    HW138632   5.857   1.847  10.693  0.5217 -0.6221  1.1849
12397SOL    HW238633   5.771   1.731  10.737 -0.4870 -0.5858 -0.5821
12398SOL     OW38634   4.668   2.666   3.116  0.0200  0.3577  0.0040
12398SOL    HW138635   4.624   2.719   3.182  1.2467  1.3233  0.0781
12398SOL    HW238636   4.761   2.677   3.134  0.3304 -1.6527 -0.1225
12399SOL     OW38637   0.828   7.386  11.355  0.8248  0.7382 -0.6478
12399SOL    HW138638   0.911   7.424  11.327  1.7175 -1.0233 -0.5563
12399SOL    HW238639   0.797   7.337  11.279 -0.4565  1.8467 -0.8722
12400SOL     OW38640   1.726   7.205   1.754  1.2026 -0.6227  0.2549
12400SOL    HW138641   1.751   7.166   1.671  0.0838  0.3557 -0.5731
12400SOL    HW238642   1.755   7.296   1.748 -1.8886  0.4396 -0.5551
12401SOL     OW38643   2.652   4.785   1.873 -0.1325  0.2678 -0.2893
12401SOL    HW138644   2.597   4.842   1.818 -1.3375 -0.5193  0.0715
12401SOL    HW238645   2.590   4.725   1.915  0.9139 -0.0358  0.8704
12402SOL     OW38646   0.785   6.193   1.374  0.0477 -0.0802  0.0606
12402SOL    HW138647   0.724   6.243   1.319 -0.6058 -0.4458  0.4454
12402SOL    HW238648   0.743   6.188   1.459  0.9085  0.2019  0.5198
12403SOL     OW38649   4.125   4.808   2.504 -0.7968  0.0842  0.2389
12403SOL    HW138650   4.138   4.902   2.493  0.6129 -0.0110  0.9351
12403SOL    HW238651   4.197   4.767   2.456 -0.3895 -0.5741  1.3594
12404SOL     OW38652   2.850   2.914   6.149 -0.2568 -0.5014 -0.1218
12404SOL    HW138653   2.759   2.942   6.159 -0.3667 -0.6013 -0.7985
12404SOL    HW238654   2.882   2.905   6.239 -0.5927  0.5601  0.1105
12405SOL     OW38655   7.768   1.154   8.304  0.5245  0.0147  0.1616
12405SOL    HW138656   7.684   1.110   8.289 -0.0725  1.1367  0.0590
12405SOL    HW238657   7.820   1.091   8.354  0.2265 -1.3348 -1.1364
12406SOL     OW38658   5.619   1.124   4.429  0.2949 -0.1941  0.0495
12406SOL    HW138659   5.689   1.135   4.365 -1.4711  1.8289 -1.7217
12406SOL    HW238660   5.580   1.212   4.437 -0.4128 -0.6710  2.9445
12407SOL     OW38661   3.385   3.613   4.586  0.1427 -0.0538 -0.4757
12407SOL    HW138662   3.380   3.586   4.677  0.6897  3.5222  0.7785
12407SOL    HW238663   3.294   3.628   4.560  0.0910  1.2336  0.3531
12408SOL     OW38664   7.941   3.610  10.912 -0.0738  0.0522  0.2119
12408SOL    HW138665   7.885   3.550  10.862  1.2170 -1.4119  0.4193
12408SOL    HW238666   7.982   3.554  10.978  1.6064  1.0404  0.0612
12409SOL     OW38667   4.354   6.003   2.476 -0.0900 -0.1320  0.1866
12409SOL    HW138668   4.342   5.962   2.390  1.2186 -1.3882  0.5560
12409SOL    HW238669   4.295   5.954   2.534  1.4943 -1.5920  0.6341
12410SOL     OW38670   4.012   4.976   6.225 -0.4199  0.1983  0.3591
12410SOL    HW138671   4.056   4.891   6.223  0.6974  0.6940  1.6448
12410SOL    HW238672   3.963   4.980   6.144  2.1204 -0.3087 -1.3243
12411SOL     OW38673   2.170   6.924  11.456  0.5457  0.3233  0.3028
12411SOL    HW138674   2.102   6.988  11.479 -0.4845 -0.4224 -0.5759
12411SOL    HW238675   2.246   6.950  11.508 -0.9460  0.1116  2.6960
12412SOL     OW38676   3.340   2.995   8.814  0.1890  0.2236  0.1027
12412SOL    HW138677   3.309   3.085   8.813  0.8920  0.4719  0.1263
12412SOL    HW238678   3.363   2.977   8.905  0.0757  0.0316  0.0950
12413SOL     OW38679   3.383   4.938   2.358  0.6689 -0.4175  0.3358
12413SOL    HW138680   3.476   4.933   2.336  0.6312 -1.9676  0.4051
12413SOL    HW238681   3.358   5.028   2.338  1.8552 -0.3607 -1.0151
12414SOL     OW38682   5.340   5.792   0.239 -0.3883 -0.0495  0.0353
12414SOL    HW138683   5.259   5.842   0.248 -0.2470  0.7799 -2.5509
12414SOL    HW238684   5.406   5.844   0.284 -0.6637  1.0278 -0.7732
12415SOL     OW38685   0.177   4.441  11.638 -0.2677 -1.4097 -0.4092
12415SOL    HW138686   0.139   4.464  11.553 -0.5352 -0.7789 -0.1200
12415SOL    HW238687   0.253   4.387  11.616  1.1799  0.8132 -1.1584
12416SOL     OW38688   4.537   5.760   4.829 -0.3615  0.3694 -0.3530
12416SOL    HW138689   4.574   5.789   4.746  0.4501 -0.2905 -0.2333
12416SOL    HW238690   4.463   5.820   4.845 -0.0758  0.9548 -1.1807
12417SOL     OW38691   2.692   1.793  12.329 -0.0306  0.4214  0.1079
12417SOL    HW138692   2.665   1.710  12.290 -0.3779  1.5106 -2.1567
12417SOL    HW238693   2.610   1.833  12.358 -0.1827  0.9907 -1.0352
12418SOL     OW38694   4.061   5.245  11.956 -0.2289  0.7238 -0.2391
12418SOL    HW138695   4.033   5.275  12.042  0.6698  2.6759 -0.5588
12418SOL    HW238696   4.154   5.266  11.953  0.0762 -0.6546 -1.1650
12419SOL     OW38697   2.387   0.194   6.757  0.3540  0.0224 -0.0090
12419SOL    HW138698   2.383   0.218   6.664 -0.5366  0.6717  0.1732
12419SOL    HW238699   2.334   0.115   6.764 -0.1299  0.3445  0.0406
12420SOL     OW38700   3.549   6.036  11.081 -0.2801  0.3301  0.2769
12420SOL    HW138701   3.457   6.014  11.063  0.2694 -1.7331 -0.3046
12420SOL    HW238702   3.545   6.116  11.133 -2.4452 -0.0570  0.8118
12421SOL     OW38703   4.347   2.931   9.662  0.3578  0.1719 -0.5216
12421SOL    HW138704   4.286   2.962   9.595 -1.8865 -1.7820  0.4869
12421SOL    HW238705   4.315   2.971   9.743  1.1184 -0.0173 -0.1201
12422SOL     OW38706   5.107   2.884  12.274  0.1908  0.1445  0.1121
12422SOL    HW138707   5.117   2.793  12.302  1.5137  0.2509  0.0304
12422SOL    HW238708   5.164   2.892  12.198 -1.4927  0.5111 -1.1646
12423SOL     OW38709   0.904   6.438   3.040 -0.6580  0.3675 -0.2910
12423SOL    HW138710   0.928   6.411   2.952  0.1536 -0.1450  0.0688
12423SOL    HW238711   0.934   6.366   3.096 -1.7958  0.3534  0.3359
12424SOL     OW38712   3.819   5.075   1.476 -0.2334 -0.3582 -0.0213
12424SOL    HW138713   3.756   5.014   1.440 -0.6446  0.4493 -0.7079
12424SOL    HW238714   3.871   5.104   1.401 -1.8414  2.2089 -0.2564
12425SOL     OW38715   4.125   6.605   4.399  0.3414 -0.2502 -0.3061
12425SOL    HW138716   4.041   6.609   4.354  0.5685 -0.4234 -0.7465
12425SOL    HW238717   4.181   6.666   4.351  0.2787  0.3679  0.3897
12426SOL     OW38718   6.899   7.217  11.412  0.4141  0.0385  0.7837
12426SOL    HW138719   6.876   7.134  11.454 -2.2349  1.5011  2.5270
12426SOL    HW238720   6.831   7.230  11.346 -0.2000  1.5112  1.6473
12427SOL     OW38721   0.167   5.681  11.741 -0.2119 -0.1294  0.5249
12427SOL    HW138722   0.112   5.605  11.724 -0.4212  0.2796 -0.7649
12427SOL    HW238723   0.227   5.652  11.810 -0.4916 -1.3528  0.2853
12428SOL     OW38724   5.479   7.590   9.432  0.2083 -0.0433 -0.2827
12428SOL    HW138725   5.544   7.612   9.499 -1.6625 -0.7123  1.8840
12428SOL    HW238726   5.523   7.528   9.375  1.3381 -0.9135  1.4380
12429SOL     OW38727   2.439   0.963   4.651  0.0054 -0.4973 -0.5557
12429SOL    HW138728   2.422   0.919   4.735  1.2759  0.8713  0.4856
12429SOL    HW238729   2.439   0.892   4.587 -2.7582 -1.3721  0.2831
12430SOL     OW38730   7.731   4.889   4.163  0.6635  0.0995  0.3500
12430SOL    HW138731   7.761   4.829   4.231  1.2769 -0.8281 -0.7198
12430SOL    HW238732   7.642   4.860   4.142  0.0183  1.1081  1.5373
12431SOL     OW38733   6.621   1.198   7.311  0.3681  0.2206 -0.6270
12431SOL    HW138734   6.561   1.253   7.260  0.3321 -0.5241 -1.4267
12431SOL    HW238735   6.708   1.233   7.292  0.2735  0.6158 -0.3419
12432SOL     OW38736   4.800   2.733   3.998 -0.4289  0.1207  0.1956
12432SOL    HW138737   4.866   2.786   3.954 -0.2793  0.9285  1.3436
12432SOL    HW238738   4.752   2.691   3.927  0.1210  0.9777 -0.7169
12433SOL     OW38739   2.244   7.319   5.815 -0.7538 -0.3456 -0.4920
12433SOL    HW138740   2.290   7.377   5.754  1.4845 -1.2109  0.2529
12433SOL    HW238741   2.158   7.305   5.776 -1.3672  3.3086 -0.7598
12434SOL     OW38742   7.819   1.436   7.532  0.2509  0.0464 -0.5234
12434SOL    HW138743   7.884   1.421   7.600  1.8814 -0.2749 -2.0825
12434SOL    HW238744   7.774   1.516   7.560  0.5142 -0.3431  1.1627
12435SOL     OW38745   7.946   7.025   0.255  0.2230 -0.2495 -0.1894
12435SOL    HW138746   7.975   6.981   0.335  2.0640  1.0253 -0.1051
12435SOL    HW238747   7.856   6.995   0.243  0.3988 -1.6303  1.5224
12436SOL     OW38748   4.378   5.058   4.885 -0.1478  0.4910  0.0540
12436SOL    HW138749   4.420   5.141   4.907 -0.1531  0.1648  1.4102
12436SOL    HW238750   4.411   5.036   4.798  1.8773  0.6338  0.7376
12437SOL     OW38751   5.336   3.291  11.961 -0.1952  0.3914 -0.2664
12437SOL    HW138752   5.290   3.214  11.928 -0.0996  1.0495 -2.1016
12437SOL    HW238753   5.428   3.276  11.938 -0.0639  0.7027  0.0420
12438SOL     OW38754   0.630   1.258   9.623  0.8308 -0.3962  0.4563
12438SOL    HW138755   0.575   1.336   9.613 -0.6512 -1.3527  0.7876
12438SOL    HW238756   0.679   1.273   9.704  0.5795  0.2054  0.5029
12439SOL     OW38757   0.335   1.040   1.045 -0.1641  0.2708 -0.0108
12439SOL    HW138758   0.242   1.027   1.029 -0.1139  0.9660 -0.8987
12439SOL    HW238759   0.341   1.127   1.084  0.1528  0.3913 -0.3242
12440SOL     OW38760   6.008   3.542  10.719  0.0908  0.5671 -0.1021
12440SOL    HW138761   5.945   3.614  10.712  1.9696  2.1302 -2.3095
12440SOL    HW238762   5.963   3.467  10.679 -1.8650  0.4188  2.1485
12441SOL     OW38763   3.163   5.343   9.856 -0.3751 -0.0606  0.2066
12441SOL    HW138764   3.093   5.306   9.804 -0.5995  0.5256  0.0903
12441SOL    HW238765   3.236   5.355   9.795 -0.2629 -0.4032  0.2680
12442SOL     OW38766   4.646   6.604   5.841 -0.8339  0.2235  0.1542
12442SOL    HW138767   4.675   6.521   5.803  0.3349  1.0823 -0.9485
12442SOL    HW238768   4.577   6.634   5.781 -0.4457  0.5860 -0.1163
12443SOL     OW38769   5.131   4.111  10.016 -0.5372  0.3256  0.2274
12443SOL    HW138770   5.206   4.052  10.009 -0.2500  0.7806 -0.7132
12443SOL    HW238771   5.055   4.053  10.023 -0.1048 -0.1361  1.1581
12444SOL     OW38772   5.989   1.233   7.093 -0.1793 -0.0750 -0.3380
12444SOL    HW138773   5.900   1.258   7.068 -0.5029  0.0053  0.8392
12444SOL    HW238774   6.006   1.152   7.045 -0.4743  0.4778 -1.3992
12445SOL     OW38775   6.829   6.689   9.825  0.1256 -0.0970 -0.2192
12445SOL    HW138776   6.743   6.653   9.804  0.0452  0.3314 -0.6268
12445SOL    HW238777   6.848   6.654   9.912 -0.5986  0.0590  0.0084
12446SOL     OW38778   4.242   2.599   0.665 -0.2980 -0.1711 -0.6201
12446SOL    HW138779   4.313   2.612   0.602 -0.9831  1.0400 -1.1882
12446SOL    HW238780   4.182   2.539   0.622 -0.9075  0.8780 -1.2807
12447SOL     OW38781   5.392   5.617  10.831 -0.0741  0.3842 -0.1816
12447SOL    HW138782   5.323   5.554  10.853  0.2787  0.3338  0.8344
12447SOL    HW238783   5.356   5.702  10.856 -0.0505  0.4459 -0.3517
12448SOL     OW38784   7.106   3.280   0.974  0.6534 -0.3017  0.2492
12448SOL    HW138785   7.187   3.325   0.999 -0.1281  0.6404  1.1578
12448SOL    HW238786   7.078   3.323   0.893  1.1458 -0.7530 -0.1675
12449SOL     OW38787   6.095   2.849   5.879 -0.0546 -0.0288  0.2784
12449SOL    HW138788   6.044   2.871   5.957 -1.9320 -0.9096 -0.6607
12449SOL    HW238789   6.042   2.879   5.806  0.7247 -1.0756 -0.7459
12450SOL     OW38790   4.299   7.928   3.037 -0.1340 -0.2816 -0.1120
12450SOL    HW138791   4.392   7.909   3.028  0.1722  0.7628  0.6677
12450SOL    HW238792   4.291   8.019   3.007 -1.0093 -0.5573 -0.7480
12451SOL     OW38793   0.699   5.748   8.283 -0.3020  0.2171  0.3294
12451SOL    HW138794   0.688   5.710   8.370 -0.4439  0.0753  0.2503
12451SOL    HW238795   0.646   5.692   8.226 -1.7576  1.4230  0.4389
12452SOL     OW38796   7.972   6.680  10.584 -0.3618 -0.1451  0.1581
12452SOL    HW138797   7.973   6.625  10.662  1.3804  0.7974  0.8614
12452SOL    HW238798   7.912   6.636  10.524  0.7735 -2.6982  0.7600
12453SOL     OW38799   4.412   6.786   7.746 -0.5165 -0.1639  0.1049
12453SOL    HW138800   4.319   6.777   7.725 -0.4989 -0.5099  0.1720
12453SOL    HW238801   4.454   6.713   7.702 -0.3056 -0.1390  0.2615
12454SOL     OW38802   6.330   7.393  10.883  0.0344 -0.1573  0.1215
12454SOL    HW138803   6.236   7.371  10.883 -0.0065  0.0187  0.0642
12454SOL    HW238804   6.348   7.423  10.794 -0.1862  1.2174  0.5177
12455SOL     OW38805   4.949   1.461   2.615 -0.0585 -0.6122 -0.5716
12455SOL    HW138806   4.961   1.370   2.589 -0.5739 -1.2824  1.3221
12455SOL    HW238807   4.855   1.469   2.632  0.1741 -0.1268  0.5866
12456SOL     OW38808   7.188   2.055   6.244 -0.2032  0.2573  0.3324
12456SOL    HW138809   7.267   2.045   6.296 -0.8558 -0.7239  1.1904
12456SOL    HW238810   7.177   2.149   6.234  0.9862  0.4019  0.3222
12457SOL     OW38811   2.125   5.517   3.332  0.0533 -0.4590 -0.6230
12457SOL    HW138812   2.140   5.594   3.278  0.1019 -1.0790 -1.5068
12457SOL    HW238813   2.164   5.539   3.417  1.9186 -0.2846 -1.4798
12458SOL     OW38814   5.482   3.975  11.578  0.0165 -0.5886  0.1127
12458SOL    HW138815   5.521   3.902  11.530  2.4824  1.2432 -0.8279
12458SOL    HW238816   5.388   3.964  11.565  0.4572 -1.6429 -2.9929
12459SOL     OW38817   0.128   6.656   0.244 -0.2001  0.7986 -0.3133
12459SOL    HW138818   0.141   6.637   0.151 -1.1502 -0.8169 -0.1474
12459SOL    HW238819   0.211   6.631   0.285 -0.3640 -0.1295 -0.5208
12460SOL     OW38820   2.170   3.320   8.006 -0.1640 -0.1955  0.8788
12460SOL    HW138821   2.255   3.300   7.966  0.0816 -1.2288  1.8359
12460SOL    HW238822   2.183   3.406   8.047  0.3699 -0.2592  0.8603
12461SOL     OW38823   2.625   2.725   1.917 -0.0802 -0.3744  0.6501
12461SOL    HW138824   2.681   2.663   1.871  0.7806 -2.3966  4.0523
12461SOL    HW238825   2.555   2.672   1.954 -0.6128  1.0644  1.7966
12462SOL     OW38826   1.311   5.780   7.491 -0.4566  0.0668 -0.3782
12462SOL    HW138827   1.228   5.790   7.539 -1.1252  2.3472 -1.8844
12462SOL    HW238828   1.374   5.757   7.559 -1.6509  1.6800  1.3996
12463SOL     OW38829   1.479   1.040  11.787  0.1482  0.1163  0.6944
12463SOL    HW138830   1.551   1.102  11.801  0.1289 -0.0271  1.4451
12463SOL    HW238831   1.459   1.005  11.874 -1.1632  0.5172  0.5783
12464SOL     OW38832   2.491   4.490   5.345 -0.4692 -0.0043  0.4400
12464SOL    HW138833   2.417   4.547   5.367 -0.0925  0.7056 -0.0957
12464SOL    HW238834   2.464   4.446   5.265 -1.0925 -1.2112  1.2917
12465SOL     OW38835   5.020   2.023  11.999  0.4339 -0.8205  0.0346
12465SOL    HW138836   5.037   2.077  11.922  0.4960 -2.2144 -0.9744
12465SOL    HW238837   5.023   2.084  12.072 -1.2141  0.8426 -1.1929
12466SOL     OW38838   0.157   2.463   3.238 -0.0025  0.1269  0.4947
12466SOL    HW138839   0.247   2.471   3.206  0.8771 -0.8345  2.6023
12466SOL    HW238840   0.141   2.545   3.285 -0.1664  0.2013  0.3130
12467SOL     OW38841   3.109   3.197   7.751  0.4728  0.4027  0.3289
12467SOL    HW138842   3.043   3.132   7.729  1.0308 -0.7894  1.9879
12467SOL    HW238843   3.063   3.281   7.750 -1.2329 -0.4537  2.0321
12468SOL     OW38844   6.370   7.838   2.990  0.2954  0.8337  0.9653
12468SOL    HW138845   6.396   7.748   2.970  1.8936  1.3581  0.4898
12468SOL    HW238846   6.283   7.848   2.951  0.7271 -0.0643 -0.2998
12469SOL     OW38847   0.531   0.487   1.427  0.2446  0.2855 -0.0000
12469SOL    HW138848   0.498   0.469   1.339 -1.5507 -0.7921  0.8338
12469SOL    HW238849   0.457   0.530   1.472  0.4657 -0.8467  1.5072
12470SOL     OW38850   5.145   7.328   6.829  0.2077  0.0423  0.5049
12470SOL    HW138851   5.073   7.332   6.892  2.3397 -1.1002  3.1968
12470SOL    HW238852   5.213   7.384   6.867  1.4861 -0.4934 -0.9292
12471SOL     OW38853   1.808   2.748  11.566  0.8039  0.3254  0.1659
12471SOL    HW138854   1.896   2.786  11.563  1.3242 -0.5253  2.4355
12471SOL    HW238855   1.765   2.796  11.637 -0.5637  0.6624 -0.8648
12472SOL     OW38856   2.880   4.558   5.652 -0.3147  0.0792  0.4912
12472SOL    HW138857   2.968   4.568   5.615 -0.7128  0.1297 -0.4813
12472SOL    HW238858   2.822   4.570   5.577 -1.2068  1.3661  1.3620
12473SOL     OW38859   7.963   1.779   9.677  0.3109 -0.6408  0.3741
12473SOL    HW138860   7.905   1.705   9.664  0.2306 -0.3884 -0.8227
12473SOL    HW238861   7.957   1.829   9.596 -1.3746  1.9106  1.9281
12474SOL     OW38862   6.417   4.418   8.012 -0.4912 -0.0687 -0.2091
12474SOL    HW138863   6.442   4.326   8.023 -1.4031 -0.2578  0.3756
12474SOL    HW238864   6.479   4.452   7.947 -1.7604 -1.7953 -2.5124
12475SOL     OW38865   2.223   4.209   3.874 -0.0216  0.1861 -0.3668
12475SOL    HW138866   2.261   4.189   3.959 -0.2089 -2.3852 -0.7921
12475SOL    HW238867   2.299   4.228   3.818  0.3753 -1.0723 -0.2944
12476SOL     OW38868   4.420   6.540   2.277 -0.2091  0.2695 -0.2614
12476SOL    HW138869   4.423   6.450   2.311 -0.8850  0.3755  0.0903
12476SOL    HW238870   4.337   6.575   2.309  0.3672  1.2592  0.2118
12477SOL     OW38871   2.048   3.073   3.920 -0.3934  0.3909 -0.2534
12477SOL    HW138872   2.069   3.069   3.827 -1.2894 -0.2727 -0.4401
12477SOL    HW238873   2.133   3.075   3.964  0.0379  0.2442 -1.0653
12478SOL     OW38874   3.963   4.032   7.120  0.9164  0.2878 -0.7999
12478SOL    HW138875   3.974   4.079   7.037  2.4728 -0.2931 -0.9441
12478SOL    HW238876   3.945   3.942   7.094 -2.8162  0.7732 -0.5463
12479SOL     OW38877   1.300   0.025   0.552 -0.0523  0.1833 -0.8428
12479SOL    HW138878   1.374   0.071   0.591  0.5740  0.2404 -2.0591
12479SOL    HW238879   1.329  -0.066   0.544 -0.8512 -0.2160  0.4610
12480SOL     OW38880   5.566   7.875   2.252 -0.2321 -0.1483 -0.3358
12480SOL    HW138881   5.562   7.925   2.170 -0.0390 -0.1267 -0.3305
12480SOL    HW238882   5.632   7.920   2.304 -0.5334 -0.0091 -0.0681
12481SOL     OW38883   6.273   7.978   0.824 -0.1990 -0.1516  0.1138
12481SOL    HW138884   6.297   8.054   0.876 -0.8256  1.0874 -1.3329
12481SOL    HW238885   6.317   7.992   0.739 -0.7509 -1.1407 -0.3595
12482SOL     OW38886   3.714   1.198   9.683 -0.0547  0.5690  0.3943
12482SOL    HW138887   3.671   1.113   9.669  0.4652  0.2564  0.6743
12482SOL    HW238888   3.681   1.253   9.612 -0.0710  0.0104 -0.0394
12483SOL     OW38889   2.563   4.909   2.466 -0.3098 -0.0600  0.1649
12483SOL    HW138890   2.551   5.004   2.458  2.5732  0.3970  0.4142
12483SOL    HW238891   2.601   4.897   2.553 -3.0766 -1.8171  1.2652
12484SOL     OW38892   2.006   5.022   2.105  0.7053 -0.0001 -0.4618
12484SOL    HW138893   2.012   5.020   2.010 -1.3652  0.2201 -0.6445
12484SOL    HW238894   1.917   4.994   2.124  1.0699 -0.0099  1.4225
12485SOL     OW38895   5.723   0.334   7.062  0.8695 -0.7753 -0.1221
12485SOL    HW138896   5.656   0.266   7.049 -0.5746  0.9780 -3.0228
12485SOL    HW238897   5.800   0.300   7.017  0.9000 -1.4113  0.3885
12486SOL     OW38898   4.376   6.274   9.456 -0.4561  0.6006 -0.6501
12486SOL    HW138899   4.456   6.325   9.442  0.4550 -0.4656  0.4568
12486SOL    HW238900   4.407   6.188   9.483 -1.9955  0.3855  0.5344
12487SOL     OW38901   5.272   5.367   7.538 -0.1247 -0.6325  0.3024
12487SOL    HW138902   5.236   5.282   7.512  0.6358 -0.9893  0.3823
12487SOL    HW238903   5.232   5.430   7.477 -0.5324 -1.0744  0.1100
12488SOL     OW38904   0.717   0.090   3.221  0.8245 -0.4961 -0.1238
12488SOL    HW138905   0.802   0.057   3.248  1.9359  1.9084 -0.3880
12488SOL    HW238906   0.736   0.176   3.183 -1.6102 -0.3447 -1.1591
12489SOL     OW38907   5.510   1.284  10.552 -0.1746  0.2325 -0.3127
12489SOL    HW138908   5.492   1.314  10.463 -2.0134 -0.3446 -0.1770
12489SOL    HW238909   5.486   1.191  10.552  2.7125 -0.6262  0.0229
12490SOL     OW38910   3.157   5.060   7.446 -0.6091  0.0232  0.5420
12490SOL    HW138911   3.199   4.992   7.393 -0.2646  0.0472  0.7808
12490SOL    HW238912   3.114   5.117   7.381 -0.1531  0.0761  0.2814
12491SOL     OW38913   1.662   0.775   9.683 -0.3385 -0.0157 -0.0433
12491SOL    HW138914   1.604   0.733   9.747  0.2736 -2.4220 -0.9815
12491SOL    HW238915   1.728   0.709   9.663  2.7938  2.5684  0.9193
12492SOL     OW38916   5.867   0.759   8.927 -0.6617 -0.2044  0.3470
12492SOL    HW138917   5.880   0.780   8.835  0.1526  1.4087  0.7892
12492SOL    HW238918   5.881   0.842   8.973  3.4122 -1.7165  2.3475
12493SOL     OW38919   2.216   6.116   0.028  0.0035  0.0555 -0.0420
12493SOL    HW138920   2.223   6.021   0.020  1.8660  0.1998 -0.8330
12493SOL    HW238921   2.261   6.137   0.109  1.0102  0.3499 -0.6499
12494SOL     OW38922   0.591   3.138   5.265  0.1176 -0.0269 -0.2256
12494SOL    HW138923   0.595   3.047   5.235 -0.7040  0.3614 -1.5375
12494SOL    HW238924   0.537   3.134   5.344 -0.0799 -0.6389 -0.3817
12495SOL     OW38925   1.192   0.091   6.905  0.2596  0.4816 -0.3032
12495SOL    HW138926   1.260   0.027   6.885  0.4621  0.4627  0.4155
12495SOL    HW238927   1.218   0.170   6.859  0.5676  0.3559 -0.3457
12496SOL     OW38928   1.670   7.173   8.906  0.4515  0.3976 -0.0155
12496SOL    HW138929   1.677   7.079   8.922 -0.8878  0.3360  0.3928
12496SOL    HW238930   1.659   7.212   8.993 -1.2411  0.6662 -0.3019
12497SOL     OW38931   0.987   6.522  11.246 -0.0847 -0.2131  0.1906
12497SOL    HW138932   0.928   6.469  11.191  0.7275  0.1805 -1.0958
12497SOL    HW238933   0.944   6.607  11.251  0.6922  0.3191 -1.4007
12498SOL     OW38934   3.116   0.588   6.666  0.0192 -0.5753  0.2351
12498SOL    HW138935   3.176   0.656   6.633  0.1054 -0.9201 -0.3256
12498SOL    HW238936   3.063   0.564   6.590  0.5910 -1.7687  0.1897
12499SOL     OW38937   2.532   3.885  10.440 -0.2472 -0.0186  0.5387
12499SOL    HW138938   2.553   3.882  10.534 -0.8784  0.5611  0.7096
12499SOL    HW238939   2.594   3.824  10.400  0.9177  0.6895  1.1717
12500SOL     OW38940   7.850   1.053   3.669 -0.1710 -0.3467 -0.3464
12500SOL    HW138941   7.775   1.075   3.613 -0.3409  0.0407  0.0188
12500SOL    HW238942   7.922   1.037   3.609 -0.5368 -0.6792 -0.7044
12501SOL     OW38943   7.706   2.128   4.045 -0.1665 -0.1662 -0.2300
12501SOL    HW138944   7.613   2.131   4.067 -0.2893  0.0446 -0.7578
12501SOL    HW238945   7.750   2.170   4.119 -0.3593 -1.4961  0.6782
12502SOL     OW38946   4.100   6.928   7.919 -0.0382  0.3292  0.2726
12502SOL    HW138947   4.029   6.991   7.907 -0.3034  0.3021  1.5490
12502SOL    HW238948   4.155   6.967   7.987  0.2495 -0.4226  0.4772
12503SOL     OW38949   0.428   3.892   3.831  0.3865  0.0180 -0.3663
12503SOL    HW138950   0.478   3.933   3.901  3.5940 -1.4003 -1.6423
12503SOL    HW238951   0.467   3.805   3.821 -1.2882 -0.5874 -2.5525
12504SOL     OW38952   4.094   2.177   1.257 -0.0850  0.3037  0.0506
12504SOL    HW138953   4.084   2.126   1.177 -0.8052 -0.5311  0.6473
12504SOL    HW238954   4.030   2.139   1.318  0.1516  1.1909  0.8820
12505SOL     OW38955   6.026   2.465   6.551 -0.3609  0.1862 -0.4172
12505SOL    HW138956   5.998   2.525   6.621  1.3177  1.7976 -1.0626
12505SOL    HW238957   6.097   2.511   6.507  0.5512 -2.0296 -1.3838
12506SOL     OW38958   2.057   5.718   2.048  0.1070 -0.3847 -0.6625
12506SOL    HW138959   2.009   5.642   2.017 -1.0167  0.1315 -0.2788
12506SOL    HW238960   2.076   5.699   2.140  1.5198 -0.9984 -1.0654
12507SOL     OW38961   2.802   5.598   3.046 -0.5220  0.0439 -0.4699
12507SOL    HW138962   2.852   5.533   3.096 -0.4122 -1.0490 -1.9260
12507SOL    HW238963   2.720   5.608   3.094  0.2359  0.2983  0.8221
12508SOL     OW38964   4.601   7.318   9.657  0.4851  0.9063 -0.2583
12508SOL    HW138965   4.665   7.248   9.669  0.9249  1.2508 -0.5864
12508SOL    HW238966   4.649   7.388   9.614 -0.0259  1.3043 -0.1946
12509SOL     OW38967   2.317   2.782   2.523  0.0322 -0.0378 -0.1522
12509SOL    HW138968   2.235   2.735   2.513 -0.4570  0.7868 -0.1545
12509SOL    HW238969   2.359   2.776   2.437  0.4893 -1.3708  0.1492
12510SOL     OW38970   2.124   6.816   9.606 -0.0346  0.2085  0.4208
12510SOL    HW138971   2.144   6.828   9.513  1.5781 -0.4372  0.6444
12510SOL    HW238972   2.178   6.882   9.650 -2.0939  1.6914  0.8455
12511SOL     OW38973   7.657   1.210   4.463 -0.0250  0.0149  0.3328
12511SOL    HW138974   7.662   1.150   4.389 -0.7816 -0.4595  0.6568
12511SOL    HW238975   7.730   1.185   4.520  0.1898 -0.0116  0.0486
12512SOL     OW38976   6.112   7.346   5.323  0.4775 -0.0188  0.5804
12512SOL    HW138977   6.078   7.396   5.248 -0.4989 -0.3207  0.8110
12512SOL    HW238978   6.137   7.261   5.285 -0.2844 -0.2761  0.6327
12513SOL     OW38979   2.919   2.002   7.424  0.0626  0.0768  0.4098
12513SOL    HW138980   2.936   2.092   7.396 -0.2241  0.1127  0.3531
12513SOL    HW238981   2.999   1.976   7.470 -0.3081  0.7639  1.4785
12514SOL     OW38982   0.762   6.868   8.948 -0.4499  0.2914 -0.0957
12514SOL    HW138983   0.755   6.942   9.009 -0.5382  0.7019 -0.5872
12514SOL    HW238984   0.685   6.815   8.967  0.9326 -1.0871  2.0377
12515SOL     OW38985   3.692   1.870   2.772 -0.1598 -0.1156 -0.0902
12515SOL    HW138986   3.616   1.914   2.810 -0.0914 -0.4572  0.4534
12515SOL    HW238987   3.721   1.809   2.840  0.7559  0.1855 -0.1995
12516SOL     OW38988   7.627   3.172   8.631 -0.2330  0.3635  0.1127
12516SOL    HW138989   7.593   3.161   8.719 -0.1658  0.5743  0.1649
12516SOL    HW238990   7.679   3.253   8.635  0.2512  0.0625  0.0327
12517SOL     OW38991   7.028   0.586   6.587  0.2225  0.0249  0.1394
12517SOL    HW138992   7.067   0.545   6.664  0.8167  1.0197  0.3824
12517SOL    HW238993   7.019   0.678   6.610 -3.6325 -0.3033  0.6676
12518SOL     OW38994   0.363   3.030   1.478  0.2391 -0.0708 -0.1824
12518SOL    HW138995   0.377   3.079   1.560  1.0261 -0.1911 -0.2380
12518SOL    HW238996   0.415   2.950   1.489  1.0327  0.2967 -1.1353
12519SOL     OW38997   1.735   5.659   8.583 -0.2780 -0.3016  0.6816
12519SOL    HW138998   1.736   5.576   8.631  0.4161 -0.1222  1.0036
12519SOL    HW238999   1.705   5.636   8.495 -1.4513 -0.6623  1.1567
12520SOL     OW39000   0.510   0.565  12.024  0.0286 -0.1895 -0.3185
12520SOL    HW139001   0.471   0.640  12.068  1.5262  0.4869 -0.0773
12520SOL    HW239002   0.442   0.497  12.027 -0.8880  0.7378  0.5997
12521SOL     OW39003   7.003   1.020   3.623  0.6834 -0.0453  0.3105
12521SOL    HW139004   6.916   1.054   3.601  0.2123 -1.4727 -0.1691
12521SOL    HW239005   7.059   1.097   3.628 -0.5028  0.8499  0.0879
12522SOL     OW39006   5.752   7.787   1.217 -0.2736 -0.0614 -0.3065
12522SOL    HW139007   5.781   7.874   1.191  1.4794 -0.2975  0.6794
12522SOL    HW239008   5.826   7.730   1.195 -1.0785 -1.1733 -0.2084
12523SOL     OW39009   3.708   1.004  10.965 -0.0678 -0.1529  0.3260
12523SOL    HW139010   3.701   1.004  10.870 -0.5062 -0.3563  0.3568
12523SOL    HW239011   3.631   0.956  10.995  1.1234 -1.9097  0.7161
12524SOL     OW39012   7.571   7.537   7.504 -0.4949 -0.0840  0.2768
12524SOL    HW139013   7.595   7.544   7.596 -0.0861  0.6347  0.1218
12524SOL    HW239014   7.514   7.612   7.489  0.6021  0.6401 -0.4058
12525SOL     OW39015   3.963   1.578  11.820 -0.4264 -0.0195 -0.0016
12525SOL    HW139016   4.024   1.525  11.768 -0.3194 -0.2759  0.3767
12525SOL    HW239017   3.945   1.655  11.766 -0.7570 -0.5458 -0.6480
12526SOL     OW39018   4.859   3.280   9.955  0.3097  0.4298  0.4618
12526SOL    HW139019   4.853   3.185   9.948 -0.4800  0.4239  1.0449
12526SOL    HW239020   4.949   3.296   9.984  1.1395  0.0126 -1.6837
12527SOL     OW39021   4.661   2.570   0.710 -0.2460 -0.0165 -0.5667
12527SOL    HW139022   4.639   2.555   0.802  0.6844 -0.8069 -0.4520
12527SOL    HW239023   4.704   2.656   0.709 -2.4143  1.1317 -0.6641
12528SOL     OW39024   7.955   5.415  10.270 -0.3452 -0.5390  0.1679
12528SOL    HW139025   8.030   5.406  10.329 -1.2317 -0.7699  1.2863
12528SOL    HW239026   7.913   5.329  10.271 -0.6826 -0.3879 -0.3763
12529SOL     OW39027   7.751   5.207  11.557  0.2511  0.6382 -0.0408
12529SOL    HW139028   7.668   5.253  11.572  0.6275  1.1639  0.4907
12529SOL    HW239029   7.770   5.166  11.641  1.6764  2.4309  0.5807
12530SOL     OW39030   0.776   3.956   9.692 -0.4318  0.0471  0.6763
12530SOL    HW139031   0.690   3.929   9.661 -0.4074  0.4787  0.2101
12530SOL    HW239032   0.789   3.908   9.773 -0.7638 -0.6392  0.3282
12531SOL     OW39033   2.102   1.271   7.392 -0.4441  0.0876  0.0911
12531SOL    HW139034   2.066   1.187   7.365  1.7127 -0.7993 -0.2471
12531SOL    HW239035   2.067   1.286   7.480 -1.6061 -0.6841 -0.2271
12532SOL     OW39036   7.965   2.470   0.203 -0.0415  0.1146  0.1685
12532SOL    HW139037   8.012   2.462   0.120 -1.2748 -1.7424 -0.4249
12532SOL    HW239038   7.876   2.496   0.177 -0.1495  0.6048  1.0029
12533SOL     OW39039   1.844   3.781   7.837 -0.1964 -0.0904  0.6216
12533SOL    HW139040   1.784   3.725   7.887 -1.6967  0.2683 -0.7012
12533SOL    HW239041   1.904   3.815   7.903 -2.0935  0.3852  2.2187
12534SOL     OW39042   2.090   6.623   0.771  0.5216 -0.1833 -0.8916
12534SOL    HW139043   2.183   6.642   0.783  0.3313  0.6530 -0.6961
12534SOL    HW239044   2.076   6.630   0.677  0.5944 -0.0092 -0.8904
12535SOL     OW39045   7.877   4.346  10.917  0.5961  0.2250 -0.2215
12535SOL    HW139046   7.958   4.392  10.940  0.3571  0.2050  0.7132
12535SOL    HW239047   7.893   4.254  10.942  0.7503 -0.0320 -1.2436
12536SOL     OW39048   0.663   7.028   7.456 -0.0756  0.2039  0.3219
12536SOL    HW139049   0.729   7.068   7.513  0.1176  2.0299 -1.1078
12536SOL    HW239050   0.701   7.033   7.368 -1.5173 -0.0063 -0.3421
12537SOL     OW39051   6.974   0.819   1.405  0.1971 -0.2711 -0.2342
12537SOL    HW139052   7.026   0.740   1.388 -0.1031 -0.7395  0.9420
12537SOL    HW239053   6.904   0.790   1.463  0.3963  0.9673  0.6688
12538SOL     OW39054   2.474   3.996   7.897 -0.0221  0.4985  0.4170
12538SOL    HW139055   2.546   3.998   7.833 -0.8714  0.8590 -0.5480
12538SOL    HW239056   2.497   4.063   7.961  0.8477  0.1238  0.5179
12539SOL     OW39057   5.395   2.088   5.183 -0.2312 -0.1149  0.0730
12539SOL    HW139058   5.373   2.171   5.141 -3.7989 -1.0778 -0.2481
12539SOL    HW239059   5.429   2.113   5.269 -2.3344  1.7354  0.4538
12540SOL     OW39060   5.237   4.390   7.073 -0.6000 -0.0424 -0.0655
12540SOL    HW139061   5.165   4.333   7.045 -1.4173  0.8130  0.2369
12540SOL    HW239062   5.196   4.453   7.132  0.2300  1.0027 -0.5697
12541SOL     OW39063   4.812   5.238   1.361 -0.5986 -0.1032 -0.1633
12541SOL    HW139064   4.773   5.264   1.278  0.5159  0.5752 -0.4823
12541SOL    HW239065   4.878   5.173   1.338 -1.4063 -1.1486  0.3634
12542SOL     OW39066   5.131   7.006   2.382  0.3637 -0.6007 -0.2909
12542SOL    HW139067   5.102   6.930   2.433 -2.0109  0.3493 -0.1198
12542SOL    HW239068   5.215   7.030   2.421 -0.5663 -0.9372  2.0653
12543SOL     OW39069   5.839   6.277   0.025  0.3634 -0.3686  0.2041
12543SOL    HW139070   5.748   6.257   0.000 -0.4966  1.2509  1.8757
12543SOL    HW239071   5.844   6.372   0.023  2.5927 -0.4323 -1.5661
12544SOL     OW39072   6.969   5.908   0.289  0.1494 -0.5099 -0.3415
12544SOL    HW139073   7.034   5.926   0.357  0.7980  1.2835 -1.3799
12544SOL    HW239074   6.889   5.888   0.337  1.0555 -1.2284  0.9488
12545SOL     OW39075   2.294   4.599   7.504  0.4513 -0.3520  0.0408
12545SOL    HW139076   2.244   4.600   7.422 -1.5685  0.3557  1.2178
12545SOL    HW239077   2.250   4.662   7.560  3.6695  1.5689  0.6706
12546SOL     OW39078   7.783   5.262   6.482  0.0761 -0.4930  0.1361
12546SOL    HW139079   7.855   5.297   6.535 -0.5381  1.0274  0.0236
12546SOL    HW239080   7.801   5.294   6.394  1.7800 -4.0503 -0.9800
12547SOL     OW39081   6.877   6.513   3.961  0.2134 -0.1199 -0.0897
12547SOL    HW139082   6.837   6.429   3.936 -2.6155  1.1294 -0.2356
12547SOL    HW239083   6.876   6.513   4.056 -0.3379 -0.0665 -0.0883
12548SOL     OW39084   5.925   6.597   7.626 -0.3847 -0.0198  0.2039
12548SOL    HW139085   5.931   6.502   7.629  1.0948  0.0699  0.7196
12548SOL    HW239086   5.839   6.617   7.662 -0.3896 -1.1261  0.8378
12549SOL     OW39087   5.384   2.071   7.248  0.1985 -0.0721  0.0014
12549SOL    HW139088   5.362   1.978   7.242 -2.9329  0.4531  1.3021
12549SOL    HW239089   5.322   2.114   7.190  1.1704  1.3029 -0.0706
12550SOL     OW39090   6.746   7.442   3.975 -0.3907  0.3263  0.0946
12550SOL    HW139091   6.654   7.444   3.949 -1.0352  3.4755  2.0180
12550SOL    HW239092   6.770   7.535   3.985  3.2190 -0.3338 -0.9267
12551SOL     OW39093   7.448   1.223   1.592 -0.6796  0.1052 -0.2467
12551SOL    HW139094   7.492   1.154   1.542  1.1399 -0.9241  2.4963
12551SOL    HW239095   7.376   1.178   1.636 -1.1886  0.5995 -0.5663
12552SOL     OW39096   1.595   6.814   8.086  0.1672 -0.0843 -0.2086
12552SOL    HW139097   1.517   6.776   8.127  0.2665  0.8733  0.9079
12552SOL    HW239098   1.599   6.903   8.120 -0.1723  1.0687 -2.9032
12553SOL     OW39099   6.058   2.207   2.212 -0.7642 -0.0507  0.2167
12553SOL    HW139100   6.086   2.191   2.302 -2.2844 -0.2852  0.6888
12553SOL    HW239101   6.065   2.302   2.201  1.2799 -0.2042 -0.1030
12554SOL     OW39102   3.111   1.687   3.023 -0.5367 -0.1354 -0.5823
12554SOL    HW139103   3.103   1.673   3.117  0.4994  0.6971 -0.3444
12554SOL    HW239104   3.085   1.604   2.983  0.1328 -0.8746  0.4837
12555SOL     OW39105   0.468   7.910   8.492 -0.2330  0.2315 -0.1280
12555SOL    HW139106   0.469   7.820   8.458 -1.1507 -0.3522  1.2986
12555SOL    HW239107   0.537   7.955   8.442  1.1284 -1.5933 -0.0022
12556SOL     OW39108   4.880   0.738   4.270 -0.2383  0.5392  0.6462
12556SOL    HW139109   4.946   0.804   4.246  0.2271 -0.0051  0.4179
12556SOL    HW239110   4.838   0.715   4.187  0.7822 -0.7085  0.4477
12557SOL     OW39111   4.792   5.350   7.301 -0.0874 -0.2574  0.3985
12557SOL    HW139112   4.775   5.433   7.255 -0.1268 -1.3868 -1.7868
12557SOL    HW239113   4.866   5.312   7.254 -0.0395 -1.4460  1.4055
12558SOL     OW39114   2.861   1.984   5.756  0.0013 -0.2065 -0.2471
12558SOL    HW139115   2.873   1.983   5.851  1.9481  0.1214 -0.4583
12558SOL    HW239116   2.906   2.063   5.726 -1.9341  0.5730 -1.3242
12559SOL     OW39117   0.658   1.660   3.162 -0.2773  0.1650  0.1450
12559SOL    HW139118   0.679   1.664   3.069  1.4098  4.3830  0.4721
12559SOL    HW239119   0.565   1.639   3.165 -0.2490 -0.6954 -2.4072
12560SOL     OW39120   3.061   3.140   5.356  0.5277  0.3086 -0.0275
12560SOL    HW139121   3.138   3.179   5.316  0.6216  1.4834  1.2208
12560SOL    HW239122   3.019   3.212   5.403 -1.5649 -0.2108 -0.9908
12561SOL     OW39123   2.880   3.363   4.707  0.4557 -0.2336 -0.2911
12561SOL    HW139124   2.964   3.369   4.752  0.4578  1.8366 -0.4911
12561SOL    HW239125   2.890   3.419   4.630 -0.9659 -0.3047 -0.5483
12562SOL     OW39126   5.383   1.835  12.449 -0.5555  0.0834  0.4078
12562SOL    HW139127   5.459   1.886  12.478 -0.2056 -0.7386  0.9833
12562SOL    HW239128   5.366   1.865  12.360  0.9911 -0.3170 -0.0524
12563SOL     OW39129   1.526   3.077   2.537  0.2112  0.0664  0.2959
12563SOL    HW139130   1.494   3.141   2.601  0.7782  0.5135  0.1441
12563SOL    HW239131   1.449   3.024   2.516 -0.1908  0.4812  0.6877
12564SOL     OW39132   4.282   0.495   2.984  0.1667 -0.1536 -0.2022
12564SOL    HW139133   4.292   0.561   3.052  0.5663  1.7967 -2.0529
12564SOL    HW239134   4.217   0.434   3.018  1.1499  0.1220  2.3407
12565SOL     OW39135   2.653   2.013   6.120 -0.3304 -0.0679 -0.2565
12565SOL    HW139136   2.563   2.002   6.151 -0.1066 -0.9846  0.1073
12565SOL    HW239137   2.645   2.072   6.045 -1.1806  0.1898  0.0178
12566SOL     OW39138   4.588   5.117   9.662 -0.2047 -0.1301 -0.5024
12566SOL    HW139139   4.651   5.067   9.713  0.2407  1.5475  0.7006
12566SOL    HW239140   4.609   5.098   9.571 -0.4945 -2.5970 -0.1114
12567SOL     OW39141   6.218   3.296   5.825 -0.2984  0.4273 -0.6106
12567SOL    HW139142   6.257   3.251   5.900  0.6211  0.9755 -0.7422
12567SOL    HW239143   6.125   3.273   5.828  0.2565 -2.2035 -1.1674
12568SOL     OW39144   6.533   6.693   6.566 -0.2365 -0.1141  0.5667
12568SOL    HW139145   6.509   6.783   6.543  0.0152 -0.1068  0.3342
12568SOL    HW239146   6.511   6.686   6.659  0.2455  0.3587  0.7213
12569SOL     OW39147   5.143   1.016   4.239  0.1373  0.0477 -0.4160
12569SOL    HW139148   5.220   0.984   4.193  0.9392 -0.5986  1.3041
12569SOL    HW239149   5.087   1.052   4.170  2.3162  1.2940 -1.6270
12570SOL     OW39150   3.079   0.459   0.830  0.4350 -0.5763  0.3856
12570SOL    HW139151   3.108   0.394   0.766  0.3776 -0.1449 -0.0781
12570SOL    HW239152   2.990   0.432   0.854 -0.1204  0.1092 -0.8414
12571SOL     OW39153   7.571   7.513   2.264 -0.0005 -0.0345  0.2650
12571SOL    HW139154   7.547   7.433   2.217 -0.5147  0.3840 -0.1924
12571SOL    HW239155   7.583   7.484   2.355  0.5694 -0.7676 -0.0314
12572SOL     OW39156   7.493   7.383   9.724  0.5665 -0.1962 -0.0522
12572SOL    HW139157   7.481   7.478   9.729 -1.3008 -0.4081  0.2449
12572SOL    HW239158   7.481   7.363   9.631  1.4861 -0.1078 -0.2027
12573SOL     OW39159   0.837   6.698  11.496 -0.6938  0.0523  0.2446
12573SOL    HW139160   0.871   6.745  11.420  0.8217  0.4715  1.1509
12573SOL    HW239161   0.742   6.713  11.492 -0.6774 -0.0541 -1.6139
12574SOL     OW39162   7.210   0.252   7.990 -0.3370 -0.5812 -0.4028
12574SOL    HW139163   7.118   0.264   7.967 -0.4848 -0.3710  0.2657
12574SOL    HW239164   7.258   0.297   7.921 -0.7742  0.5616  0.0101
12575SOL     OW39165   1.356   1.914   8.051 -0.0980 -0.3370  0.0618
12575SOL    HW139166   1.338   1.962   7.970 -0.0791 -0.2910  0.0845
12575SOL    HW239167   1.274   1.918   8.100  0.0576  0.1130  0.2890
12576SOL     OW39168   5.950   7.522  12.158  0.3748 -0.5167 -0.5088
12576SOL    HW139169   5.999   7.484  12.085 -0.6727  0.4756 -1.7755
12576SOL    HW239170   6.012   7.581  12.200  0.7051 -0.3790 -1.1771
12577SOL     OW39171   2.625   3.597  11.482 -0.2904  0.6172  0.3285
12577SOL    HW139172   2.553   3.658  11.464 -1.5315 -0.8425  0.2080
12577SOL    HW239173   2.699   3.634  11.435 -1.4765  1.0892 -1.2771
12578SOL     OW39174   7.030   0.630   3.882  0.4138  0.1457 -0.2757
12578SOL    HW139175   6.967   0.700   3.863  1.5871  1.5007  0.5741
12578SOL    HW239176   7.039   0.631   3.977 -0.4306 -2.0265 -0.1140
12579SOL     OW39177   4.961   3.713   1.679 -0.7357  0.4719 -0.9732
12579SOL    HW139178   4.932   3.715   1.588 -1.8546  0.7518 -0.6309
12579SOL    HW239179   4.896   3.658   1.723 -0.9958  1.4319 -0.1038
12580SOL     OW39180   7.572   0.725   6.163  0.0244 -0.1605  0.0606
12580SOL    HW139181   7.499   0.758   6.109  0.1666 -0.4575 -0.3084
12580SOL    HW239182   7.598   0.643   6.121 -1.1117 -1.4010  1.6532
12581SOL     OW39183   5.572   2.228   4.951 -0.0864 -0.4800  0.4378
12581SOL    HW139184   5.553   2.249   5.042 -1.5785  0.8798 -0.1465
12581SOL    HW239185   5.644   2.286   4.927 -2.2406  2.0890 -0.3036
12582SOL     OW39186   7.599   5.701   5.235  0.1133 -0.0910  0.7167
12582SOL    HW139187   7.609   5.756   5.313 -0.8028 -0.2865  0.9860
12582SOL    HW239188   7.603   5.762   5.162 -0.7788  0.3374  1.0037
12583SOL     OW39189   4.342   0.829   7.866 -0.1719  0.4840 -0.0307
12583SOL    HW139190   4.371   0.788   7.948 -1.3022 -0.8266 -0.2483
12583SOL    HW239191   4.348   0.759   7.801 -1.2712  0.9080 -0.6125
12584SOL     OW39192   7.198   1.532  11.393  0.3000 -0.3890  0.6021
12584SOL    HW139193   7.169   1.613  11.351  0.0576 -0.2552  1.0220
12584SOL    HW239194   7.185   1.547  11.487  0.8245 -0.6919  0.7246
12585SOL     OW39195   2.555   5.762   2.353  0.2445  0.3826 -0.2049
12585SOL    HW139196   2.530   5.732   2.440 -1.9889  0.1066 -0.8803
12585SOL    HW239197   2.644   5.729   2.341 -0.0834 -1.1791  1.2498
12586SOL     OW39198   2.767   4.766   9.394  0.2230 -0.1148 -0.1507
12586SOL    HW139199   2.855   4.736   9.373  0.2784 -0.5649  0.6702
12586SOL    HW239200   2.712   4.730   9.325  0.4273 -1.3680  0.3029
12587SOL     OW39201   7.591   0.851   3.490 -0.4833  0.7955  0.1666
12587SOL    HW139202   7.575   0.788   3.560 -1.2730  0.9494  0.1278
12587SOL    HW239203   7.598   0.936   3.534 -1.5950  0.9816  0.0143
12588SOL     OW39204   1.583   7.491  12.174  0.0808  0.0077 -0.2271
12588SOL    HW139205   1.656   7.437  12.145  1.4893  2.5921 -1.8405
12588SOL    HW239206   1.513   7.475  12.111  0.7299  0.5270 -1.0928
12589SOL     OW39207   3.776   7.178  11.411  0.0948 -0.3934 -0.6562
12589SOL    HW139208   3.767   7.111  11.479  1.7772 -0.0236 -0.0070
12589SOL    HW239209   3.718   7.249  11.439  1.2146  0.0144  0.7764
12590SOL     OW39210   0.767   3.719  10.595 -0.4160  0.0558  0.6292
12590SOL    HW139211   0.795   3.646  10.651  0.0398  1.2087  1.9542
12590SOL    HW239212   0.847   3.747  10.551 -0.8618 -1.1866 -1.1010
12591SOL     OW39213   5.716   6.985   1.557  0.0486  0.1629  0.4021
12591SOL    HW139214   5.733   6.962   1.648  1.1857  0.5619  0.3034
12591SOL    HW239215   5.744   6.908   1.508  0.8783  0.5168  0.2974
12592SOL     OW39216   2.848   4.957   9.568 -0.0973  0.1500  0.8564
12592SOL    HW139217   2.838   4.920   9.656 -0.9451  0.0361  0.7261
12592SOL    HW239218   2.816   4.889   9.510 -2.8804  1.4519  0.6746
12593SOL     OW39219   3.037   3.343  11.009 -0.2563  0.2393 -0.6405
12593SOL    HW139220   3.050   3.384  10.924  1.4132  1.6779  0.2504
12593SOL    HW239221   3.037   3.415  11.071 -2.0232 -0.7292  0.5746
12594SOL     OW39222   5.841   3.111   4.546  0.0700  0.1138  0.0057
12594SOL    HW139223   5.826   3.142   4.457 -1.3597 -1.8019 -0.4956
12594SOL    HW239224   5.759   3.128   4.592 -0.5316 -2.0950 -0.1074
12595SOL     OW39225   3.060   5.342   2.458  0.2231  0.3674  0.5330
12595SOL    HW139226   3.015   5.324   2.541 -2.3816 -0.0288 -0.8378
12595SOL    HW239227   3.047   5.436   2.443  0.0471  0.2967  0.2351
12596SOL     OW39228   6.247   6.178   5.015 -0.6134 -0.7106 -0.5172
12596SOL    HW139229   6.176   6.242   5.021 -0.2132 -0.3114  0.0474
12596SOL    HW239230   6.255   6.141   5.103  2.7877  2.4584  0.7554
12597SOL     OW39231   3.213   1.324   1.406 -0.1793  0.1332 -0.2955
12597SOL    HW139232   3.281   1.381   1.371 -1.4083  0.7230 -1.8690
12597SOL    HW239233   3.237   1.310   1.497  0.7108  2.3330 -0.1463
12598SOL     OW39234   7.308   1.402   3.756  0.3020  0.3824  0.1165
12598SOL    HW139235   7.381   1.449   3.717 -0.5037  0.3182 -1.5206
12598SOL    HW239236   7.345   1.317   3.782  0.9974  0.6766  0.0807
12599SOL     OW39237   3.378   7.090   2.783 -0.0436 -0.9517  0.3393
12599SOL    HW139238   3.367   7.182   2.808 -0.2604 -0.6258 -0.8647
12599SOL    HW239239   3.460   7.064   2.824 -0.7411 -0.7062  1.9879
12600SOL     OW39240   0.314   1.693  10.687 -0.2817 -0.1097 -0.2302
12600SOL    HW139241   0.321   1.684  10.592 -1.8459 -0.9133 -0.3037
12600SOL    HW239242   0.312   1.787  10.703  1.1966  0.0495 -0.8688
12601SOL     OW39243   4.629   6.600   1.386 -0.1138  0.5484 -0.6150
12601SOL    HW139244   4.540   6.572   1.408  0.1919  0.8225  1.0842
12601SOL    HW239245   4.659   6.537   1.321 -1.0783 -0.3424 -0.2121
12602SOL     OW39246   4.499   0.143   9.074 -0.3843 -0.2259  0.6451
12602SOL    HW139247   4.516   0.203   9.147  0.5463  0.0696  0.2095
12602SOL    HW239248   4.465   0.064   9.115 -0.1195  0.0302  1.3801
12603SOL     OW39249   3.376   1.622   8.343  0.9798 -0.0306 -0.4438
12603SOL    HW139250   3.444   1.578   8.393 -1.2634 -1.7581  1.3291
12603SOL    HW239251   3.306   1.556   8.336 -0.1106  1.2468 -3.1390
12604SOL     OW39252   2.450   2.575   5.472  0.1339 -0.1732 -0.3291
12604SOL    HW139253   2.515   2.628   5.427 -0.3523  1.8755  1.2395
12604SOL    HW239254   2.501   2.517   5.529  0.6221  0.5824  0.0096
12605SOL     OW39255   2.337   1.773   8.578 -0.1565 -0.0404 -0.4251
12605SOL    HW139256   2.429   1.750   8.576 -0.6463 -2.2097 -1.9958
12605SOL    HW239257   2.331   1.855   8.530  1.0352  0.6594  0.5707
12606SOL     OW39258   6.358   6.237   8.003  0.2138  0.2706 -0.7323
12606SOL    HW139259   6.371   6.152   8.045 -0.0789  0.3747 -0.4216
12606SOL    HW239260   6.292   6.281   8.058 -0.0738  0.4656 -1.2227
12607SOL     OW39261   6.548   1.114  11.386 -0.1776 -0.3468  0.0976
12607SOL    HW139262   6.593   1.182  11.435  0.0572  0.5935 -1.3713
12607SOL    HW239263   6.517   1.053  11.453  1.5508  0.0101  1.2816
12608SOL     OW39264   0.739   3.954  12.446  0.4516  1.0945 -0.0086
12608SOL    HW139265   0.734   4.044  12.477 -1.6358  1.6541 -1.7447
12608SOL    HW239266   0.648   3.926  12.439  1.0204 -0.6845 -0.7801
12609SOL     OW39267   2.973   5.624   4.692  0.2250 -0.1668 -0.0342
12609SOL    HW139268   3.036   5.683   4.735 -0.1666  0.6499 -0.5543
12609SOL    HW239269   2.947   5.563   4.761  1.0521 -0.0800  0.3784
12610SOL     OW39270   0.879   0.291   4.407  0.0548 -0.2999  0.0770
12610SOL    HW139271   0.849   0.329   4.324  1.0707  0.2227 -0.0679
12610SOL    HW239272   0.802   0.295   4.464 -0.5893 -0.4448 -0.7614
12611SOL     OW39273   3.180   1.474   0.533  0.2439  0.3163 -0.7567
12611SOL    HW139274   3.107   1.474   0.595 -0.3348  0.1578 -1.4171
12611SOL    HW239275   3.198   1.567   0.518 -0.5664  0.3780 -1.4247
12612SOL     OW39276   7.880   4.022  10.664 -0.1206 -0.2279  0.2162
12612SOL    HW139277   7.970   4.016  10.632  0.2478 -0.7596  1.3210
12612SOL    HW239278   7.827   3.983  10.595  0.6928 -1.6868  0.3743
12613SOL     OW39279   4.771   0.702   1.807  0.4920 -0.6662 -0.0481
12613SOL    HW139280   4.833   0.706   1.734 -1.8985  1.5829 -2.1566
12613SOL    HW239281   4.710   0.632   1.783  1.6136 -2.3316  1.6376
12614SOL     OW39282   6.315   7.361   6.879  0.5869 -0.2503  0.2923
12614SOL    HW139283   6.323   7.340   6.786 -1.2084 -0.0086  0.0487
12614SOL    HW239284   6.277   7.448   6.880 -1.3533 -1.0614  1.2128
12615SOL     OW39285   1.101   0.923   6.207 -0.2212 -0.6064  0.2742
12615SOL    HW139286   1.183   0.963   6.236  0.5858 -1.6920 -0.4466
12615SOL    HW239287   1.098   0.938   6.113 -1.0516 -0.2398  0.3461
12616SOL     OW39288   3.582   0.656   7.653  0.4011  0.4786 -0.4947
12616SOL    HW139289   3.599   0.648   7.559 -0.9212  0.1358 -0.7188
12616SOL    HW239290   3.558   0.568   7.682  0.8013  0.5780  0.1807
12617SOL     OW39291   7.520   7.176   9.902  0.2944 -0.2368  0.4653
12617SOL    HW139292   7.520   7.230   9.822 -0.1920 -0.2787  0.4382
12617SOL    HW239293   7.551   7.091   9.872 -2.4169 -1.0647 -0.2395
12618SOL     OW39294   2.413   6.790   0.568 -0.3254  0.0055 -0.7641
12618SOL    HW139295   2.441   6.736   0.494  1.5458 -0.4083  0.1782
12618SOL    HW239296   2.397   6.876   0.530 -0.7429 -0.5362 -1.8617
12619SOL     OW39297   7.383   0.525  11.706 -0.6856 -0.3821  0.5470
12619SOL    HW139298   7.364   0.435  11.735  0.6978 -0.5289  1.0412
12619SOL    HW239299   7.299   0.570  11.715 -1.4197 -1.6235  0.2555
12620SOL     OW39300   3.500   6.946   5.713  0.5449  0.6424 -0.2407
12620SOL    HW139301   3.470   6.872   5.660  0.6518  0.8793 -0.6373
12620SOL    HW239302   3.436   7.015   5.695  0.2984  0.5675  0.3286
12621SOL     OW39303   1.717   0.951   4.320  0.0187 -0.0367  0.3360
12621SOL    HW139304   1.723   0.856   4.330  0.9524  0.2370  3.3329
12621SOL    HW239305   1.797   0.984   4.359 -0.2284  2.0344 -0.7549
12622SOL     OW39306   5.432   7.678   0.955 -0.4600  0.3297 -0.1618
12622SOL    HW139307   5.442   7.620   1.030 -2.1800  0.9105  0.5833
12622SOL    HW239308   5.520   7.707   0.934  0.4090 -2.1956 -0.3098
12623SOL     OW39309   7.319   4.414   0.144  0.2976  0.2859 -0.7434
12623SOL    HW139310   7.399   4.418   0.091 -0.0267  1.2554 -1.1883
12623SOL    HW239311   7.256   4.367   0.088  0.1142  0.8428 -1.0116
12624SOL     OW39312   4.383   4.259   5.390  0.1074  0.0402 -0.1237
12624SOL    HW139313   4.446   4.313   5.342 -1.2797  1.1269 -0.7580
12624SOL    HW239314   4.381   4.177   5.342 -0.2403  0.6258 -1.1248
12625SOL     OW39315   2.925   3.472   4.458  0.0365  0.2020  0.0757
12625SOL    HW139316   2.989   3.473   4.387  0.5212 -0.1553  0.4987
12625SOL    HW239317   2.847   3.512   4.420  0.0801 -0.5385 -0.8579
12626SOL     OW39318   2.461   6.551   0.403  0.0793  0.5085  0.5840
12626SOL    HW139319   2.403   6.476   0.392  0.0134  0.7375 -0.7644
12626SOL    HW239320   2.527   6.522   0.466  0.7976 -1.1480 -0.8560
12627SOL     OW39321   3.690   6.273   2.676  0.4388  0.0009 -0.0700
12627SOL    HW139322   3.755   6.299   2.741  1.6619  0.1131 -1.2828
12627SOL    HW239323   3.723   6.189   2.642 -0.8202 -0.6697  0.2871
12628SOL     OW39324   4.281   0.711   3.152  0.3543  0.8886  0.6579
12628SOL    HW139325   4.294   0.692   3.245 -1.1026 -0.0176  0.7034
12628SOL    HW239326   4.212   0.779   3.151 -0.3773  0.1572  0.2275
12629SOL     OW39327   3.731   6.136   0.424  0.6858  0.2831 -0.4444
12629SOL    HW139328   3.648   6.123   0.471  1.4917 -1.6873  0.5804
12629SOL    HW239329   3.705   6.152   0.334 -0.8334  0.8919  0.0572
12630SOL     OW39330   1.426   5.162   9.960 -0.9770  0.4994 -0.0521
12630SOL    HW139331   1.515   5.148   9.992 -1.1068  1.6539  0.8315
12630SOL    HW239332   1.395   5.239  10.006 -2.6248 -0.1658  0.0087
12631SOL     OW39333   5.257   4.882   0.474  0.3673 -0.8665  0.4188
12631SOL    HW139334   5.292   4.916   0.556  2.1755 -0.0419 -0.6324
12631SOL    HW239335   5.232   4.792   0.493  0.8764 -0.7267  1.8312
12632SOL     OW39336   3.099   2.477   0.428 -0.7334  0.1161 -0.2610
12632SOL    HW139337   3.127   2.417   0.359 -1.9042 -0.2380 -0.4477
12632SOL    HW239338   3.075   2.557   0.382 -0.9356  0.0856 -0.2117
12633SOL     OW39339   1.225   2.089   8.333 -0.5846 -0.2507 -0.6040
12633SOL    HW139340   1.248   2.125   8.419 -2.2015  2.1240 -1.0636
12633SOL    HW239341   1.155   2.026   8.352  0.2262 -1.0098 -0.0532
12634SOL     OW39342   5.003   2.867   2.697 -0.0822 -0.3188  0.1619
12634SOL    HW139343   4.977   2.931   2.763 -3.3061  1.3472 -2.4397
12634SOL    HW239344   5.088   2.898   2.665 -0.2377  0.9857  0.9558
12635SOL     OW39345   1.993   2.119  10.098  0.2055  0.3079  0.1640
12635SOL    HW139346   1.965   2.088  10.184 -1.8510 -0.6462 -0.7762
12635SOL    HW239347   2.065   2.061  10.073 -1.8204 -2.1333 -0.4091
12636SOL     OW39348   3.693   2.057   9.560 -0.0014 -0.4122 -0.1036
12636SOL    HW139349   3.783   2.067   9.592  0.2236  0.0291 -0.8365
12636SOL    HW239350   3.647   2.135   9.591  0.5307  0.6437 -1.8217
12637SOL     OW39351   3.947   1.899   7.647  0.1609 -0.6222 -0.0652
12637SOL    HW139352   3.935   1.953   7.568  1.9556 -0.6751 -0.4104
12637SOL    HW239353   4.038   1.870   7.643  0.4484 -0.2613  2.2610
12638SOL     OW39354   6.478   7.724  12.011  0.2478 -0.0580 -0.1074
12638SOL    HW139355   6.564   7.696  12.044 -0.5413 -1.5875  0.7900
12638SOL    HW239356   6.479   7.699  11.919  1.3253  1.3692 -0.5069
12639SOL     OW39357   5.598   3.256   7.310 -0.0150 -0.4804  0.5413
12639SOL    HW139358   5.542   3.280   7.236 -0.3313  0.1757  0.9852
12639SOL    HW239359   5.680   3.302   7.294 -0.6435  1.0172  1.4268
12640SOL     OW39360   3.860   5.981   8.758  0.1834 -0.1936  0.6228
12640SOL    HW139361   3.923   5.992   8.686  0.1868  0.1189  0.6722
12640SOL    HW239362   3.830   5.891   8.750  0.8347 -0.4219  0.7568
12641SOL     OW39363   7.526   7.346   0.550 -0.0742 -0.6220 -0.0568
12641SOL    HW139364   7.559   7.309   0.468  0.8284 -1.1410  0.5263
12641SOL    HW239365   7.530   7.274   0.613  0.5620  0.1226  0.7895
12642SOL     OW39366   0.803   4.860   2.137 -0.0812  0.1016  0.1069
12642SOL    HW139367   0.735   4.814   2.090  0.1907  0.8415 -1.0528
12642SOL    HW239368   0.802   4.822   2.225 -1.2342 -0.6468 -0.2139
12643SOL     OW39369   5.686   7.738   0.012  0.6427 -0.6533 -0.4244
12643SOL    HW139370   5.655   7.818  -0.032  0.2741 -0.0101  0.9503
12643SOL    HW239371   5.768   7.717  -0.032  2.6311  2.5329  1.3831
12644SOL     OW39372   1.461   4.070   7.570  0.2623 -0.1265  0.4012
12644SOL    HW139373   1.458   4.034   7.482 -1.3699  2.3194 -0.6331
12644SOL    HW239374   1.541   4.124   7.571 -0.1788  0.5381  0.1130
12645SOL     OW39375   1.533   1.142   8.100  0.2325 -0.0277  0.4082
12645SOL    HW139376   1.453   1.138   8.152 -0.2139  1.5368 -0.1018
12645SOL    HW239377   1.505   1.178   8.016  1.4485  0.4394  0.1764
12646SOL     OW39378   2.756   6.011  10.365  0.2565 -0.0207 -0.8089
12646SOL    HW139379   2.845   5.980  10.383  0.1769 -0.5673 -1.3144
12646SOL    HW239380   2.699   5.942  10.398 -0.1403  1.5261  2.0667
12647SOL     OW39381   3.303   4.996   0.031 -0.1831 -0.9286 -0.2048
12647SOL    HW139382   3.281   5.056  -0.040 -0.5540  1.7725  2.0164
12647SOL    HW239383   3.393   4.969   0.013  1.1127  2.6628  0.0985
12648SOL     OW39384   4.568   3.704   0.535 -0.1221  0.0067  0.0616
12648SOL    HW139385   4.492   3.728   0.589 -1.4327 -0.4137 -1.5254
12648SOL    HW239386   4.550   3.742   0.449  1.7066  0.2864 -0.2323
12649SOL     OW39387   6.790   3.790   5.400 -0.1318 -0.2205  0.4244
12649SOL    HW139388   6.786   3.814   5.308 -1.0321 -1.2482  0.1816
12649SOL    HW239389   6.821   3.870   5.444  1.1515  0.0079 -0.8450
12650SOL     OW39390   3.402   1.134  10.782 -0.1436  0.0051 -0.2519
12650SOL    HW139391   3.410   1.038  10.782  1.2010  0.0434 -2.3661
12650SOL    HW239392   3.329   1.152  10.723 -1.4048  0.2719  1.3562
12651SOL     OW39393   1.454   2.358   1.329  0.2806 -0.0198  0.0732
12651SOL    HW139394   1.394   2.349   1.402  0.9372  1.7345  0.8784
12651SOL    HW239395   1.416   2.305   1.259 -2.0234  0.7804  0.6484
12652SOL     OW39396   0.748   7.418   7.362  0.3096  0.0085 -0.0628
12652SOL    HW139397   0.670   7.393   7.410  0.1021 -0.4387 -0.6199
12652SOL    HW239398   0.717   7.482   7.297  0.5834  0.5983  0.3746
12653SOL     OW39399   7.533   0.184   1.097  0.3240  0.5521 -0.7412
12653SOL    HW139400   7.584   0.108   1.126  0.8796  0.6259 -1.4754
12653SOL    HW239401   7.550   0.251   1.162  1.0336  0.5188 -0.8860
12654SOL     OW39402   6.424   3.725   3.969  0.1635  0.0321 -0.5872
12654SOL    HW139403   6.517   3.729   3.945  0.1896  0.5538 -0.4201
12654SOL    HW239404   6.386   3.804   3.930  0.3073  1.1846  1.4213
12655SOL     OW39405   3.630   2.658   7.950 -0.1193 -0.7175 -0.1590
12655SOL    HW139406   3.704   2.658   8.010 -0.0974 -1.9358 -0.1663
12655SOL    HW239407   3.579   2.736   7.974  0.9981 -0.0310  0.0312
12656SOL     OW39408   1.362   1.669  10.784  0.4287  0.3679 -0.5352
12656SOL    HW139409   1.410   1.633  10.710  0.7921 -0.5741  0.1373
12656SOL    HW239410   1.431   1.703  10.842  0.3685 -1.3035  0.6003
12657SOL     OW39411   7.701   4.929   1.025  0.4026  0.5862 -0.8639
12657SOL    HW139412   7.751   4.996   0.979  0.0877  1.1147 -0.4432
12657SOL    HW239413   7.623   4.915   0.971  1.6660 -1.3531 -2.3559
12658SOL     OW39414   5.013   1.298   1.395 -0.3541 -0.1464 -0.0743
12658SOL    HW139415   4.966   1.215   1.400 -2.7744  1.2237  2.3594
12658SOL    HW239416   4.961   1.353   1.336 -0.5749  0.6513  0.8351
12659SOL     OW39417   3.422   7.165  11.861  0.6490 -0.3590 -0.3068
12659SOL    HW139418   3.386   7.181  11.774  1.2401  2.2396 -0.1528
12659SOL    HW239419   3.365   7.215  11.920  3.1385  2.1725  0.1582
12660SOL     OW39420   2.925   2.300   1.067 -0.1192 -0.4493 -0.1987
12660SOL    HW139421   2.851   2.317   1.125 -0.8663 -1.2789 -0.8745
12660SOL    HW239422   2.999   2.343   1.110 -1.2250  1.5997 -0.1808
12661SOL     OW39423   2.885   6.540   8.633 -0.4837 -0.1290 -0.1902
12661SOL    HW139424   2.940   6.466   8.608  0.8136  0.6010  0.3649
12661SOL    HW239425   2.797   6.517   8.604  0.0509 -1.5100 -0.7629
12662SOL     OW39426   4.664   2.558   6.939 -0.6723  0.2706  0.4048
12662SOL    HW139427   4.621   2.638   6.910 -1.0446  0.1685  0.6644
12662SOL    HW239428   4.742   2.588   6.985 -0.2483  0.4423 -0.4163
12663SOL     OW39429   7.787   7.384  11.264  0.4779  0.5359 -0.4249
12663SOL    HW139430   7.824   7.364  11.178 -1.3182  1.2747 -1.4324
12663SOL    HW239431   7.785   7.479  11.268  0.4616  0.5076  0.4064
12664SOL     OW39432   6.566   1.181  10.071  0.2592  0.3298 -0.3078
12664SOL    HW139433   6.471   1.180  10.058 -0.0128  0.2092  1.4072
12664SOL    HW239434   6.597   1.249  10.012 -0.7814 -0.2115 -1.5305
12665SOL     OW39435   4.136   5.911   1.553  0.0086 -0.1050 -0.0839
12665SOL    HW139436   4.040   5.912   1.553 -0.0709 -2.2583 -1.2863
12665SOL    HW239437   4.160   5.884   1.464  1.6177 -2.4214  0.9452
12666SOL     OW39438   2.689   0.141   5.555 -0.0690 -0.4090  0.1715
12666SOL    HW139439   2.677   0.229   5.521  1.4481 -0.3414 -0.2511
12666SOL    HW239440   2.693   0.085   5.478  2.2976 -0.3942  0.2332
12667SOL     OW39441   1.840   4.454   3.511 -0.4090  0.0320  0.9197
12667SOL    HW139442   1.803   4.519   3.451 -0.5237 -2.2490 -1.6477
12667SOL    HW239443   1.923   4.494   3.539 -1.8653  2.5811  1.9897
12668SOL     OW39444   5.227   5.849   2.999 -0.1984 -0.2350 -0.5053
12668SOL    HW139445   5.203   5.766   3.042  1.2651 -0.2119  0.4532
12668SOL    HW239446   5.321   5.840   2.982  0.1426  1.4688  0.2251
12669SOL     OW39447   2.147   0.698   9.941 -0.1729  0.2180 -0.1172
12669SOL    HW139448   2.115   0.677  10.028 -0.6164 -0.0784 -0.3500
12669SOL    HW239449   2.098   0.776   9.915 -0.3673  0.0427 -0.2820
12670SOL     OW39450   7.710   7.458   0.957 -0.0873  0.5475 -0.0957
12670SOL    HW139451   7.654   7.392   0.917 -0.1429  1.2958 -1.2775
12670SOL    HW239452   7.734   7.420   1.042 -0.3617 -0.8492 -0.6166
12671SOL     OW39453   4.398   7.619   9.440 -0.0367  0.1815 -0.3144
12671SOL    HW139454   4.324   7.570   9.474  0.6296 -0.4223  0.2862
12671SOL    HW239455   4.387   7.707   9.476 -0.8422  0.2931 -0.8121
12672SOL     OW39456   5.672   6.429   9.163  0.3164  0.4828  0.0270
12672SOL    HW139457   5.599   6.379   9.127  0.4998 -1.8016  2.4677
12672SOL    HW239458   5.649   6.520   9.147 -0.2170 -0.2106 -4.3738
12673SOL     OW39459   7.772   5.855   4.210 -0.4242  0.3933 -1.1809
12673SOL    HW139460   7.739   5.913   4.279  1.4410  0.3970 -0.2230
12673SOL    HW239461   7.858   5.891   4.187  0.4246 -1.4681 -1.1438
12674SOL     OW39462   0.756   6.760   2.943 -0.2639 -0.4391 -0.2628
12674SOL    HW139463   0.721   6.673   2.962 -1.1312  0.2865  1.7330
12674SOL    HW239464   0.704   6.819   2.997 -0.5933  1.5158 -2.5372
12675SOL     OW39465   5.620   0.842   4.729 -0.1877 -0.1648  0.2769
12675SOL    HW139466   5.551   0.815   4.669  0.2489 -0.2567 -0.1899
12675SOL    HW239467   5.573   0.872   4.807 -0.7244 -1.1444  0.3526
12676SOL     OW39468   0.370   7.459   3.795  0.1398 -0.2268  0.0756
12676SOL    HW139469   0.449   7.436   3.844  0.1740  0.0099  0.1331
12676SOL    HW239470   0.298   7.440   3.855  0.2666  2.0355  1.0283
12677SOL     OW39471   4.073   0.169   5.067 -0.0974  0.5140  0.7534
12677SOL    HW139472   4.006   0.189   5.132 -0.0931 -0.6938  1.1575
12677SOL    HW239473   4.135   0.242   5.071 -0.3025  0.6331  1.8235
12678SOL     OW39474   0.994   5.859   6.554  0.1184  0.0881 -0.4315
12678SOL    HW139475   1.045   5.847   6.634  0.4383 -0.4904 -0.7172
12678SOL    HW239476   0.904   5.841   6.581  0.0258  1.2242  0.1013
12679SOL     OW39477   6.863   2.707   6.184  0.3486 -0.2693 -0.4278
12679SOL    HW139478   6.876   2.625   6.231 -0.4525 -0.2914 -0.2313
12679SOL    HW239479   6.807   2.683   6.109 -0.8609  0.2857  0.2684
12680SOL     OW39480   3.088   1.341   0.244  0.4244 -0.4676 -0.5656
12680SOL    HW139481   3.125   1.317   0.159 -0.2843 -2.7201 -0.3084
12680SOL    HW239482   3.136   1.287   0.307 -0.0624  0.0991  0.3177
12681SOL     OW39483   0.639   2.201   0.738  0.0919  0.2036  0.5521
12681SOL    HW139484   0.726   2.235   0.714  0.6448  0.0021  2.1757
12681SOL    HW239485   0.589   2.206   0.657  1.6988  0.0639 -0.5006
12682SOL     OW39486   7.109   1.625   9.223  0.2603  0.5031 -0.4435
12682SOL    HW139487   7.137   1.715   9.206  0.3276  0.8048  1.1270
12682SOL    HW239488   7.058   1.630   9.304  0.8601 -0.9692  0.0628
12683SOL     OW39489   1.054   6.139   7.861 -0.0256 -0.3289  0.0818
12683SOL    HW139490   1.004   6.099   7.789  0.2998 -1.0342  0.2390
12683SOL    HW239491   0.987   6.183   7.914 -0.1627  1.1045 -1.1981
12684SOL     OW39492   6.543   0.181   2.880  0.6793  0.0713  0.2623
12684SOL    HW139493   6.604   0.253   2.864 -1.3833  2.6214  2.7530
12684SOL    HW239494   6.588   0.124   2.942  0.8924  1.5521  1.5351
12685SOL     OW39495   7.939   0.641   8.326  0.2887 -0.2883 -0.7693
12685SOL    HW139496   7.998   0.708   8.360 -0.1494  0.1550 -0.8746
12685SOL    HW239497   7.928   0.664   8.234 -2.2387  1.3131 -0.1880
12686SOL     OW39498   1.602   4.494   1.704 -0.4696  0.2078 -0.1601
12686SOL    HW139499   1.535   4.485   1.772  0.3497  0.5260  0.7151
12686SOL    HW239500   1.661   4.563   1.737 -0.6312  1.1164 -1.6809
12687SOL     OW39501   3.048   1.434   2.890 -0.2294  1.2782 -0.0078
12687SOL    HW139502   2.956   1.461   2.885 -0.1559  1.2721 -2.6259
12687SOL    HW239503   3.052   1.356   2.834  1.1084  0.4229  1.2311
12688SOL     OW39504   7.513   1.611  12.338 -0.5067 -0.1819  0.3602
12688SOL    HW139505   7.443   1.546  12.350 -0.7353  0.0164  0.1164
12688SOL    HW239506   7.513   1.662  12.419 -1.5279  0.6606 -0.1523
12689SOL     OW39507   3.229   0.660   4.874  0.3378  0.1194 -0.2025
12689SOL    HW139508   3.262   0.735   4.923  0.9540  0.2269 -0.7754
12689SOL    HW239509   3.288   0.588   4.899  1.6281  0.5228 -1.9414
12690SOL     OW39510   4.440   7.167   9.406 -0.1371 -0.3147  0.1062
12690SOL    HW139511   4.358   7.122   9.384  1.1991 -2.0684 -1.5319
12690SOL    HW239512   4.439   7.247   9.353  0.9347 -2.2699 -3.1426
12691SOL     OW39513   6.010   4.179   4.019  0.4671  0.1734  0.7353
12691SOL    HW139514   6.026   4.134   4.102  0.4198 -0.3227  0.4787
12691SOL    HW239515   6.098   4.201   3.987  0.4830  0.4271  0.9449
12692SOL     OW39516   5.195   6.692   0.700  0.3487 -0.7632  0.3050
12692SOL    HW139517   5.239   6.611   0.727 -1.4589 -1.2717  1.9471
12692SOL    HW239518   5.107   6.684   0.735 -0.6030  0.9125 -1.5129
12693SOL     OW39519   0.224   1.838   7.934 -0.4454  0.6048  0.4266
12693SOL    HW139520   0.312   1.873   7.941  0.3098 -1.3717  2.0836
12693SOL    HW239521   0.169   1.914   7.916  1.7630  1.6372 -2.7738
12694SOL     OW39522   6.866   1.413   3.424 -0.3101 -0.0363 -0.0333
12694SOL    HW139523   6.849   1.464   3.345  1.4836  0.9147  0.1488
12694SOL    HW239524   6.809   1.336   3.415 -1.4633  0.9138 -1.3641
12695SOL     OW39525   6.492   5.917   6.646  0.8351 -0.2575 -0.8842
12695SOL    HW139526   6.586   5.933   6.660  0.2759  2.2154  0.8444
12695SOL    HW239527   6.462   5.879   6.728 -0.0970  1.4267 -0.4031
12696SOL     OW39528   6.653   5.049   2.803 -0.4459  0.4520  0.0013
12696SOL    HW139529   6.648   5.006   2.888  1.2498 -1.0160 -0.5769
12696SOL    HW239530   6.592   5.000   2.747 -0.6851  0.6676  0.0720
12697SOL     OW39531   2.164   4.115   9.448  0.2564 -0.0766 -0.0292
12697SOL    HW139532   2.098   4.053   9.418 -0.5994  0.5158  0.6241
12697SOL    HW239533   2.233   4.109   9.381 -0.8543 -0.0253 -1.2127
12698SOL     OW39534   6.216   5.387   9.111  0.4482  0.0183 -0.4220
12698SOL    HW139535   6.224   5.371   9.017 -1.9199 -0.1646 -0.6706
12698SOL    HW239536   6.163   5.467   9.117 -0.5646 -0.7055  0.7196
12699SOL     OW39537   4.957   7.128   7.094  0.0802  0.1095 -0.1185
12699SOL    HW139538   4.948   7.120   6.999  0.6836 -0.7013 -0.1197
12699SOL    HW239539   4.874   7.165   7.123 -1.5444 -2.8512 -0.6047
12700SOL     OW39540   6.964   1.822   8.724 -0.1021  0.2439  0.0497
12700SOL    HW139541   7.016   1.795   8.800  1.3279  0.3930 -0.8417
12700SOL    HW239542   6.970   1.917   8.724 -2.3517  0.4689  1.2488
12701SOL     OW39543   7.908   5.158   6.057  0.2261  0.1184 -0.1499
12701SOL    HW139544   7.842   5.185   5.993  0.7918 -1.7488 -1.6353
12701SOL    HW239545   7.886   5.206   6.137 -0.2600  2.8988 -1.8326
12702SOL     OW39546   3.656   0.043  11.335  0.0032 -0.2566 -0.3613
12702SOL    HW139547   3.615   0.128  11.345  0.1193 -0.3654  1.2219
12702SOL    HW239548   3.607   0.001  11.264  0.5874  1.4717 -1.8640
12703SOL     OW39549   5.584   2.007   9.260  0.4891 -0.0886  0.2265
12703SOL    HW139550   5.594   1.912   9.250  0.1798 -0.0805 -0.2203
12703SOL    HW239551   5.507   2.017   9.317  0.6303 -0.1059  0.4220
12704SOL     OW39552   0.455   4.460   8.090 -0.1727 -0.2862  0.2883
12704SOL    HW139553   0.468   4.513   8.169  0.7509  0.4530 -0.3342
12704SOL    HW239554   0.420   4.522   8.025  1.3896 -0.2937 -0.6000
12705SOL     OW39555   4.758   3.313   2.149  0.0946  0.0055 -0.0570
12705SOL    HW139556   4.736   3.406   2.158 -0.3129  0.1712 -2.1461
12705SOL    HW239557   4.849   3.307   2.176 -0.1598  0.8314  1.0253
12706SOL     OW39558   1.742   6.004   7.701 -0.1693  0.2421 -0.1572
12706SOL    HW139559   1.791   6.084   7.685  2.4185 -1.0277  0.7149
12706SOL    HW239560   1.729   6.003   7.796  1.5434 -1.1903  0.1215
12707SOL     OW39561   5.533   2.386  12.476 -0.3118 -0.0882 -0.1041
12707SOL    HW139562   5.549   2.478  12.455 -3.8802  0.9068  0.7613
12707SOL    HW239563   5.585   2.370  12.555  0.7849  0.9887 -0.5747
12708SOL     OW39564   2.911   7.421  10.698 -0.0616 -0.2452 -0.5668
12708SOL    HW139565   2.820   7.411  10.670 -0.3619 -0.7607  0.5219
12708SOL    HW239566   2.922   7.354  10.766  0.6920  0.7913  0.3610
12709SOL     OW39567   4.630   7.412   0.806 -0.4521 -0.2615  0.2285
12709SOL    HW139568   4.724   7.412   0.793 -0.0895 -0.2433  2.4395
12709SOL    HW239569   4.612   7.332   0.856 -1.8255 -0.9609 -1.2713
12710SOL     OW39570   2.479   1.672   2.483  0.5532  0.0605  0.1273
12710SOL    HW139571   2.558   1.689   2.432  0.2260  1.4714  0.0323
12710SOL    HW239572   2.456   1.758   2.520 -0.5404 -0.4653  0.7192
12711SOL     OW39573   6.019   7.861   3.872  0.0095 -0.3060 -0.1090
12711SOL    HW139574   6.091   7.857   3.934 -0.4533  0.6460  0.5151
12711SOL    HW239575   6.062   7.868   3.786  0.6593  0.1311  0.2430
12712SOL     OW39576   1.325   7.958   3.708 -0.9137  0.1430 -0.3799
12712SOL    HW139577   1.394   7.983   3.647  0.5251  1.2035  1.5999
12712SOL    HW239578   1.254   8.020   3.690 -0.2475  0.8830 -0.5113
12713SOL     OW39579   2.839   5.946  11.168 -0.6535 -0.0073 -0.0352
12713SOL    HW139580   2.750   5.915  11.148 -0.7369  1.7135 -2.9189
12713SOL    HW239581   2.888   5.932  11.086  0.6961  2.4087  0.2663
12714SOL     OW39582   5.326   5.806   3.635  0.5435  0.1645 -0.0437
12714SOL    HW139583   5.303   5.725   3.589  1.4872  0.6052 -1.3546
12714SOL    HW239584   5.406   5.836   3.592 -0.0464  2.0492  0.0856
12715SOL     OW39585   3.543   0.859   2.017  0.6777 -0.1691  0.4956
12715SOL    HW139586   3.540   0.939   2.070  1.6817 -0.6702  1.3533
12715SOL    HW239587   3.468   0.808   2.048  0.5685  0.0523  0.5994
12716SOL     OW39588   3.169   1.442   3.987 -0.0588  0.3975 -0.1646
12716SOL    HW139589   3.163   1.412   3.896  3.1027 -0.7530 -0.1089
12716SOL    HW239590   3.144   1.366   4.039 -1.4002  0.9145  0.0031
12717SOL     OW39591   0.344   7.956   7.073  0.0703  0.5072  0.7003
12717SOL    HW139592   0.268   7.959   7.015  0.0693  2.3206  0.7623
12717SOL    HW239593   0.419   7.952   7.013 -0.0160 -2.3492  0.6295
12718SOL     OW39594   3.398   2.734   7.750  0.0622  0.2251 -0.3688
12718SOL    HW139595   3.404   2.776   7.836 -0.3837  0.6221 -0.5268
12718SOL    HW239596   3.486   2.699   7.734 -0.3949 -1.8635  1.2500
12719SOL     OW39597   2.106   5.398   2.766 -0.1423  0.3079  0.0929
12719SOL    HW139598   2.084   5.360   2.851 -1.8861  3.2853  1.1607
12719SOL    HW239599   2.151   5.480   2.787 -0.1830  0.8965 -1.8553
12720SOL     OW39600   2.893   6.456   2.096  0.1228  0.3956  0.0924
12720SOL    HW139601   2.839   6.377   2.098  0.2776  0.2907  0.1333
12720SOL    HW239602   2.832   6.526   2.073  0.2941  0.0015 -1.6664
12721SOL     OW39603   2.830   0.215  10.299  0.1687  0.1434 -0.3013
12721SOL    HW139604   2.735   0.204  10.304  0.0854  0.8620 -0.0795
12721SOL    HW239605   2.843   0.273  10.224  0.4779 -0.3933 -0.6690
12722SOL     OW39606   5.078   0.226   1.094 -0.1342  0.0429 -0.6182
12722SOL    HW139607   5.136   0.279   1.039 -0.1512  1.3736  0.5729
12722SOL    HW239608   5.137   0.174   1.148 -0.0682 -3.2929 -3.5477
12723SOL     OW39609   0.779   1.729   3.945 -0.0819  0.0778 -0.3216
12723SOL    HW139610   0.747   1.817   3.966  0.8588  0.2216  0.5666
12723SOL    HW239611   0.864   1.744   3.902 -0.5375 -0.3535 -1.4287
12724SOL     OW39612   6.872   7.660   2.651 -0.8711  0.8882  0.4478
12724SOL    HW139613   6.940   7.692   2.593  0.2437  0.5476  1.5133
12724SOL    HW239614   6.835   7.584   2.606 -0.9158  1.3831 -0.3696
12725SOL     OW39615   7.238   7.854  11.516 -0.2273 -0.3995 -0.0294
12725SOL    HW139616   7.226   7.825  11.607  1.6704 -0.9849  0.0680
12725SOL    HW239617   7.321   7.816  11.489  0.1872  1.3505 -1.3835
12726SOL     OW39618   7.638   2.457   9.591 -0.0670 -0.0871  0.0234
12726SOL    HW139619   7.598   2.477   9.676  0.7924 -0.9659  0.6626
12726SOL    HW239620   7.701   2.527   9.576  1.5214 -1.1512  1.3116
12727SOL     OW39621   2.612   7.018   0.316  0.2045 -0.2456 -0.2248
12727SOL    HW139622   2.707   7.006   0.321  0.0295 -1.3262  1.1282
12727SOL    HW239623   2.580   6.938   0.274 -0.0980  0.1918 -0.8362
12728SOL     OW39624   7.178   7.166   2.367  0.6519 -0.2798 -0.0505
12728SOL    HW139625   7.129   7.209   2.437  1.1425  0.4693 -0.1605
12728SOL    HW239626   7.267   7.157   2.401  2.1398  4.0697 -2.0514
12729SOL     OW39627   1.897   6.753   3.466  0.4076  0.2534 -0.4530
12729SOL    HW139628   1.847   6.679   3.431 -1.6614  1.1364  0.4307
12729SOL    HW239629   1.905   6.735   3.559  0.1226  1.0087 -0.2777
12730SOL     OW39630   3.696   7.681   4.752 -0.3600 -0.2631 -0.2765
12730SOL    HW139631   3.758   7.621   4.794 -0.5291 -0.2159  0.0439
12730SOL    HW239632   3.613   7.666   4.799 -0.1896  0.8705  0.4124
12731SOL     OW39633   0.699   1.870   4.441 -0.0306  0.1156  0.5309
12731SOL    HW139634   0.632   1.828   4.387  1.0104 -2.2483  0.9692
12731SOL    HW239635   0.655   1.889   4.523  0.1216 -2.9064  1.4222
12732SOL     OW39636   4.120   4.680  11.554  0.3402  0.7510  0.1799
12732SOL    HW139637   4.185   4.662  11.487 -1.1047  2.0371 -1.6778
12732SOL    HW239638   4.100   4.595  11.593  0.3003 -0.2521 -1.9193
12733SOL     OW39639   0.128   7.430   4.004  0.3312 -0.5445  0.2683
12733SOL    HW139640   0.084   7.398   3.926 -0.1780 -2.3096  1.2273
12733SOL    HW239641   0.067   7.412   4.076  1.2833 -0.0901  1.2238
12734SOL     OW39642   2.257   2.999   1.258  0.0526  0.1808 -0.1103
12734SOL    HW139643   2.352   2.984   1.256 -0.1236 -1.0426 -0.0731
12734SOL    HW239644   2.222   2.939   1.192 -0.8213 -0.5773  1.0003
12735SOL     OW39645   0.757   5.865   1.097 -0.2998  0.0730 -0.0374
12735SOL    HW139646   0.753   5.790   1.155 -1.5898  1.5710  1.9344
12735SOL    HW239647   0.758   5.828   1.008 -2.1556 -2.2108  0.8223
12736SOL     OW39648   6.333   2.622   2.801  0.4228 -0.4378 -0.3035
12736SOL    HW139649   6.317   2.626   2.895  1.8709 -1.0985  0.0013
12736SOL    HW239650   6.352   2.713   2.776 -0.4355 -0.1849 -0.0647
12737SOL     OW39651   4.443   2.873   5.917  0.5619 -0.0850  0.0027
12737SOL    HW139652   4.535   2.886   5.894  0.8075 -0.9653  0.4883
12737SOL    HW239653   4.411   2.961   5.937  1.4926  0.1311  0.5695
12738SOL     OW39654   4.306   6.387   7.205  0.7701  0.5893 -0.2424
12738SOL    HW139655   4.266   6.317   7.154  2.1983 -0.8279  0.5193
12738SOL    HW239656   4.240   6.457   7.205  0.1476  0.1321 -2.8273
12739SOL     OW39657   3.324   0.237   2.229  0.3878  0.1857 -0.5180
12739SOL    HW139658   3.273   0.250   2.309  1.5516 -0.5624  0.3833
12739SOL    HW239659   3.415   0.233   2.259  0.6992 -2.3809 -1.5653
12740SOL     OW39660   4.500   0.049   0.920 -0.6208  0.1328 -0.6041
12740SOL    HW139661   4.581   0.085   0.884  0.8852 -2.1757  0.2142
12740SOL    HW239662   4.501   0.075   1.012 -0.0432 -1.0277 -0.2574
12741SOL     OW39663   2.394   1.714  11.628  0.0123  0.1854 -0.0609
12741SOL    HW139664   2.452   1.659  11.681  0.2427  1.7935  1.4148
12741SOL    HW239665   2.389   1.668  11.544  1.9202 -0.9733  0.3881
12742SOL     OW39666   7.198   0.626  12.270 -0.4051 -0.2412  0.7026
12742SOL    HW139667   7.127   0.591  12.324 -0.2035 -1.4141  0.2467
12742SOL    HW239668   7.269   0.642  12.332 -1.6206  2.8394  1.5128
12743SOL     OW39669   2.024   7.236   5.638 -0.4741 -0.5505 -0.3085
12743SOL    HW139670   2.044   7.269   5.550  0.5333 -0.1974  0.0403
12743SOL    HW239671   1.929   7.230   5.640 -0.5744  0.5280 -1.0427
12744SOL     OW39672   7.808   2.388   8.892 -0.3807 -0.2237  0.2416
12744SOL    HW139673   7.877   2.329   8.921 -0.3259 -0.2775  0.0043
12744SOL    HW239674   7.728   2.353   8.929 -0.2169  0.1136  0.9264
12745SOL     OW39675   1.343   3.564   9.525 -0.6436 -0.1300  0.3163
12745SOL    HW139676   1.388   3.482   9.545 -1.8886 -0.5410  1.6433
12745SOL    HW239677   1.293   3.583   9.604 -1.3418  1.2618 -0.4304
12746SOL     OW39678   7.064   7.530   8.838 -0.2977  0.3951  0.6006
12746SOL    HW139679   7.040   7.560   8.926  2.5385 -0.7326  1.8636
12746SOL    HW239680   7.074   7.436   8.847 -0.8310  0.1230 -1.2225
12747SOL     OW39681   4.357   2.495   3.384 -0.6213 -0.2846 -0.4261
12747SOL    HW139682   4.277   2.447   3.407 -0.8377  0.4968  0.5345
12747SOL    HW239683   4.334   2.543   3.305 -0.8834 -0.5718 -0.5302
12748SOL     OW39684   1.072   1.760   0.782  0.1523  0.4447 -0.5876
12748SOL    HW139685   1.080   1.729   0.692  1.6186  3.7375 -1.7282
12748SOL    HW239686   1.082   1.681   0.835 -0.0420 -1.5086 -3.2551
12749SOL     OW39687   3.259   4.603   3.701  0.1966  0.3082 -0.0144
12749SOL    HW139688   3.332   4.635   3.753 -2.0321  1.8524  2.4286
12749SOL    HW239689   3.208   4.681   3.680 -2.1550 -0.9261  0.7682
12750SOL     OW39690   0.522   1.662   5.165 -0.9732  0.7381 -0.2972
12750SOL    HW139691   0.469   1.648   5.086  0.1596 -1.0277 -0.8024
12750SOL    HW239692   0.545   1.574   5.194  1.4841  1.4173  0.0019
12751SOL     OW39693   1.873   7.199   0.116 -0.0294 -0.3580  0.2434
12751SOL    HW139694   1.819   7.122   0.097 -1.1012  0.3856  0.1774
12751SOL    HW239695   1.843   7.265   0.054  0.3039  0.3742  0.8517
12752SOL     OW39696   4.238   0.271   1.527 -0.4636 -0.0791  0.5019
12752SOL    HW139697   4.170   0.337   1.541 -1.1747 -0.7498  0.3377
12752SOL    HW239698   4.248   0.228   1.612 -2.2797 -1.8271 -0.0720
12753SOL     OW39699   3.119   7.151   8.960 -1.0657 -0.3646  0.1973
12753SOL    HW139700   3.146   7.073   8.912  2.1433  0.1012  1.0245
12753SOL    HW239701   3.092   7.118   9.046  0.2093 -0.6079  0.5198
12754SOL     OW39702   6.624   0.467   8.050  0.0646  0.2318  0.5726
12754SOL    HW139703   6.558   0.441   8.114 -0.8830 -0.1589 -0.5146
12754SOL    HW239704   6.704   0.478   8.100 -0.7272  0.2764  1.8637
12755SOL     OW39705   2.246   3.551   9.485  0.0278 -0.1598  0.6117
12755SOL    HW139706   2.326   3.537   9.536 -1.0847  1.5229  2.9721
12755SOL    HW239707   2.270   3.616   9.419  0.8590 -0.5389  0.5282
12756SOL     OW39708   1.193   4.653   2.329  0.0559 -0.2205  0.0103
12756SOL    HW139709   1.184   4.606   2.246  0.2310  0.0793 -0.1844
12756SOL    HW239710   1.286   4.644   2.351  0.2192  0.5413 -0.3413
12757SOL     OW39711   3.587   4.136  10.993  0.0020  0.0429  0.3263
12757SOL    HW139712   3.594   4.170  11.082 -0.4223  1.9783 -0.3314
12757SOL    HW239713   3.678   4.131  10.962  0.1143 -0.0659  0.6783
12758SOL     OW39714   5.201   0.101   9.514 -0.0622 -0.5267 -0.0403
12758SOL    HW139715   5.164   0.061   9.593  0.1964 -0.0981  0.2988
12758SOL    HW239716   5.127   0.107   9.454 -0.3423 -0.5200  0.3029
12759SOL     OW39717   5.688   3.718  10.928  0.1703 -0.0670 -0.0522
12759SOL    HW139718   5.676   3.785  10.994  2.1585 -0.8686  1.2288
12759SOL    HW239719   5.783   3.716  10.912  0.1617 -2.3391 -0.2408
12760SOL     OW39720   3.272   7.447  10.478 -0.5204 -0.6783  0.9772
12760SOL    HW139721   3.229   7.530  10.498 -0.0421 -0.9579  3.6516
12760SOL    HW239722   3.208   7.380  10.502 -0.0280 -1.0700  1.2244
12761SOL     OW39723   7.871   6.831  10.130 -0.5115 -0.2362 -0.0393
12761SOL    HW139724   7.849   6.768  10.198  1.2499  0.2504  1.0448
12761SOL    HW239725   7.860   6.783  10.048 -1.1957 -1.2974  0.6509
12762SOL     OW39726   2.990   1.796   2.728 -0.0677  0.8093 -0.6467
12762SOL    HW139727   3.078   1.831   2.739 -0.2196  1.3135 -1.0024
12762SOL    HW239728   2.973   1.802   2.634 -0.0934 -0.2357 -0.7198
12763SOL     OW39729   5.194   2.002   1.844  0.5909 -0.3683 -0.4764
12763SOL    HW139730   5.276   2.051   1.853  0.4524  0.1387 -1.7667
12763SOL    HW239731   5.125   2.067   1.858  0.3268 -1.0419  1.9846
12764SOL     OW39732   6.945   0.122   1.749 -0.4703  0.4846  0.1199
12764SOL    HW139733   6.894   0.203   1.739 -1.0312 -0.0407 -1.6836
12764SOL    HW239734   7.010   0.126   1.679  1.0122  0.4002  1.4259
12765SOL     OW39735   5.682   7.787   9.006  0.0132 -0.0099  0.1149
12765SOL    HW139736   5.671   7.881   8.992  0.7149 -0.0279 -0.6363
12765SOL    HW239737   5.749   7.781   9.075 -0.8319  0.0358  0.9689
12766SOL     OW39738   6.068   6.599   2.908  0.6370  0.3137 -0.6405
12766SOL    HW139739   5.975   6.619   2.911  0.5896  0.0368  0.8110
12766SOL    HW239740   6.083   6.563   2.821 -0.4535  1.0481 -1.1538
12767SOL     OW39741   1.202   2.507   4.657 -0.5779  0.0481  0.5281
12767SOL    HW139742   1.219   2.413   4.649  0.8743  0.2558  0.7429
12767SOL    HW239743   1.290   2.546   4.659 -1.1631  1.4887 -0.4132
12768SOL     OW39744   4.788   2.604   5.253  0.3663  0.1227  0.0301
12768SOL    HW139745   4.695   2.618   5.268  0.2583 -0.4071 -0.1135
12768SOL    HW239746   4.819   2.559   5.332  0.3939 -0.1394 -0.1278
12769SOL     OW39747   1.519   1.936   7.655 -0.0542 -0.0888  0.3613
12769SOL    HW139748   1.574   1.978   7.722  1.7706 -2.1863  0.3088
12769SOL    HW239749   1.466   1.873   7.704  0.0985 -0.4873  0.0144
12770SOL     OW39750   5.196   5.071   9.255 -0.3539 -0.5455  0.3529
12770SOL    HW139751   5.284   5.040   9.235  0.5812  1.8630  0.3961
12770SOL    HW239752   5.207   5.127   9.332 -2.2121 -1.4678  1.3533
12771SOL     OW39753   5.168   1.183   5.529  0.3562  0.0327  0.1495
12771SOL    HW139754   5.222   1.116   5.487 -0.6479 -0.4593 -0.4023
12771SOL    HW239755   5.121   1.137   5.599  2.0025  0.8440  1.8787
12772SOL     OW39756   5.574   3.597   0.968  0.3919  0.0298  0.1855
12772SOL    HW139757   5.616   3.538   1.030 -0.0764 -1.3673 -0.7833
12772SOL    HW239758   5.626   3.589   0.887 -1.1472 -1.0525 -0.7478
12773SOL     OW39759   0.076   2.153  11.091  0.0213  0.0649 -0.2299
12773SOL    HW139760   0.043   2.186  11.175  0.2535  1.9797 -0.8511
12773SOL    HW239761   0.164   2.122  11.112  0.0524  0.4614  0.2686
12774SOL     OW39762   0.223   2.738   2.206 -0.3140  0.3015  0.0369
12774SOL    HW139763   0.214   2.788   2.125  0.3248  1.0611  0.4134
12774SOL    HW239764   0.309   2.764   2.240  0.5718 -1.9565 -0.3378
12775SOL     OW39765   3.066   2.811  10.673 -0.4932 -0.3144  0.4309
12775SOL    HW139766   3.072   2.886  10.733 -0.5424  0.0009  0.0405
12775SOL    HW239767   3.116   2.742  10.717 -0.2996 -0.0003  0.7110
12776SOL     OW39768   1.699   6.809   3.153 -0.3266 -0.4718  0.8291
12776SOL    HW139769   1.732   6.895   3.179  0.7129 -0.9807  1.2639
12776SOL    HW239770   1.715   6.804   3.059  1.8537 -1.0744  1.1583
12777SOL     OW39771   4.856   1.835   8.779  0.2369  0.5484  0.3495
12777SOL    HW139772   4.882   1.745   8.801  0.3838  0.7370  0.9707
12777SOL    HW239773   4.763   1.828   8.756  0.1459  0.2988  0.7773
12778SOL     OW39774   0.119   2.174   1.670 -0.3226  0.0887  0.1531
12778SOL    HW139775   0.027   2.146   1.665  0.0487 -0.9927 -1.8470
12778SOL    HW239776   0.123   2.230   1.747 -2.3299 -1.0711  1.1901
12779SOL     OW39777   4.463   5.490   6.652  0.0293 -0.6411 -0.1452
12779SOL    HW139778   4.400   5.556   6.623  1.3873  0.8173  0.0508
12779SOL    HW239779   4.444   5.413   6.599 -0.9032  0.2613 -1.1723
12780SOL     OW39780   7.092   7.400  11.384 -0.0670 -1.0223  0.2530
12780SOL    HW139781   7.033   7.325  11.375 -0.1705 -0.8172 -0.9604
12780SOL    HW239782   7.180   7.363  11.383 -0.0832 -1.0567 -1.4532
12781SOL     OW39783   5.311   5.856  10.933  0.5302 -0.3640  0.4257
12781SOL    HW139784   5.260   5.926  10.892  0.3847 -1.3823 -1.2101
12781SOL    HW239785   5.333   5.891  11.019  0.6159  1.7706 -0.3895
12782SOL     OW39786   0.426   7.462   8.153  0.2824 -0.5412 -0.0081
12782SOL    HW139787   0.445   7.432   8.064 -2.1743 -2.0344 -0.1125
12782SOL    HW239788   0.429   7.383   8.207  1.9584  0.3673  1.3493
12783SOL     OW39789   4.912   4.028  10.632 -0.6254 -0.4916  0.2427
12783SOL    HW139790   4.870   3.951  10.593 -0.1285 -0.6362 -0.0194
12783SOL    HW239791   4.843   4.094  10.634 -1.0282 -0.9103  0.3735
12784SOL     OW39792   2.460   0.049   5.702 -0.4491 -0.0947 -0.3346
12784SOL    HW139793   2.425  -0.027   5.657  1.4022 -0.1709 -1.7599
12784SOL    HW239794   2.534   0.077   5.648  0.2340  1.4236  1.2891
12785SOL     OW39795   3.426   5.502  10.783  0.1367 -0.5215  0.2519
12785SOL    HW139796   3.338   5.475  10.805 -0.2622  0.7146  0.2610
12785SOL    HW239797   3.455   5.439  10.717 -1.6913  0.4484 -1.6062
12786SOL     OW39798   1.696   3.072   5.171  0.4714  0.1069  0.4806
12786SOL    HW139799   1.608   3.052   5.203 -1.4339  2.9672 -2.3535
12786SOL    HW239800   1.715   3.160   5.204 -0.3532  1.9466 -3.3853
12787SOL     OW39801   4.484   2.346   5.411 -0.0346 -0.7023 -0.0153
12787SOL    HW139802   4.547   2.314   5.347  0.9998  2.6308 -0.8583
12787SOL    HW239803   4.426   2.404   5.361 -0.5635  0.2786  1.6554
12788SOL     OW39804   2.568   7.075   1.728  0.0723  0.0828 -0.1163
12788SOL    HW139805   2.586   6.982   1.740  2.6380  0.5532  0.4647
12788SOL    HW239806   2.544   7.106   1.815  1.0948  0.2831  0.1045
12789SOL     OW39807   0.578   5.118  10.900 -0.3297 -0.0775 -0.4746
12789SOL    HW139808   0.639   5.049  10.926 -0.4049 -0.0844 -0.3136
12789SOL    HW239809   0.571   5.174  10.977 -2.2201 -1.2864  0.2916
12790SOL     OW39810   2.938   7.282   4.849 -0.5266  0.2124  0.2712
12790SOL    HW139811   3.021   7.325   4.869 -0.6190  0.7024 -0.3663
12790SOL    HW239812   2.875   7.353   4.839 -0.5670 -0.0025 -1.3218
12791SOL     OW39813   5.077   4.584   7.209  0.5723 -0.3897 -0.0980
12791SOL    HW139814   5.006   4.523   7.189  0.4329 -0.7927  1.5368
12791SOL    HW239815   5.035   4.656   7.255  0.9798  0.2011 -0.6271
12792SOL     OW39816   2.438   7.659   3.853  0.1440  0.6104  0.0522
12792SOL    HW139817   2.463   7.566   3.853 -0.1311  0.4555 -2.5500
12792SOL    HW239818   2.402   7.674   3.940 -1.3996 -2.1819  0.0217
12793SOL     OW39819   7.430   1.890  10.589  0.0305  0.1963  0.2144
12793SOL    HW139820   7.337   1.907  10.576  0.1528 -0.6384 -2.3237
12793SOL    HW239821   7.456   1.838  10.513  2.2636 -0.8671  1.6018
12794SOL     OW39822   0.743   5.541  11.599  0.0928 -0.2392 -0.2170
12794SOL    HW139823   0.746   5.528  11.694 -1.8616 -0.1132 -0.1043
12794SOL    HW239824   0.696   5.623  11.587  0.5036 -0.1416 -1.2987
12795SOL     OW39825   0.295   1.249   7.631  0.1234 -0.1244 -0.7223
12795SOL    HW139826   0.224   1.275   7.572 -1.0784  1.6140  1.3744
12795SOL    HW239827   0.365   1.311   7.612  0.2127 -0.3600 -1.1763
12796SOL     OW39828   4.983   1.121   4.016  0.1067  0.6703 -0.2665
12796SOL    HW139829   4.893   1.152   4.027 -0.2967 -0.5355  0.0121
12796SOL    HW239830   5.004   1.138   3.925 -0.9725 -0.4227 -0.7451
12797SOL     OW39831   6.827   3.917   7.698  0.4201 -0.1259 -0.1172
12797SOL    HW139832   6.892   3.847   7.710  0.7439  0.2183  0.1674
12797SOL    HW239833   6.796   3.936   7.787  0.1548 -0.0784 -0.2209
12798SOL     OW39834   0.455   5.243   3.517 -0.1206  0.0040 -1.1645
12798SOL    HW139835   0.400   5.256   3.440  0.0170  1.7651 -1.0034
12798SOL    HW239836   0.545   5.254   3.485  0.2497 -3.1573 -1.4888
12799SOL     OW39837   6.969   5.991   7.488  0.6528 -0.1734 -0.0310
12799SOL    HW139838   7.061   6.007   7.470  0.3105  0.6906 -1.1737
12799SOL    HW239839   6.935   5.949   7.410 -0.2286  0.8739 -0.2529
12800SOL     OW39840   6.294   0.268  11.534 -0.5942  0.1367 -0.2887
12800SOL    HW139841   6.342   0.186  11.528  0.1094  0.6679 -3.4204
12800SOL    HW239842   6.352   0.325  11.586  0.4366 -0.3735 -0.8423
12801SOL     OW39843   7.690   7.253   4.857 -0.4596  0.0721 -1.0625
12801SOL    HW139844   7.676   7.269   4.950  0.5247  0.6683 -1.0148
12801SOL    HW239845   7.602   7.233   4.823 -0.5857 -2.2018  0.3649
12802SOL     OW39846   3.697   0.361   1.781  0.2722  0.5263  0.1021
12802SOL    HW139847   3.760   0.300   1.819 -0.5014 -0.5477 -0.2610
12802SOL    HW239848   3.689   0.432   1.845 -0.6948 -1.0150  1.8038
12803SOL     OW39849   3.788   0.557  10.768  0.3101 -0.0870 -0.2620
12803SOL    HW139850   3.751   0.483  10.720  0.9989 -1.0936  0.7064
12803SOL    HW239851   3.869   0.577  10.721  1.1098 -1.2302  0.5433
12804SOL     OW39852   5.879   5.220  10.087  0.0850 -0.0467  0.1046
12804SOL    HW139853   5.900   5.301  10.040  1.0072 -0.4870 -0.2519
12804SOL    HW239854   5.958   5.166  10.080 -0.4957 -0.9598  0.3925
12805SOL     OW39855   5.966   2.469   2.206 -0.4156  0.0010  0.3734
12805SOL    HW139856   5.938   2.485   2.116  1.4858 -0.5090 -0.3558
12805SOL    HW239857   5.976   2.557   2.243 -1.2078  0.2140  0.1065
12806SOL     OW39858   0.170   5.910  10.404 -0.0102  0.5006 -0.3790
12806SOL    HW139859   0.175   6.004  10.386  1.1098  0.3895 -0.6865
12806SOL    HW239860   0.164   5.870  10.317  1.4563  0.1851 -0.3516
12807SOL     OW39861   4.460   0.839   1.043  0.4585 -0.5031 -0.1302
12807SOL    HW139862   4.374   0.814   1.008 -0.3142 -0.4568  1.6453
12807SOL    HW239863   4.443   0.916   1.097  1.8970  0.4493 -0.9403
12808SOL     OW39864   7.211   7.459   9.128  0.3252  0.5276  0.1978
12808SOL    HW139865   7.150   7.533   9.127  0.2886  0.5131  0.7701
12808SOL    HW239866   7.274   7.482   9.196 -0.1871 -0.3593  1.0022
12809SOL     OW39867   6.176   1.165   8.941  0.2609  0.4627  0.4653
12809SOL    HW139868   6.173   1.119   9.025  1.6013  0.3135  0.4516
12809SOL    HW239869   6.245   1.121   8.891 -0.4166  0.6424 -0.6652
12810SOL     OW39870   4.540   6.174   6.918  0.1215 -0.4674 -0.0246
12810SOL    HW139871   4.546   6.260   6.877  0.4881 -1.0251 -1.2004
12810SOL    HW239872   4.483   6.124   6.860 -0.4469 -0.9041  0.8819
12811SOL     OW39873   1.563   7.790   3.809  0.6328  0.4882  0.7571
12811SOL    HW139874   1.475   7.820   3.785  0.2628 -2.1138 -1.7298
12811SOL    HW239875   1.552   7.747   3.893 -0.2655  1.0379  0.9290
12812SOL     OW39876   2.092   3.314   7.713  0.3804 -0.1319 -0.0397
12812SOL    HW139877   2.091   3.334   7.806 -0.6876 -1.5203  0.2720
12812SOL    HW239878   2.124   3.394   7.672  1.2042  0.3819  1.5316
12813SOL     OW39879   7.439   0.075   3.142 -0.2906 -0.3865  0.0979
12813SOL    HW139880   7.535   0.076   3.145 -0.1535  1.9038 -2.1892
12813SOL    HW239881   7.413   0.153   3.190 -0.7852  0.7617 -1.9152
12814SOL     OW39882   6.218   6.561  10.336 -0.4953 -0.1236 -0.2638
12814SOL    HW139883   6.151   6.494  10.352 -0.7519  0.2446  0.2377
12814SOL    HW239884   6.238   6.552  10.243 -3.2382  1.5517 -1.1422
12815SOL     OW39885   2.486   2.539   0.079  0.0635  0.2321  0.1882
12815SOL    HW139886   2.554   2.575   0.137 -0.8992  1.4383  0.6172
12815SOL    HW239887   2.408   2.590   0.100 -1.3522 -1.9914  0.6521
12816SOL     OW39888   4.101   0.797   0.365 -0.0166 -0.0611 -0.1225
12816SOL    HW139889   4.060   0.881   0.348 -2.0776 -0.5348  1.9463
12816SOL    HW239890   4.120   0.761   0.278  1.2658  2.6091 -1.0570
12817SOL     OW39891   2.666   5.727  11.949 -0.4199  0.1336 -0.1638
12817SOL    HW139892   2.761   5.734  11.957 -0.3920 -1.3567  1.4236
12817SOL    HW239893   2.647   5.636  11.971 -2.1606  0.1765 -1.2781
12818SOL     OW39894   2.666   2.640   2.815 -0.2409 -0.2899 -0.2051
12818SOL    HW139895   2.699   2.683   2.893  0.3345 -0.9438 -0.0787
12818SOL    HW239896   2.681   2.703   2.744  1.0338 -0.4684 -0.1060
12819SOL     OW39897   7.426   2.506   8.339  0.0836 -0.5180  0.0245
12819SOL    HW139898   7.446   2.419   8.306  0.1585 -0.5252  0.0884
12819SOL    HW239899   7.511   2.549   8.346  0.2904 -1.1680  2.0810
12820SOL     OW39900   7.298   0.350   9.899 -0.1570 -0.3993  0.0617
12820SOL    HW139901   7.382   0.363   9.855  0.2934  0.0638  1.0226
12820SOL    HW239902   7.276   0.437   9.933  0.5881 -1.1351  2.6006
12821SOL     OW39903   7.762   3.851   1.824 -0.2751 -0.0776  0.0814
12821SOL    HW139904   7.697   3.919   1.803 -0.4801 -0.3452 -0.1489
12821SOL    HW239905   7.723   3.770   1.793 -0.8094 -0.5732  1.9272
12822SOL     OW39906   1.626   6.012   6.021 -0.0347 -0.2248  0.4631
12822SOL    HW139907   1.550   5.959   5.999 -0.4786  0.0407  1.3408
12822SOL    HW239908   1.653   6.050   5.937 -0.9648 -0.1826  0.1714
12823SOL     OW39909   5.811   2.906   9.870  0.0122 -0.2872  0.3071
12823SOL    HW139910   5.742   2.965   9.841  0.3464 -0.0327  0.0173
12823SOL    HW239911   5.786   2.881   9.959  0.4290  1.1556  0.8561
12824SOL     OW39912   1.404   4.487   1.217 -0.2605 -0.0240  0.1944
12824SOL    HW139913   1.313   4.516   1.223  0.1798  1.1321  2.3502
12824SOL    HW239914   1.433   4.479   1.308  1.6810 -0.7765 -0.4355
12825SOL     OW39915   7.469   3.451   5.567  0.0970 -0.2842  0.4930
12825SOL    HW139916   7.506   3.530   5.608  2.8472 -1.1170 -0.1356
12825SOL    HW239917   7.486   3.464   5.473 -0.5340 -1.0855  0.2653
12826SOL     OW39918   1.849   5.772   0.920  0.2891  0.3334 -0.3430
12826SOL    HW139919   1.804   5.812   0.846  0.4797 -0.8732 -1.1452
12826SOL    HW239920   1.880   5.846   0.972 -0.9450  1.1974 -0.7860
12827SOL     OW39921   4.027   6.628   6.592 -0.6617 -0.6793  0.0204
12827SOL    HW139922   3.984   6.711   6.574 -1.8666 -1.0444  1.0425
12827SOL    HW239923   4.074   6.643   6.674  0.4718 -0.5433 -0.6362
12828SOL     OW39924   1.851   7.141  10.174  0.0783 -0.2558  0.5989
12828SOL    HW139925   1.907   7.128  10.250  1.6325  1.9163 -0.0613
12828SOL    HW239926   1.900   7.106  10.100 -0.1053  0.2468  0.2253
12829SOL     OW39927   0.255   5.171  10.114 -0.0559 -0.0171 -0.0999
12829SOL    HW139928   0.322   5.217  10.164  0.4537 -2.1151  1.3227
12829SOL    HW239929   0.228   5.099  10.172 -1.5983 -0.8173 -1.7152
12830SOL     OW39930   1.388   1.449   4.965  0.1023 -0.2206 -0.8944
12830SOL    HW139931   1.316   1.508   4.988 -0.1850 -1.4075  1.5750
12830SOL    HW239932   1.380   1.377   5.027  2.0077 -1.5743 -2.1317
12831SOL     OW39933   4.214   1.724   5.660 -0.3064 -0.0902 -0.2055
12831SOL    HW139934   4.134   1.676   5.682 -0.7603  0.8097  0.1592
12831SOL    HW239935   4.195   1.814   5.685  0.5723  0.2617 -0.7785
12832SOL     OW39936   6.526   7.096  11.507  0.0326 -0.1349 -0.1804
12832SOL    HW139937   6.431   7.087  11.508 -0.2306  1.7663 -1.7732
12832SOL    HW239938   6.559   7.008  11.485 -1.4401 -0.4828 -1.1166
12833SOL     OW39939   4.944   5.205   9.022 -0.2683 -0.7570 -0.3751
12833SOL    HW139940   4.932   5.113   8.999 -1.0269 -1.3016  1.9857
12833SOL    HW239941   4.947   5.206   9.117 -0.2195  1.6728 -0.3469
12834SOL     OW39942   0.652   5.701   9.940  0.2190  0.1636  0.1883
12834SOL    HW139943   0.607   5.618   9.921  0.7123  0.0024 -0.3185
12834SOL    HW239944   0.621   5.761   9.872 -1.3559  0.8843  1.4770
12835SOL     OW39945   0.033   2.412  11.663  0.1970 -0.3504  0.4722
12835SOL    HW139946   0.033   2.334  11.718 -0.1263 -0.2495  0.6123
12835SOL    HW239947   0.124   2.420  11.633  0.4382 -0.2355  1.2219
12836SOL     OW39948   1.982   6.686   3.080  0.9633 -0.0844 -0.3159
12836SOL    HW139949   1.969   6.695   3.175 -0.3658 -0.8767 -0.3907
12836SOL    HW239950   1.966   6.773   3.045 -0.3763 -0.1640  0.0318
12837SOL     OW39951   7.511   4.911  10.908  0.0990  0.3206  0.3064
12837SOL    HW139952   7.506   4.816  10.916 -1.6199  0.4691  1.3789
12837SOL    HW239953   7.478   4.930  10.820  0.2523 -0.0502  0.1689
12838SOL     OW39954   5.241   1.999  11.685  0.4547  0.2702 -0.7839
12838SOL    HW139955   5.259   2.092  11.697 -0.8199  0.3539  0.8000
12838SOL    HW239956   5.180   1.996  11.611  2.0292  0.4783 -2.1482
12839SOL     OW39957   6.366   1.196   2.200 -0.5375  0.4859  0.2254
12839SOL    HW139958   6.345   1.228   2.288  0.1668 -0.9594  0.9539
12839SOL    HW239959   6.459   1.215   2.190 -0.1751 -1.0192  0.5582
12840SOL     OW39960   6.472   0.239   0.122  0.1812 -0.2657  0.1381
12840SOL    HW139961   6.533   0.313   0.122 -1.5129  1.1822  0.4928
12840SOL    HW239962   6.478   0.203   0.210  0.3211  0.0221  0.2472
12841SOL     OW39963   0.256   5.464  11.482  0.0421  0.4220 -0.3848
12841SOL    HW139964   0.272   5.372  11.459 -0.7764  0.3081 -0.5272
12841SOL    HW239965   0.240   5.462  11.577  2.4384  0.7615  0.0951
12842SOL     OW39966   4.034   1.282   1.447  0.2351  0.2606 -0.1584
12842SOL    HW139967   3.941   1.278   1.422  0.0456  2.1944  0.0634
12842SOL    HW239968   4.034   1.327   1.532  1.3910  0.6182 -0.3335
12843SOL     OW39969   0.541   7.153   1.609 -0.5964 -0.0785  0.4168
12843SOL    HW139970   0.473   7.100   1.567  0.8589 -1.1589 -0.6940
12843SOL    HW239971   0.535   7.239   1.567  1.1784 -1.2792 -2.5850
12844SOL     OW39972   5.663   0.218  11.574  0.7428 -0.2391  0.2937
12844SOL    HW139973   5.581   0.194  11.618  0.1727  0.6651 -0.2469
12844SOL    HW239974   5.732   0.186  11.633  0.0630 -3.0436 -0.2849
12845SOL     OW39975   6.122   5.379   7.978 -0.3492  0.4843  0.1668
12845SOL    HW139976   6.047   5.320   7.983 -0.2607  0.4812  1.9755
12845SOL    HW239977   6.154   5.385   8.068  1.5709  0.8205 -0.4994
12846SOL     OW39978   0.131   6.046   3.935 -0.5955  0.1344  0.2929
12846SOL    HW139979   0.117   6.141   3.941 -0.9841  0.2571 -1.7558
12846SOL    HW239980   0.111   6.025   3.844 -2.3355 -2.2446  1.1442
12847SOL     OW39981   5.505   0.455   8.761 -0.3570 -0.2194 -0.0217
12847SOL    HW139982   5.555   0.505   8.825 -1.6614  0.4479  0.5242
12847SOL    HW239983   5.415   0.488   8.769 -1.2873 -2.5879  0.3061
12848SOL     OW39984   6.035   1.782   6.879 -0.1399 -0.5548 -0.6832
12848SOL    HW139985   6.073   1.869   6.890  2.0172 -1.4751 -0.4183
12848SOL    HW239986   6.092   1.738   6.817 -2.6551 -1.0051 -2.8535
12849SOL     OW39987   3.908   1.561   4.994 -0.3800 -0.0923 -0.0024
12849SOL    HW139988   3.818   1.531   4.982 -0.5970 -0.6875  2.5359
12849SOL    HW239989   3.921   1.561   5.089  1.2116  3.2767 -0.0902
12850SOL     OW39990   7.257   5.324   0.121 -0.0241 -0.0073  0.5864
12850SOL    HW139991   7.211   5.394   0.167  3.9282  1.8380  2.2294
12850SOL    HW239992   7.255   5.350   0.029 -0.6570  1.0109  0.8752
12851SOL     OW39993   3.997   1.978   0.744 -0.1286  0.3699  0.3728
12851SOL    HW139994   4.003   1.913   0.673 -0.1543  0.3571  0.3824
12851SOL    HW239995   4.067   1.953   0.804  0.5111  0.9424 -0.1164
12852SOL     OW39996   3.817   2.793   8.145 -0.2517  0.2719  0.1088
12852SOL    HW139997   3.766   2.856   8.095 -0.7517 -0.9160 -0.9592
12852SOL    HW239998   3.858   2.844   8.215  1.5289  2.2708 -2.2439
12853SOL     OW39999   5.440   7.831  11.201 -0.1726  0.4656 -0.4272
12853SOL    HW140000   5.414   7.754  11.150 -1.3224  0.4484  0.1737
12853SOL    HW240001   5.374   7.897  11.181 -1.0053  0.2576  1.5193
12854SOL     OW40002   5.759   4.858   4.697 -0.4142 -0.7144  0.4768
12854SOL    HW140003   5.791   4.770   4.716  0.3934 -0.7999 -1.1669
12854SOL    HW240004   5.771   4.869   4.603  0.6063  1.5818  0.7985
12855SOL     OW40005   0.452   2.943   2.010  0.1580 -0.4520 -0.1831
12855SOL    HW140006   0.528   2.928   2.065  0.6035 -3.2567 -1.3936
12855SOL    HW240007   0.418   2.855   1.992 -3.2318  0.6460  0.0682
12856SOL     OW40008   1.620   0.829   3.684  0.1794 -0.2918 -0.1100
12856SOL    HW140009   1.546   0.770   3.699 -1.6000  1.6562 -0.6582
12856SOL    HW240010   1.616   0.847   3.590  0.3598  1.0536  0.1280
12857SOL     OW40011   7.140   7.813   3.741  0.0277 -0.2433 -0.0767
12857SOL    HW140012   7.130   7.721   3.716  1.8826 -0.8835  1.3600
12857SOL    HW240013   7.057   7.835   3.783 -0.6879 -1.0463 -1.0115
12858SOL     OW40014   4.907   2.498   1.123  0.2960 -0.4726 -0.2782
12858SOL    HW140015   4.917   2.440   1.048 -0.4804  0.7582 -1.3738
12858SOL    HW240016   4.920   2.586   1.088 -0.7336  0.1831  0.8931
12859SOL     OW40017   7.575   1.308   1.813 -0.3509  0.0203 -0.1962
12859SOL    HW140018   7.540   1.378   1.868  1.2118  1.7979 -1.3610
12859SOL    HW240019   7.511   1.299   1.742  0.0411  1.1999 -0.7261
12860SOL     OW40020   0.618   0.560   9.427 -0.2946  0.1452 -0.6487
12860SOL    HW140021   0.608   0.465   9.434 -0.1883  0.1350 -0.6205
12860SOL    HW240022   0.565   0.585   9.352 -0.4201  0.0800 -0.5817
12861SOL     OW40023   3.579   4.280   2.778 -0.4413 -0.1425 -0.1913
12861SOL    HW140024   3.573   4.273   2.874  0.8971 -0.8097 -0.1338
12861SOL    HW240025   3.646   4.347   2.764 -0.2402 -0.4425 -0.6577
12862SOL     OW40026   4.079   4.041   1.829  0.2706  0.2542  0.2396
12862SOL    HW140027   4.154   4.002   1.782 -0.6665  1.4503 -2.4848
12862SOL    HW240028   4.102   4.133   1.837 -1.7922  1.2376 -3.0103
12863SOL     OW40029   7.020   1.340   5.214  0.2077 -0.0624  0.5302
12863SOL    HW140030   7.103   1.321   5.257 -1.4024 -2.7841  2.8075
12863SOL    HW240031   7.036   1.320   5.122  1.5496 -2.9150  1.2667
12864SOL     OW40032   3.264   1.147   3.725  0.4367  0.0765 -0.1112
12864SOL    HW140033   3.259   1.119   3.634  0.4977 -1.8005  0.4390
12864SOL    HW240034   3.177   1.183   3.744 -0.3232 -1.5756 -0.2922
12865SOL     OW40035   5.934   7.296   4.230  0.3312 -0.0001 -0.1693
12865SOL    HW140036   5.905   7.217   4.185 -0.7405 -0.9656  2.0858
12865SOL    HW240037   5.856   7.351   4.236  0.7716  0.6907 -0.5789
12866SOL     OW40038   1.210   7.450   0.289 -0.1367 -0.3752 -0.1396
12866SOL    HW140039   1.211   7.369   0.340  0.9311 -0.2559  0.0377
12866SOL    HW240040   1.153   7.509   0.339 -0.4630 -0.8215  0.0210
12867SOL     OW40041   0.751   5.328   9.575  0.0606 -0.2505  0.7455
12867SOL    HW140042   0.783   5.349   9.487 -0.1537 -1.4524  0.3611
12867SOL    HW240043   0.809   5.258   9.605  0.8571  0.9169  2.0417
12868SOL     OW40044   3.133   1.768  12.128  0.3452 -0.0796 -0.7573
12868SOL    HW140045   3.085   1.696  12.169  1.2138 -0.7068 -0.8264
12868SOL    HW240046   3.065   1.832  12.107 -0.1961  0.0713  1.2393
12869SOL     OW40047   5.883   5.948   6.805  0.5210 -1.0985 -0.0088
12869SOL    HW140048   5.896   5.869   6.753  0.4880 -1.2453  0.2049
12869SOL    HW240049   5.935   6.015   6.761  1.1792 -1.4262  0.2534
12870SOL     OW40050   6.608   0.329   5.484  0.0720  0.0278  0.0242
12870SOL    HW140051   6.595   0.418   5.516  1.6895 -0.9991  4.0268
12870SOL    HW240052   6.703   0.320   5.476  0.1462 -2.0477  2.3239
12871SOL     OW40053   1.381   0.790   0.501 -0.3241  0.2192  0.1767
12871SOL    HW140054   1.285   0.792   0.503 -0.3248  0.0055  0.4961
12871SOL    HW240055   1.407   0.793   0.593 -0.0098  0.7097  0.0749
12872SOL     OW40056   3.565   4.479   6.309  0.4706  0.2398 -0.0240
12872SOL    HW140057   3.496   4.423   6.346  0.5228 -0.4335 -0.9318
12872SOL    HW240058   3.566   4.556   6.367 -0.6726  0.0201  0.3199
12873SOL     OW40059   2.411   6.319  11.905 -0.4175 -0.3860  0.2790
12873SOL    HW140060   2.367   6.317  11.820  0.6544  0.6885 -0.3291
12873SOL    HW240061   2.489   6.266  11.893  0.7461  1.3217 -0.0281
12874SOL     OW40062   5.066   4.476   9.345 -0.2288  0.4359  0.1519
12874SOL    HW140063   4.996   4.503   9.286  1.0475  0.3024 -1.5054
12874SOL    HW240064   5.147   4.503   9.300  0.9335 -2.3143  0.3954
12875SOL     OW40065   3.942   1.159   8.363  0.5088  0.1877  0.1126
12875SOL    HW140066   3.936   1.170   8.268 -1.1650  1.7026  0.3362
12875SOL    HW240067   3.945   1.248   8.397  2.1011 -0.3399  1.4658
12876SOL     OW40068   4.433   1.876   6.544  0.1828 -0.6575  0.0735
12876SOL    HW140069   4.394   1.958   6.574 -0.2331 -0.0857 -1.8532
12876SOL    HW240070   4.516   1.869   6.591  0.8392  1.5429 -0.6464
12877SOL     OW40071   5.896   3.411   8.359 -0.2049  0.3070 -0.0726
12877SOL    HW140072   5.931   3.431   8.273 -0.2808  0.5319 -0.0503
12877SOL    HW240073   5.803   3.436   8.355  0.1951  2.0367  0.6322
12878SOL     OW40074   2.131   2.665   1.136  0.2467  0.3300  0.2545
12878SOL    HW140075   2.120   2.759   1.123  1.1542  0.5310  0.8005
12878SOL    HW240076   2.219   2.657   1.174 -0.4884 -0.5763  1.8767
12879SOL     OW40077   7.590   7.938   5.303 -0.0543  0.0460 -0.1555
12879SOL    HW140078   7.504   7.909   5.274 -0.2421  0.5384 -0.0929
12879SOL    HW240079   7.594   8.030   5.278  0.1114  0.2527  0.6280
12880SOL     OW40080   3.358   2.230   4.451  0.2569  0.2253  0.1932
12880SOL    HW140081   3.369   2.142   4.486  2.3136 -0.0769 -1.0025
12880SOL    HW240082   3.380   2.288   4.524 -0.5730 -0.2578  0.8328
12881SOL     OW40083   0.355   2.869   5.194 -0.5978 -0.5163  0.7488
12881SOL    HW140084   0.286   2.916   5.242  0.2209  0.9503  0.5231
12881SOL    HW240085   0.317   2.851   5.108 -0.3498  1.2632  0.2374
12882SOL     OW40086   1.746   7.780  12.398 -0.3164  0.0411 -0.5874
12882SOL    HW140087   1.746   7.868  12.434  0.8536  0.5829 -1.7942
12882SOL    HW240088   1.759   7.723  12.474  0.7616  1.0382  0.0189
12883SOL     OW40089   4.216   3.814   1.975 -0.2815 -0.0165 -0.7803
12883SOL    HW140090   4.301   3.851   1.952 -0.1541  1.2333  1.4141
12883SOL    HW240091   4.155   3.888   1.965 -0.6594 -0.1966  0.1320
12884SOL     OW40092   1.277   1.909   1.274 -0.0787 -0.0914  0.0242
12884SOL    HW140093   1.205   1.925   1.334  1.6764 -0.5652  2.3832
12884SOL    HW240094   1.243   1.842   1.214 -1.6685 -0.1457  0.9329
12885SOL     OW40095   4.712   2.433   8.465 -0.8016  0.0024  0.6169
12885SOL    HW140096   4.777   2.363   8.464  0.1022  0.8195  0.3662
12885SOL    HW240097   4.648   2.405   8.530 -0.7728 -1.3299  0.0950
12886SOL     OW40098   7.376   2.096   9.614  0.3429  0.0749 -0.0915
12886SOL    HW140099   7.406   2.094   9.524 -2.1847 -0.4308 -1.0148
12886SOL    HW240100   7.359   2.189   9.632  1.5093  0.2568  0.1373
12887SOL     OW40101   0.319   5.260   8.460 -0.5923  0.3293 -0.2306
12887SOL    HW140102   0.386   5.323   8.433  0.3732 -0.4995  0.1717
12887SOL    HW240103   0.249   5.314   8.495 -1.4605  1.4122 -3.3026
12888SOL     OW40104   6.883   5.890   2.491 -0.5473 -0.1817  0.0580
12888SOL    HW140105   6.820   5.889   2.419  1.8217 -0.6917 -2.1554
12888SOL    HW240106   6.957   5.941   2.458  1.2851 -1.7365  1.5156
12889SOL     OW40107   6.437   5.517   6.042  0.3099  0.0124 -0.5293
12889SOL    HW140108   6.403   5.604   6.065  1.1076  0.0480  0.6205
12889SOL    HW240109   6.369   5.456   6.072 -0.4543  0.2352 -1.7445
12890SOL     OW40110   6.284   5.129  12.030 -0.0352  0.7186 -0.1675
12890SOL    HW140111   6.312   5.186  12.101 -2.3778  0.9314  0.6700
12890SOL    HW240112   6.220   5.070  12.070 -1.2381  0.6721 -2.0172
12891SOL     OW40113   0.840   5.352   9.300 -0.3358 -0.1831  0.1571
12891SOL    HW140114   0.879   5.345   9.213 -1.3112 -1.0474 -0.2365
12891SOL    HW240115   0.906   5.317   9.359  1.0058  1.9181  0.0027
12892SOL     OW40116   4.411   7.254   2.825  0.1795  0.0433 -0.0228
12892SOL    HW140117   4.394   7.318   2.894 -1.3171  2.1173 -2.1628
12892SOL    HW240118   4.330   7.203   2.819 -0.1566  0.6609 -0.9769
12893SOL     OW40119   2.796   6.615   5.519  0.0857  0.1868  0.5646
12893SOL    HW140120   2.851   6.617   5.441  1.4619 -1.7305  1.4085
12893SOL    HW240121   2.837   6.550   5.576 -1.0604  1.2781  2.7662
12894SOL     OW40122   4.939   7.606   2.207 -0.4951 -0.7129  0.2759
12894SOL    HW140123   4.937   7.638   2.297 -0.6615 -1.1756  0.4396
12894SOL    HW240124   4.892   7.673   2.157  1.9423  0.9481  0.0524
12895SOL     OW40125   3.074   7.680   0.254  0.3651  0.0836 -0.0730
12895SOL    HW140126   3.015   7.731   0.309 -0.6721 -2.3121  1.1957
12895SOL    HW240127   3.018   7.641   0.187  0.5924 -1.5191  0.6149
12896SOL     OW40128   6.277   2.432   5.394  0.4728 -0.4304  0.0578
12896SOL    HW140129   6.216   2.505   5.392  1.3015  0.3294  1.3449
12896SOL    HW240130   6.240   2.369   5.331 -0.8804  0.5697 -0.2102
12897SOL     OW40131   6.512   3.346   9.006  0.2048 -0.0194 -0.1879
12897SOL    HW140132   6.470   3.378   9.086 -2.4488 -1.7755 -0.7489
12897SOL    HW240133   6.470   3.395   8.935  0.6995 -0.2612 -0.6553
12898SOL     OW40134   1.141   1.275   3.013 -0.0032  0.6674  0.3944
12898SOL    HW140135   1.216   1.237   2.967 -0.9393 -0.2471 -0.4190
12898SOL    HW240136   1.109   1.343   2.954  0.4980  1.4405  0.9894
12899SOL     OW40137   2.462   4.439   9.707 -0.3066 -0.6440  0.0707
12899SOL    HW140138   2.510   4.377   9.762 -0.5190 -0.0145  0.9889
12899SOL    HW240139   2.494   4.423   9.618  1.2447 -0.5689  0.5915
12900SOL     OW40140   1.373   5.402   8.548 -0.1801  0.2692 -0.0542
12900SOL    HW140141   1.441   5.344   8.516  0.5070 -0.1052  1.9347
12900SOL    HW240142   1.401   5.425   8.637 -1.5242  1.9056  0.0015
12901SOL     OW40143   7.339   2.184   0.981 -1.0836  0.0737 -0.0791
12901SOL    HW140144   7.307   2.274   0.972 -2.0757 -0.2516  0.0287
12901SOL    HW240145   7.399   2.172   0.908 -1.0431  0.7811 -0.1666
12902SOL     OW40146   1.326   6.430   4.288 -0.1175 -0.1700 -0.6563
12902SOL    HW140147   1.416   6.410   4.262 -0.3654 -4.0401  0.8751
12902SOL    HW240148   1.271   6.390   4.220 -0.6511 -1.4852  0.5027
12903SOL     OW40149   7.419   6.228   6.437  0.6915  0.5051  0.2114
12903SOL    HW140150   7.372   6.277   6.505  1.5782 -2.9156  3.6254
12903SOL    HW240151   7.510   6.230   6.465  0.8959 -2.1387 -0.0292
12904SOL     OW40152   0.399   3.667   0.625  0.3834  0.3570  0.1003
12904SOL    HW140153   0.402   3.596   0.689 -3.0078  0.0529  0.0949
12904SOL    HW240154   0.487   3.705   0.627  1.1472 -1.2770  3.0249
12905SOL     OW40155   2.472   0.107  11.319  0.2396 -0.5455  0.1551
12905SOL    HW140156   2.406   0.037  11.318 -0.3072 -0.0558  0.6532
12905SOL    HW240157   2.546   0.068  11.365  0.0336 -0.8883  0.2061
12906SOL     OW40158   4.981   5.038   9.638 -0.8321  0.5113 -0.7557
12906SOL    HW140159   4.971   4.954   9.594 -0.2050  0.2641 -0.4356
12906SOL    HW240160   5.068   5.069   9.612 -0.1778  0.0707  0.7838
12907SOL     OW40161   3.760   6.509   5.895  0.2768 -0.1956  0.7675
12907SOL    HW140162   3.686   6.450   5.881  0.1526  0.1130  0.0371
12907SOL    HW240163   3.805   6.475   5.972  0.9620 -2.0145 -0.3728
12908SOL     OW40164   4.096   0.467   8.359 -0.2317 -0.1608 -0.1252
12908SOL    HW140165   4.116   0.554   8.324 -0.5915  0.5184  1.3118
12908SOL    HW240166   4.058   0.420   8.284 -0.3829  1.0282 -0.8286
12909SOL     OW40167   7.890   6.562   6.519  1.1332  0.2086 -0.0647
12909SOL    HW140168   7.827   6.569   6.448  0.4081 -0.8731  0.4358
12909SOL    HW240169   7.965   6.613   6.490 -0.1184  1.8990 -0.5035
12910SOL     OW40170   0.889   4.232   4.312 -0.0370 -0.4318  0.5458
12910SOL    HW140171   0.983   4.214   4.321  0.8778  2.3042 -1.8027
12910SOL    HW240172   0.875   4.313   4.361 -0.0726  1.6169 -2.6056
12911SOL     OW40173   7.714   1.729   8.610  0.0249  0.0591 -0.1778
12911SOL    HW140174   7.787   1.718   8.671 -0.4639 -0.5583  0.3035
12911SOL    HW240175   7.637   1.735   8.666 -0.4143 -0.3488 -0.7362
12912SOL     OW40176   2.973   4.937   1.411  0.0686  0.9891 -0.1480
12912SOL    HW140177   2.909   4.979   1.468 -1.9050  0.2421 -1.7051
12912SOL    HW240178   3.022   4.879   1.469 -2.0929  0.0153  0.7862
12913SOL     OW40179   4.771   0.671   4.033 -0.1992 -0.0604  0.7017
12913SOL    HW140180   4.685   0.687   3.993  0.2778  0.6828 -0.0493
12913SOL    HW240181   4.831   0.727   3.984  0.4200  0.8669  2.4520
12914SOL     OW40182   0.523   2.505   6.925  0.6212  0.1917 -0.7546
12914SOL    HW140183   0.480   2.428   6.889  1.2137  0.5383 -2.3337
12914SOL    HW240184   0.574   2.540   6.851  1.7196  1.1102  0.3910
12915SOL     OW40185   4.048   1.555   3.629  0.4491 -0.4652  0.2690
12915SOL    HW140186   4.074   1.647   3.625 -0.0952 -0.3121  0.1696
12915SOL    HW240187   3.960   1.556   3.667  2.0170 -1.2537  4.4101
12916SOL     OW40188   2.031   5.198   7.775  0.1313  0.0502  0.3574
12916SOL    HW140189   2.087   5.211   7.699  0.0971  0.1309  0.3466
12916SOL    HW240190   2.040   5.278   7.827 -1.3202  0.8139 -0.5126
12917SOL     OW40191   5.083   4.601   1.989 -0.3652 -0.4558 -0.5324
12917SOL    HW140192   5.038   4.682   1.965  0.9212  0.1684 -0.8959
12917SOL    HW240193   5.155   4.594   1.927  0.7319 -0.8323  0.7509
12918SOL     OW40194   7.568   3.859   7.934 -0.1038  0.3560  0.5055
12918SOL    HW140195   7.517   3.831   7.858  0.7740 -2.0255  0.7113
12918SOL    HW240196   7.569   3.955   7.928 -2.7922  0.4096 -0.6356
12919SOL     OW40197   3.677   4.699   6.543  0.2367  0.1273 -0.1616
12919SOL    HW140198   3.716   4.770   6.491 -0.5687  0.9713  0.3616
12919SOL    HW240199   3.591   4.732   6.567  0.3810 -0.4640  1.2622
12920SOL     OW40200   5.116   0.823   5.156  0.2036  0.3794  0.6643
12920SOL    HW140201   5.190   0.762   5.156  1.1773  1.5325  0.9849
12920SOL    HW240202   5.126   0.871   5.074 -1.1750 -0.5806 -0.1033
12921SOL     OW40203   7.635   3.284   3.738  0.8718 -0.4188 -0.5246
12921SOL    HW140204   7.719   3.322   3.713  1.9411 -1.0729  1.7890
12921SOL    HW240205   7.646   3.190   3.725  0.5846 -0.5301 -0.0180
12922SOL     OW40206   4.624   1.892   8.384 -0.3027  0.0858  0.2830
12922SOL    HW140207   4.641   1.985   8.368 -1.9526  0.3991  0.1746
12922SOL    HW240208   4.642   1.849   8.301  1.1376  0.1863  0.5208
12923SOL     OW40209   2.782   2.789   6.686 -0.0920 -0.3967 -0.1518
12923SOL    HW140210   2.705   2.780   6.741  0.5131 -0.0807  0.7765
12923SOL    HW240211   2.783   2.882   6.661  0.2751 -0.2753  0.2936
12924SOL     OW40212   5.787   0.992   2.053  0.2412  0.0702  0.4608
12924SOL    HW140213   5.734   0.953   1.983  0.4920 -0.0281  0.3236
12924SOL    HW240214   5.745   0.964   2.134 -0.8467  1.2703  0.3577
12925SOL     OW40215   3.992   6.467   0.676  0.4148  0.4081  0.1241
12925SOL    HW140216   3.903   6.439   0.656 -0.1578  2.0863  0.1484
12925SOL    HW240217   4.045   6.388   0.666 -0.9361 -0.4297 -0.7566
12926SOL     OW40218   3.224   6.871   2.945 -0.4210 -0.1874  0.1857
12926SOL    HW140219   3.250   6.957   2.911  0.7871 -0.5602  0.0948
12926SOL    HW240220   3.129   6.868   2.934 -0.8125  1.9843  2.1442
12927SOL     OW40221   1.526   0.560  10.194  0.7778 -0.2548 -0.4067
12927SOL    HW140222   1.434   0.537  10.201  0.4519  0.8437 -0.9512
12927SOL    HW240223   1.530   0.624  10.124  1.6829  1.0722  0.7888
12928SOL     OW40224   2.113   4.177   8.048  0.6332 -0.7167 -0.5701
12928SOL    HW140225   2.167   4.249   8.016  0.1131 -0.0521  0.0036
12928SOL    HW240226   2.024   4.200   8.020  0.1566 -0.0899  1.3409
12929SOL     OW40227   6.707   1.031   4.150  0.4031 -0.0310 -0.2654
12929SOL    HW140228   6.709   1.038   4.055 -0.8965 -1.6631 -0.4560
12929SOL    HW240229   6.679   0.941   4.167  1.0123  0.0987  1.6708
12930SOL     OW40230   0.487   2.083   4.957  0.2268 -0.3146  0.3281
12930SOL    HW140231   0.466   2.071   5.049  0.3985 -1.0857  0.2770
12930SOL    HW240232   0.567   2.135   4.957 -0.1171  0.2139  0.5960
12931SOL     OW40233   6.356   4.794   1.097 -0.0407  0.5887  0.4674
12931SOL    HW140234   6.432   4.843   1.127  0.3078 -0.0027  0.5804
12931SOL    HW240235   6.375   4.703   1.123  0.3537  0.0087 -1.6419
12932SOL     OW40236   2.000   3.041   4.716  0.1493 -0.5651 -0.5970
12932SOL    HW140237   1.931   3.075   4.773  0.4582 -2.6856  1.1429
12932SOL    HW240238   2.070   3.107   4.722 -1.6439  1.7100 -2.5285
12933SOL     OW40239   1.704   3.314   5.263  0.5572 -0.2983 -0.1839
12933SOL    HW140240   1.627   3.288   5.313  0.3413 -1.2777 -1.0006
12933SOL    HW240241   1.690   3.407   5.245 -0.1077 -0.3098  0.2329
12934SOL     OW40242   5.345   7.283   2.075  0.3950  0.1124  0.3333
12934SOL    HW140243   5.263   7.312   2.114  0.1490  0.9213 -0.7252
12934SOL    HW240244   5.385   7.363   2.041  0.9074 -0.4587 -0.4602
12935SOL     OW40245   4.183   5.954   3.762  0.0182  0.2523 -0.1963
12935SOL    HW140246   4.143   6.024   3.813  0.3978  0.6599 -0.4551
12935SOL    HW240247   4.274   5.980   3.752  0.4028 -0.7378  0.5183
12936SOL     OW40248   5.254   6.392   1.249 -0.1648 -0.4024  0.2328
12936SOL    HW140249   5.180   6.382   1.189 -0.3874 -0.6456  0.5449
12936SOL    HW240250   5.326   6.421   1.193 -0.7180  0.7192  0.0558
12937SOL     OW40251   3.372   2.519   3.535 -0.6900 -0.0745 -0.1449
12937SOL    HW140252   3.318   2.445   3.509 -1.6510  0.7528 -0.6036
12937SOL    HW240253   3.316   2.596   3.520  0.0286  0.6963  0.9345
12938SOL     OW40254   2.047   1.032   8.804 -0.0549 -0.3516 -0.2352
12938SOL    HW140255   2.075   0.966   8.741 -1.4943 -1.0373 -0.2036
12938SOL    HW240256   2.085   1.114   8.771  0.1618 -0.8851 -1.3615
12939SOL     OW40257   3.883   6.731   7.917 -0.1135  0.0696  0.1035
12939SOL    HW140258   3.977   6.748   7.925 -0.3135  1.0136  0.6182
12939SOL    HW240259   3.848   6.810   7.877 -0.6967 -0.2741 -0.0755
12940SOL     OW40260   1.143   4.577   0.499 -0.0624  0.3110 -0.1070
12940SOL    HW140261   1.194   4.621   0.566  1.6986  0.2245 -1.3131
12940SOL    HW240262   1.052   4.591   0.524  0.4974 -0.7479  2.9243
12941SOL     OW40263   4.787   1.832   6.070 -0.5019  0.1631  0.3667
12941SOL    HW140264   4.754   1.835   6.160  0.7101  0.4318  0.8278
12941SOL    HW240265   4.881   1.816   6.080  0.2735  3.3110 -0.6974
12942SOL     OW40266   1.185   2.155   2.806  0.2096  0.1235  0.3481
12942SOL    HW140267   1.153   2.112   2.884 -2.2930 -0.1662 -0.7573
12942SOL    HW240268   1.209   2.084   2.747 -0.5936  0.2677 -0.1709
12943SOL     OW40269   6.339   2.116  10.871  0.2375 -0.1707 -0.4939
12943SOL    HW140270   6.323   2.050  10.940  0.8530  1.2599  1.0809
12943SOL    HW240271   6.388   2.069  10.804  0.8355 -1.2831  0.6829
12944SOL     OW40272   7.230   4.104   6.222 -0.4210  0.0081 -0.4128
12944SOL    HW140273   7.208   4.172   6.159 -2.0040 -0.5145 -0.4609
12944SOL    HW240274   7.303   4.141   6.272  0.2438  0.8098 -1.9044
12945SOL     OW40275   3.919   7.533   4.861  0.4152 -0.3328  0.2831
12945SOL    HW140276   3.966   7.499   4.938  2.5968  0.4863 -0.6180
12945SOL    HW240277   3.967   7.498   4.786  0.0883  1.1937 -0.6829
12946SOL     OW40278   0.459   0.844   1.189 -0.7126  0.2253  0.0935
12946SOL    HW140279   0.408   0.884   1.119 -0.3740  2.1255  0.8604
12946SOL    HW240280   0.545   0.886   1.183 -0.1801 -0.7403  0.6700
12947SOL     OW40281   0.765   5.024   6.725  0.1881  0.2169 -0.4998
12947SOL    HW140282   0.732   5.086   6.660 -0.7312 -0.0349 -0.2797
12947SOL    HW240283   0.841   4.984   6.683  0.4599  1.0842 -0.8579
12948SOL     OW40284   0.288   6.710   5.492 -0.3574 -0.1045 -0.0118
12948SOL    HW140285   0.244   6.694   5.576  0.0553 -1.3506 -0.0226
12948SOL    HW240286   0.355   6.776   5.513 -0.0111 -0.6785  0.7242
12949SOL     OW40287   6.093   1.038   0.896 -0.0142 -0.0421 -0.1383
12949SOL    HW140288   6.028   1.103   0.924  0.1850  0.4473 -0.7898
12949SOL    HW240289   6.047   0.954   0.902 -0.4638  0.2208  0.1370
12950SOL     OW40290   7.244   2.615  10.825  0.0515 -0.1154  0.3650
12950SOL    HW140291   7.186   2.627  10.750 -1.5670 -1.5122  1.3284
12950SOL    HW240292   7.211   2.537  10.868  2.5357 -0.8477  1.1063
12951SOL     OW40293   2.327   1.071   7.114 -0.7322 -0.1003 -0.1737
12951SOL    HW140294   2.272   1.017   7.057 -0.4034  0.5444 -1.1394
12951SOL    HW240295   2.348   1.015   7.188 -1.9818 -0.6382 -0.2106
12952SOL     OW40296   5.718   7.316   5.156  0.3294  0.0352  0.2536
12952SOL    HW140297   5.660   7.250   5.119  1.2239 -1.4667  1.4257
12952SOL    HW240298   5.718   7.299   5.250  1.8420  0.6584  0.4080
12953SOL     OW40299   0.327   3.083  10.057 -0.2599  0.0106 -0.1843
12953SOL    HW140300   0.416   3.101  10.024  0.1281 -2.1780 -0.5024
12953SOL    HW240301   0.271   3.098   9.981  0.1375 -0.9051 -0.6746
12954SOL     OW40302   3.571   2.967   9.513 -0.1954  0.3669  0.7653
12954SOL    HW140303   3.605   2.894   9.460  1.4982  0.9066  1.0441
12954SOL    HW240304   3.528   2.925   9.587  2.0695 -0.4050  1.7275
12955SOL     OW40305   1.285   7.318   5.807  0.0012 -0.4352  0.9509
12955SOL    HW140306   1.274   7.409   5.831  3.2801  0.1538  0.7401
12955SOL    HW240307   1.198   7.288   5.783 -1.0354  2.9161  0.0621
12956SOL     OW40308   6.216   5.847   3.736  0.1078  0.0940  0.6276
12956SOL    HW140309   6.243   5.852   3.644 -1.1204 -0.0287  0.2447
12956SOL    HW240310   6.293   5.877   3.785  2.3538 -3.6798 -0.1511
12957SOL     OW40311   7.184   2.321   0.020 -0.0072 -0.3652  0.2024
12957SOL    HW140312   7.157   2.254  -0.042 -0.2600  0.9125 -1.1150
12957SOL    HW240313   7.280   2.313   0.024  0.0022 -0.5142 -0.2942
12958SOL     OW40314   5.561   1.376   4.363  0.3824 -0.1879 -0.4831
12958SOL    HW140315   5.509   1.399   4.286  0.0629  0.2217 -0.1521
12958SOL    HW240316   5.652   1.385   4.334  0.2653 -0.0865 -0.8267
12959SOL     OW40317   6.185   0.620   3.693 -0.3717  0.4170 -0.3396
12959SOL    HW140318   6.199   0.561   3.768 -2.1983 -1.6405 -1.5109
12959SOL    HW240319   6.174   0.706   3.733 -0.7097 -0.5215  1.7304
12960SOL     OW40320   6.374   6.057   6.462  0.1013 -0.0946 -0.4789
12960SOL    HW140321   6.429   5.995   6.509  1.1310 -0.2309 -1.7928
12960SOL    HW240322   6.423   6.140   6.465 -0.9439  0.5046  0.6872
12961SOL     OW40323   4.538   3.876  11.746  0.0385 -0.2801 -0.2798
12961SOL    HW140324   4.545   3.944  11.813 -1.2198 -1.3767  1.0205
12961SOL    HW240325   4.577   3.916  11.668 -2.1598  2.5948 -0.0984
12962SOL     OW40326   2.009   3.748   8.223 -0.3871 -0.2050  0.0753
12962SOL    HW140327   1.965   3.665   8.240  2.1407 -0.9823  4.2601
12962SOL    HW240328   1.975   3.808   8.289  0.2946  1.0682 -0.6823
12963SOL     OW40329   1.327   0.002   0.906  0.2165 -0.7964  0.2885
12963SOL    HW140330   1.312   0.053   0.826  0.9897  1.1306  1.2864
12963SOL    HW240331   1.246   0.011   0.956  0.4196 -0.3391  0.5475
12964SOL     OW40332   3.399   6.672   7.324  0.4362  0.0788 -0.3117
12964SOL    HW140333   3.316   6.630   7.347 -1.0894  2.7185 -0.5965
12964SOL    HW240334   3.430   6.623   7.247 -0.0483 -1.8634  0.6593
12965SOL     OW40335   3.240   0.288   8.433  0.5587  0.1734 -0.1648
12965SOL    HW140336   3.264   0.259   8.346  0.3182 -0.1039 -0.1402
12965SOL    HW240337   3.322   0.319   8.472  1.0887 -1.6575  0.2813
12966SOL     OW40338   3.815   0.080   7.211  0.1741 -0.6773  0.2072
12966SOL    HW140339   3.855   0.076   7.297 -2.2196 -1.0322  1.3920
12966SOL    HW240340   3.724   0.106   7.227 -0.6508 -1.7987 -2.0956
12967SOL     OW40341   6.800   2.170   4.603  0.0007 -0.2568  0.0497
12967SOL    HW140342   6.889   2.205   4.596 -1.0894  2.9339  0.4244
12967SOL    HW240343   6.772   2.158   4.512  0.7305 -1.1962 -0.0691
12968SOL     OW40344   7.411   2.881   7.885  0.0088 -0.8669  0.2150
12968SOL    HW140345   7.320   2.865   7.911 -0.0274  0.2449  0.7977
12968SOL    HW240346   7.441   2.796   7.852 -1.5848 -0.9720 -1.0908
12969SOL     OW40347   6.044   7.585   0.538 -0.0290  0.0573  0.0867
12969SOL    HW140348   6.132   7.548   0.531 -0.7314 -1.5694 -0.7807
12969SOL    HW240349   6.041   7.653   0.471  0.7822  0.6382  0.6213
12970SOL     OW40350   2.433   7.865   5.500  0.1902  1.1665  0.3088
12970SOL    HW140351   2.399   7.942   5.453  0.5560  1.2148  0.1235
12970SOL    HW240352   2.380   7.792   5.468  0.5531  1.1708 -0.3144
12971SOL     OW40353   0.960   1.912   0.999 -0.0093  0.3703  0.7284
12971SOL    HW140354   1.012   1.859   1.059  1.9101  0.9371 -0.3312
12971SOL    HW240355   0.981   1.878   0.912 -0.7069  1.2344  0.2011
12972SOL     OW40356   2.160   6.846  12.263  0.3210 -0.1416 -0.1005
12972SOL    HW140357   2.085   6.808  12.217 -0.1190 -0.7686  1.1052
12972SOL    HW240358   2.234   6.828  12.205 -0.1854 -1.0702 -0.4856
12973SOL     OW40359   4.336   1.184   1.686  0.1749  0.4074  0.3047
12973SOL    HW140360   4.303   1.125   1.753 -1.2103 -1.2648 -1.7345
12973SOL    HW240361   4.299   1.269   1.709 -1.4596 -0.4221  0.8574
12974SOL     OW40362   5.255   4.918   3.592  0.0019  0.1601 -0.2292
12974SOL    HW140363   5.245   4.823   3.592  1.0378 -0.1142  3.1801
12974SOL    HW240364   5.349   4.933   3.581 -0.2249  0.8620 -1.3852
12975SOL     OW40365   4.887   7.377   7.927 -0.0972 -0.2131 -0.1569
12975SOL    HW140366   4.909   7.356   8.018 -3.9925  2.0595  1.5218
12975SOL    HW240367   4.834   7.303   7.898 -2.9103  1.1020  1.2587
12976SOL     OW40368   7.694   2.102   1.337  0.0176  0.5720  0.0467
12976SOL    HW140369   7.644   2.054   1.404 -0.1597 -0.5563 -0.8638
12976SOL    HW240370   7.670   2.193   1.350 -0.6955  0.2690  0.9554
12977SOL     OW40371   0.800   1.961   6.927  0.2295 -0.3130  0.0657
12977SOL    HW140372   0.739   1.905   6.974 -0.4821 -0.0888 -0.5633
12977SOL    HW240373   0.876   1.906   6.910  0.7896 -0.2086  2.0231
12978SOL     OW40374   7.805   2.309   0.601 -0.1852  0.1810  0.0682
12978SOL    HW140375   7.751   2.230   0.603 -0.1649  0.1818  1.1792
12978SOL    HW240376   7.878   2.286   0.544  0.5639 -1.1276  1.4636
12979SOL     OW40377   4.732   1.241   9.363  0.1044  0.4413  0.3093
12979SOL    HW140378   4.811   1.202   9.399  0.5779  1.3965  0.3273
12979SOL    HW240379   4.741   1.335   9.379 -1.4162  0.5017  1.0840
12980SOL     OW40380   4.453   3.654   1.960 -0.3064 -0.0481 -0.7135
12980SOL    HW140381   4.410   3.570   1.941 -0.8230  0.3457 -1.3302
12980SOL    HW240382   4.474   3.689   1.874 -0.6900  0.7615 -0.4823
12981SOL     OW40383   6.524   7.217   8.605 -0.3467  0.2764  0.2702
12981SOL    HW140384   6.446   7.197   8.655 -0.2669  0.0358  0.2990
12981SOL    HW240385   6.565   7.290   8.652 -0.2133 -0.0183  0.6169
12982SOL     OW40386   5.876   2.847   1.047  0.4779 -0.1810  0.1944
12982SOL    HW140387   5.880   2.877   1.138 -2.2789  1.0928 -0.0000
12982SOL    HW240388   5.828   2.916   1.001  1.6520 -0.8627 -2.2456
12983SOL     OW40389   4.915   2.542   4.856  0.0289 -0.4507 -0.6356
12983SOL    HW140390   4.867   2.546   4.773  0.7159  0.7294 -0.9898
12983SOL    HW240391   4.973   2.618   4.854  1.6221 -1.5984 -0.0176
12984SOL     OW40392   1.916   3.991   7.119 -0.0481 -0.4760 -0.4700
12984SOL    HW140393   1.826   3.963   7.131  0.4347 -2.0563 -0.2861
12984SOL    HW240394   1.941   3.955   7.034  0.5168 -0.3771 -0.3530
12985SOL     OW40395   2.313   5.830   3.762 -0.0268  0.3380  0.0588
12985SOL    HW140396   2.325   5.843   3.668  0.7112 -0.6372  0.0079
12985SOL    HW240397   2.392   5.866   3.802  1.0940 -1.9460  0.0561
12986SOL     OW40398   4.496   6.915   9.549  0.3459  0.0584  0.2198
12986SOL    HW140399   4.485   6.966   9.469 -0.8068  0.6707  0.7496
12986SOL    HW240400   4.478   6.977   9.620  0.1906 -0.7671  0.9132
12987SOL     OW40401   2.237   4.431   1.678 -0.3351  0.5895  0.2379
12987SOL    HW140402   2.186   4.389   1.609 -1.7835  1.2923  0.8387
12987SOL    HW240403   2.305   4.479   1.632 -1.3946  1.2139 -0.7399
12988SOL     OW40404   6.804   5.051   5.716 -0.2093  0.3059 -0.2230
12988SOL    HW140405   6.873   5.000   5.673 -0.6934 -0.4989 -0.0557
12988SOL    HW240406   6.848   5.089   5.792  0.6473  1.7265 -1.3690
12989SOL     OW40407   0.680   0.040   4.947 -0.0530 -0.6410 -0.4535
12989SOL    HW140408   0.719  -0.043   4.919  1.8618  0.3965 -1.0200
12989SOL    HW240409   0.687   0.038   5.043  1.6794 -0.3907 -0.5460
12990SOL     OW40410   1.843   7.221   3.467  0.1188 -0.6882 -0.2883
12990SOL    HW140411   1.756   7.246   3.497 -0.2335 -1.7260 -0.4079
12990SOL    HW240412   1.831   7.204   3.373  0.2756 -1.5941 -0.1462
12991SOL     OW40413   6.060   1.228   7.395  0.1324  0.1381  0.5752
12991SOL    HW140414   6.090   1.221   7.304  0.6437 -0.0089  0.7520
12991SOL    HW240415   6.140   1.223   7.447 -0.1774  0.0140  1.0438
12992SOL     OW40416   1.002   5.252  11.098 -0.5547  0.5157  0.2592
12992SOL    HW140417   1.003   5.165  11.138 -0.0642  0.5902  0.4160
12992SOL    HW240418   0.995   5.236  11.004  0.5127  0.2779  0.2131
12993SOL     OW40419   4.069   3.390  11.353  0.0967  0.3710  0.1376
12993SOL    HW140420   4.043   3.300  11.372  0.5669  0.4287  1.0859
12993SOL    HW240421   4.057   3.437  11.435 -1.5804  1.5352 -0.7091
12994SOL     OW40422   7.518   5.364   0.077  0.1229 -0.3315  0.0917
12994SOL    HW140423   7.426   5.347   0.097  0.1855  0.6517  1.3195
12994SOL    HW240424   7.565   5.300   0.130  0.1410 -1.9415 -1.7729
12995SOL     OW40425   3.817   0.846   2.422  0.1269 -0.3879 -0.0805
12995SOL    HW140426   3.859   0.924   2.460  0.8544 -0.1239 -1.3769
12995SOL    HW240427   3.731   0.843   2.464 -0.0234  1.2741 -0.1896
12996SOL     OW40428   6.182   5.389   6.145  0.2562 -0.0538  0.3735
12996SOL    HW140429   6.210   5.341   6.222  0.9169  0.7112  0.6301
12996SOL    HW240430   6.096   5.424   6.168  0.2013 -0.3047  0.5490
12997SOL     OW40431   1.424   6.222   7.089  0.2148  0.7508 -0.3697
12997SOL    HW140432   1.348   6.280   7.095  0.4492  0.9547  0.7636
12997SOL    HW240433   1.419   6.166   7.166  2.0128  1.7760  0.5461
12998SOL     OW40434   5.574   1.760   4.069 -0.3019  0.1296  0.1464
12998SOL    HW140435   5.519   1.681   4.067 -1.8002  1.1319 -1.3484
12998SOL    HW240436   5.513   1.832   4.053  1.3366  1.3826 -0.8120
12999SOL     OW40437   2.456   2.330   7.188 -0.3060 -0.3490 -0.2955
12999SOL    HW140438   2.513   2.353   7.114  0.8680 -0.0193  0.6886
12999SOL    HW240439   2.436   2.414   7.230 -0.9547 -0.5387 -0.2162
13000SOL     OW40440   2.344   1.176   4.515 -0.3851  0.2924  0.7675
13000SOL    HW140441   2.400   1.113   4.561 -0.5105  0.5495  1.2788
13000SOL    HW240442   2.280   1.204   4.581 -0.8169  0.3649  0.3230
13001SOL     OW40443   5.920   1.397   4.945 -0.1011 -0.5276  0.3310
13001SOL    HW140444   5.862   1.400   4.869 -0.4505 -0.7512  0.5863
13001SOL    HW240445   5.973   1.477   4.937 -1.3163  0.3539  0.7761
13002SOL     OW40446   0.467   6.845   1.717 -0.9135  0.5942  0.0881
13002SOL    HW140447   0.509   6.899   1.784 -0.2380 -2.0720  1.9739
13002SOL    HW240448   0.457   6.904   1.642  1.1846  2.8724  1.4333
13003SOL     OW40449   2.156   7.820   9.774 -0.7586 -0.0902  0.7129
13003SOL    HW140450   2.143   7.770   9.693 -1.0015  0.2417  0.5447
13003SOL    HW240451   2.180   7.908   9.744  1.8967 -0.6380  0.9922
13004SOL     OW40452   0.828   4.949   7.286 -0.2071  0.3204  0.3647
13004SOL    HW140453   0.754   4.902   7.323  0.3465 -1.1659 -0.3732
13004SOL    HW240454   0.859   4.894   7.215 -2.3674  3.8324 -3.7478
13005SOL     OW40455   7.296   4.889   8.233 -0.0229  0.1966  0.1098
13005SOL    HW140456   7.322   4.974   8.267  1.8580 -0.5597  0.6907
13005SOL    HW240457   7.376   4.836   8.235 -1.1391 -1.6170 -0.1321
13006SOL     OW40458   7.165   4.555   8.680  0.3258  0.4005  0.0739
13006SOL    HW140459   7.110   4.540   8.603  0.5514  1.4964 -0.3152
13006SOL    HW240460   7.243   4.597   8.646  0.8864 -0.0367  0.7874
13007SOL     OW40461   4.659   2.686  10.659 -0.2854 -0.2280 -0.4340
13007SOL    HW140462   4.672   2.594  10.637  0.6761 -0.2907  0.3440
13007SOL    HW240463   4.746   2.725  10.651 -0.4547  0.3525  0.4411
13008SOL     OW40464   1.904   0.439   9.480  0.2843  0.1121  0.0837
13008SOL    HW140465   1.904   0.345   9.501  0.2876 -0.0309 -0.5391
13008SOL    HW240466   1.996   0.463   9.479  0.3102  0.0046 -0.2555
13009SOL     OW40467   6.866   4.631  11.125 -0.6771  0.1330  0.0048
13009SOL    HW140468   6.864   4.678  11.042 -0.5985  0.2810  0.0874
13009SOL    HW240469   6.885   4.540  11.100 -0.3038  0.2417 -0.1087
13010SOL     OW40470   5.221   0.647   3.467  0.2071 -0.2565 -0.2092
13010SOL    HW140471   5.175   0.580   3.519 -1.7881  0.4227 -0.9757
13010SOL    HW240472   5.313   0.636   3.489 -0.3384 -1.4738  1.7360
13011SOL     OW40473   1.864   0.589   9.700 -0.0423  0.0501 -0.1655
13011SOL    HW140474   1.805   0.551   9.765  0.2318  0.7233  0.4982
13011SOL    HW240475   1.854   0.533   9.623 -1.0411 -0.2407  0.1529
13012SOL     OW40476   7.426   1.464   6.791  0.1088  0.4578 -0.0913
13012SOL    HW140477   7.375   1.446   6.712  0.8567  0.0554 -0.4916
13012SOL    HW240478   7.516   1.444   6.767  0.6271  2.2119  0.2750
13013SOL     OW40479   1.496   5.495   9.437  0.0683  0.4485 -0.0696
13013SOL    HW140480   1.563   5.525   9.375 -0.9572 -2.4045 -2.8256
13013SOL    HW240481   1.415   5.533   9.404 -0.3705 -0.3851  0.0197
13014SOL     OW40482   7.788   5.108   6.830 -0.1698 -0.4475 -0.2936
13014SOL    HW140483   7.716   5.126   6.890 -0.3250 -0.5048 -0.4620
13014SOL    HW240484   7.745   5.081   6.749 -0.0855  2.0827 -1.2830
13015SOL     OW40485   6.685   0.609   5.797  0.0615 -0.0579 -0.6932
13015SOL    HW140486   6.596   0.585   5.824  0.0259 -1.1476 -1.7220
13015SOL    HW240487   6.720   0.659   5.871 -1.0776 -0.4214  0.1086
13016SOL     OW40488   7.523   0.890   3.020 -0.2072 -0.4292  0.3750
13016SOL    HW140489   7.497   0.905   3.111  1.6620 -1.1875  1.0766
13016SOL    HW240490   7.552   0.800   3.019 -0.0619 -0.3733 -0.9644
13017SOL     OW40491   7.896   1.502   5.621 -0.0527 -0.0821 -0.4941
13017SOL    HW140492   7.944   1.476   5.700  1.7380 -1.4230 -1.9217
13017SOL    HW240493   7.849   1.422   5.594 -1.7660  0.7443 -0.0715
13018SOL     OW40494   5.638   7.475   3.512 -0.5396  0.5324  0.2593
13018SOL    HW140495   5.676   7.425   3.439 -2.5585 -1.6819  0.5964
13018SOL    HW240496   5.677   7.434   3.590  0.0244  1.5006  0.4964
13019SOL     OW40497   5.813   1.451   2.992 -0.6720 -0.0748 -0.0722
13019SOL    HW140498   5.765   1.506   2.930 -0.0692  1.0993  0.4720
13019SOL    HW240499   5.865   1.392   2.937  1.1639  2.0685 -0.7992
13020SOL     OW40500   4.057   6.494  12.061  0.0428  0.1059  0.4665
13020SOL    HW140501   3.993   6.455  12.002 -0.9513 -0.1687  1.6922
13020SOL    HW240502   4.066   6.431  12.132  1.1038  0.4995  0.7020
13021SOL     OW40503   5.898   5.972  10.266 -0.2929  0.4464 -0.1171
13021SOL    HW140504   5.988   5.945  10.250  0.3582  0.0794  3.3405
13021SOL    HW240505   5.881   6.040  10.201  2.5206  0.5735 -0.8203
13022SOL     OW40506   5.223   1.641  11.658 -0.9082  0.3741  0.4262
13022SOL    HW140507   5.158   1.631  11.727 -1.0199  2.6042  0.7457
13022SOL    HW240508   5.216   1.733  11.632  0.0561 -0.0623 -1.6397
13023SOL     OW40509   7.013   5.001   8.192  0.4044  0.2046  0.2633
13023SOL    HW140510   6.954   4.929   8.170 -2.1644  1.6609  1.9526
13023SOL    HW240511   7.101   4.963   8.182 -0.7956 -2.7881 -0.0344
13024SOL     OW40512   3.922   4.667   0.593 -0.0609 -0.3736 -0.0264
13024SOL    HW140513   3.930   4.700   0.682 -1.9703  1.0127 -0.3295
13024SOL    HW240514   3.878   4.736   0.544  1.6983 -0.7206 -2.3042
13025SOL     OW40515   5.918   4.422  10.871 -0.1750  0.2717 -0.5377
13025SOL    HW140516   5.992   4.376  10.910 -0.8403 -1.2558 -1.0134
13025SOL    HW240517   5.946   4.513  10.868  1.7695 -0.2898 -0.8720
13026SOL     OW40518   6.951   5.795   2.132  0.3169 -0.6320  0.5069
13026SOL    HW140519   7.026   5.755   2.175 -0.7591 -2.9181  0.4079
13026SOL    HW240520   6.972   5.794   2.039  0.2740 -1.0490  0.5009
13027SOL     OW40521   2.072   5.860   8.013 -0.0092  0.1824  0.1271
13027SOL    HW140522   2.066   5.953   7.993 -1.9936  0.1519  0.3733
13027SOL    HW240523   2.163   5.837   7.994  0.1924  1.8697 -1.1899
13028SOL     OW40524   1.732   6.841  10.171  0.4334  0.1276  0.2421
13028SOL    HW140525   1.826   6.826  10.186  0.4957  0.0453 -0.2288
13028SOL    HW240526   1.724   6.848  10.076 -0.2033 -0.9389  0.2088
13029SOL     OW40527   3.703   7.912  10.140 -0.4592 -0.1220  0.4347
13029SOL    HW140528   3.727   7.965  10.065 -0.4260 -0.7079  0.0273
13029SOL    HW240529   3.660   7.835  10.103  1.3666 -1.4330  0.8439
13030SOL     OW40530   1.254   1.299  11.539 -0.9304 -0.2915  0.3279
13030SOL    HW140531   1.303   1.311  11.621  0.2240  0.5347 -0.4554
13030SOL    HW240532   1.174   1.254  11.566 -1.8911  2.3397  2.3383
13031SOL     OW40533   3.720   6.008  11.736 -0.4647  0.3450  0.3347
13031SOL    HW140534   3.790   5.950  11.708 -0.0734  1.5308 -1.2582
13031SOL    HW240535   3.639   5.961  11.715 -0.1567 -0.0776  0.0971
13032SOL     OW40536   5.336   0.269   5.204  0.0056 -0.1832 -0.3305
13032SOL    HW140537   5.249   0.257   5.164  0.8380 -0.5391 -2.1357
13032SOL    HW240538   5.394   0.286   5.130  1.5578 -0.3430  0.8084
13033SOL     OW40539   2.322   2.946  10.077 -0.4525 -0.5182 -0.2510
13033SOL    HW140540   2.391   2.894  10.036 -0.2207 -0.3338 -0.1081
13033SOL    HW240541   2.321   3.027  10.027 -0.3768 -0.4138 -0.0859
13034SOL     OW40542   1.904   1.268   4.914  0.2996 -0.0078  0.3884
13034SOL    HW140543   1.820   1.303   4.884  1.3321  2.0530 -0.3214
13034SOL    HW240544   1.944   1.232   4.834  0.8324  0.6785  0.3369
13035SOL     OW40545   3.380   2.758   4.573  0.3944 -0.5935  0.0293
13035SOL    HW140546   3.472   2.747   4.552  0.4291 -1.0359  0.4000
13035SOL    HW240547   3.378   2.826   4.641  0.5631 -1.4991  0.9561
13036SOL     OW40548   0.603   1.011  11.353 -0.0608 -0.0918 -0.2486
13036SOL    HW140549   0.698   1.020  11.359 -0.1398 -0.0021  1.1412
13036SOL    HW240550   0.583   1.030  11.262  1.1008  1.3396 -0.2402
13037SOL     OW40551   5.614   3.942   7.578 -0.0877 -0.3790 -0.0391
13037SOL    HW140552   5.566   3.870   7.537 -0.1420 -0.1756 -0.3358
13037SOL    HW240553   5.553   4.016   7.575  0.8754  0.4155 -2.1219
13038SOL     OW40554   1.894   2.004   2.815  0.4139  0.7924 -0.4491
13038SOL    HW140555   1.836   2.032   2.744 -0.0016  0.1513 -0.3713
13038SOL    HW240556   1.835   1.988   2.889 -0.1607 -4.5123 -1.6140
13039SOL     OW40557   7.123   4.728   0.840 -0.6502  0.3291 -0.2571
13039SOL    HW140558   7.121   4.633   0.854 -3.0618  0.5439  1.5243
13039SOL    HW240559   7.078   4.740   0.756 -1.4132 -0.0484  0.0875
13040SOL     OW40560   7.651   5.026   6.609 -0.0409  0.7949 -0.2901
13040SOL    HW140561   7.567   5.017   6.566 -0.2608 -2.4645  0.5712
13040SOL    HW240562   7.700   5.087   6.554 -1.3829 -0.7295 -3.4006
13041SOL     OW40563   0.107   1.666   0.020  0.2792 -0.0990 -0.3842
13041SOL    HW140564   0.149   1.742  -0.022  2.1246 -0.1181  1.3107
13041SOL    HW240565   0.123   1.678   0.113 -3.2395 -0.3319  0.4135
13042SOL     OW40566   6.184   1.095   5.754  0.1818  1.4225  0.1019
13042SOL    HW140567   6.131   1.073   5.677 -0.3193  0.3919  0.7269
13042SOL    HW240568   6.223   1.012   5.781  0.1269  1.7152  1.1230
13043SOL     OW40569   5.995   7.088  10.596 -0.2063  0.4071  0.4106
13043SOL    HW140570   6.072   7.098  10.539 -1.6543 -1.1163 -1.9884
13043SOL    HW240571   6.027   7.035  10.669  1.2913  0.7470  0.0352
13044SOL     OW40572   4.279   5.261   1.729  0.1285 -0.5682 -0.0856
13044SOL    HW140573   4.280   5.190   1.665  2.2307  0.0254 -0.8268
13044SOL    HW240574   4.233   5.333   1.686 -2.5706 -1.5692  0.9036
13045SOL     OW40575   4.707   2.527   1.338  0.7673  0.1583  1.1104
13045SOL    HW140576   4.779   2.526   1.275  1.9101 -1.4378  2.3453
13045SOL    HW240577   4.729   2.598   1.398  0.0395  1.2241  0.1476
13046SOL     OW40578   5.803   4.115   1.119 -0.0511 -0.1109  0.4157
13046SOL    HW140579   5.777   4.092   1.030  1.0047  0.2995 -0.0231
13046SOL    HW240580   5.747   4.062   1.175 -0.7552 -0.3545 -0.4888
13047SOL     OW40581   2.921   2.301   5.996  0.2938  0.4344 -0.2175
13047SOL    HW140582   3.005   2.325   5.957  1.5653 -2.1768  0.6575
13047SOL    HW240583   2.935   2.310   6.091 -0.8608  1.1222 -0.0807
13048SOL     OW40584   4.941   6.300  10.591 -0.1150  0.7383 -0.6510
13048SOL    HW140585   4.926   6.390  10.620  1.7115  1.1754 -0.9618
13048SOL    HW240586   5.029   6.301  10.554 -0.1043 -1.1670 -0.7641
13049SOL     OW40587   3.712   3.321   0.125  0.2947 -0.0636 -0.5414
13049SOL    HW140588   3.762   3.330   0.043 -0.0423  0.5573 -0.6848
13049SOL    HW240589   3.710   3.226   0.141 -0.4464 -0.2715 -1.7631
13050SOL     OW40590   3.416   2.320   2.323 -0.0968 -0.3988 -0.0939
13050SOL    HW140591   3.380   2.321   2.234  0.4735 -1.5428 -0.3639
13050SOL    HW240592   3.371   2.390   2.369 -1.1178 -0.4384 -1.0120
13051SOL     OW40593   3.570   7.487   0.343 -0.0244 -0.1068 -0.0815
13051SOL    HW140594   3.555   7.491   0.249 -0.1692  0.6946 -0.0316
13051SOL    HW240595   3.490   7.523   0.382  1.3001  2.7764  0.2323
13052SOL     OW40596   1.729   4.888   0.222  0.5017  0.1368  0.1600
13052SOL    HW140597   1.793   4.818   0.228  2.0459  1.6072  2.4599
13052SOL    HW240598   1.646   4.844   0.203  1.5095 -2.2125  0.8501
13053SOL     OW40599   7.703   2.995   3.388  0.0928  0.1724 -0.3018
13053SOL    HW140600   7.670   2.915   3.347  0.8605 -0.3620  0.1010
13053SOL    HW240601   7.625   3.045   3.410 -0.3629  0.0360 -1.5409
13054SOL     OW40602   1.358   1.131   9.326 -0.0252 -0.6176 -0.8772
13054SOL    HW140603   1.339   1.145   9.419  0.9871 -0.8423 -0.6191
13054SOL    HW240604   1.349   1.218   9.287 -0.1692 -0.4644 -0.5088
13055SOL     OW40605   0.799   2.947   0.193 -0.1926 -0.1092 -0.5391
13055SOL    HW140606   0.867   2.883   0.211 -1.2492 -1.3901 -0.9285
13055SOL    HW240607   0.747   2.950   0.274  0.6712  1.3665  0.0068
13056SOL     OW40608   2.361   0.155   8.789  0.2744 -0.0786  0.0020
13056SOL    HW140609   2.371   0.111   8.873  1.8737 -0.3323 -0.2738
13056SOL    HW240610   2.322   0.240   8.810 -0.0957 -0.4628  0.8989
13057SOL     OW40611   7.967   4.268   2.677 -0.3797  0.1116  0.1089
13057SOL    HW140612   7.989   4.212   2.602  1.4382 -1.1912  1.5463
13057SOL    HW240613   7.872   4.257   2.687 -1.0927  1.8241 -3.0827
13058SOL     OW40614   2.606   0.779   8.061  0.5469 -0.4002 -0.5466
13058SOL    HW140615   2.632   0.688   8.044  0.4087 -0.5154 -0.1502
13058SOL    HW240616   2.540   0.798   7.995 -0.2276 -0.9501  0.0582
13059SOL     OW40617   1.527   5.061   9.554 -0.2961 -0.4569 -0.0448
13059SOL    HW140618   1.514   5.054   9.459 -1.1483 -1.0677  0.1061
13059SOL    HW240619   1.501   5.150   9.575 -2.2137 -0.9763 -0.0853
13060SOL     OW40620   6.553   4.631   9.113  0.0577 -0.1397 -0.5210
13060SOL    HW140621   6.482   4.604   9.171  0.4942  0.5271  0.3505
13060SOL    HW240622   6.601   4.550   9.095 -1.4351 -0.7511 -1.8666
13061SOL     OW40623   0.094   1.682   3.565 -0.5463  0.2687 -0.5393
13061SOL    HW140624   0.145   1.762   3.576 -2.1597  1.3753 -0.7028
13061SOL    HW240625   0.146   1.614   3.608  1.4869  1.1218 -1.5432
13062SOL     OW40626   1.949   2.049   3.423 -0.0563  0.3193 -0.4452
13062SOL    HW140627   1.945   2.029   3.330 -1.9022 -0.2186 -0.3042
13062SOL    HW240628   1.865   2.017   3.458 -0.0768  1.9202  1.1148
13063SOL     OW40629   3.627   3.447  10.571 -0.5143  0.3889 -0.1176
13063SOL    HW140630   3.553   3.429  10.513 -1.3942  0.9990  0.7680
13063SOL    HW240631   3.607   3.533  10.609 -0.9872 -0.7645  2.5128
13064SOL     OW40632   5.963   6.047   6.224 -0.4164  0.5591  0.0962
13064SOL    HW140633   5.921   5.982   6.281  0.7309  0.1382  0.5032
13064SOL    HW240634   5.976   6.123   6.280 -0.6417  0.6877 -0.0274
13065SOL     OW40635   5.922   6.912   9.595 -0.4748 -0.3493 -0.2170
13065SOL    HW140636   5.850   6.958   9.639 -2.6966 -2.3045 -1.5666
13065SOL    HW240637   5.972   6.874   9.666  0.1535  2.2144  0.8286
13066SOL     OW40638   6.064   2.493   7.821  0.7268 -0.4909 -0.1912
13066SOL    HW140639   6.139   2.490   7.762 -1.0743  0.7358 -2.7094
13066SOL    HW240640   6.059   2.584   7.849  0.5968 -0.7257  0.5658
13067SOL     OW40641   0.739   1.984   1.595  0.1816  0.8099 -0.6296
13067SOL    HW140642   0.765   1.974   1.504  2.4126 -0.9597  0.1108
13067SOL    HW240643   0.725   1.895   1.626  1.6741  1.1746  1.3011
13068SOL     OW40644   2.138   2.195   8.123  0.3828 -0.5031 -0.0317
13068SOL    HW140645   2.121   2.139   8.199  1.6420 -0.6572  0.1670
13068SOL    HW240646   2.211   2.152   8.078  2.5067  1.7661  0.9945
13069SOL     OW40647   6.114   0.562  11.406  0.2012 -0.1621  0.4202
13069SOL    HW140648   6.176   0.534  11.338 -0.5859 -0.0989 -0.3387
13069SOL    HW240649   6.163   0.551  11.488  0.6714 -1.6695 -0.0158
13070SOL     OW40650   6.439   1.814   8.107  0.7646 -0.5557  0.6271
13070SOL    HW140651   6.523   1.845   8.143  0.9968  0.3181 -0.6147
13070SOL    HW240652   6.463   1.741   8.050  1.0129  1.1575 -1.5786
13071SOL     OW40653   4.178   1.969   2.243 -0.0805 -0.5232 -0.2580
13071SOL    HW140654   4.117   1.917   2.295  1.3676 -0.5671  1.5138
13071SOL    HW240655   4.181   1.926   2.158 -2.1209 -0.7860 -0.2395
13072SOL     OW40656   5.752   6.709  10.709 -0.0448  0.4151  0.0980
13072SOL    HW140657   5.662   6.688  10.681 -0.6664  1.8918  0.9018
13072SOL    HW240658   5.799   6.724  10.627 -0.7268  0.3710 -0.3164
13073SOL     OW40659   4.932   5.481  11.602  0.2281 -0.0772 -0.1501
13073SOL    HW140660   4.948   5.389  11.624  0.1808  0.1607  0.9738
13073SOL    HW240661   4.850   5.502  11.646  1.4179  1.1256  1.6687
13074SOL     OW40662   2.926   3.718   9.486  0.7622  0.5324  0.0647
13074SOL    HW140663   2.949   3.803   9.525 -0.2503  0.0035  1.9342
13074SOL    HW240664   2.988   3.656   9.525 -0.3479 -0.0262  1.0137
13075SOL     OW40665   0.803   5.485  10.998 -0.0031  0.0315  0.5034
13075SOL    HW140666   0.872   5.422  11.019  1.6124  0.7438 -2.2830
13075SOL    HW240667   0.828   5.564  11.045 -1.1304 -0.8019  2.6472
13076SOL     OW40668   6.625   4.843   3.897 -0.2167  0.6818 -0.5729
13076SOL    HW140669   6.697   4.781   3.886 -0.2952 -0.4546  3.6140
13076SOL    HW240670   6.546   4.789   3.893 -0.5177  1.1113 -0.4923
13077SOL     OW40671   4.467   5.259   2.471  0.4474  0.4063  0.0719
13077SOL    HW140672   4.504   5.305   2.545  2.7442  0.1032 -0.8072
13077SOL    HW240673   4.525   5.184   2.457 -0.6828 -0.2921 -1.2207
13078SOL     OW40674   5.694   3.168   8.662  0.0957  0.7338 -0.2305
13078SOL    HW140675   5.622   3.203   8.609  0.4562  1.2899 -0.3647
13078SOL    HW240676   5.676   3.075   8.669 -0.7210  0.8889 -0.1438
13079SOL     OW40677   3.302   6.667  11.722 -0.1037 -0.6191 -0.6501
13079SOL    HW140678   3.244   6.723  11.775  0.9404 -0.0482 -0.0839
13079SOL    HW240679   3.259   6.664  11.637 -0.6842  0.2601 -0.4106
13080SOL     OW40680   1.286   7.604   2.163 -0.1659 -0.0850 -0.2602
13080SOL    HW140681   1.226   7.670   2.198 -0.4761 -0.1346 -0.6996
13080SOL    HW240682   1.330   7.569   2.241 -0.6707 -0.0142  0.0649
13081SOL     OW40683   6.723   5.319   8.551  0.5166  0.2374  0.5996
13081SOL    HW140684   6.711   5.382   8.481 -1.4090 -0.0719  0.5894
13081SOL    HW240685   6.766   5.244   8.510  1.5938  0.9973  0.3179
13082SOL     OW40686   5.328   0.868   0.860  0.0338  0.5048  0.2697
13082SOL    HW140687   5.418   0.898   0.876  0.7192 -0.8286 -0.9179
13082SOL    HW240688   5.289   0.937   0.807  0.9111  0.3231 -0.6467
13083SOL     OW40689   0.846   0.870   7.233 -0.5374  0.3203  0.1433
13083SOL    HW140690   0.925   0.851   7.284  0.9362  1.5236 -1.5716
13083SOL    HW240691   0.784   0.801   7.258  1.2113 -0.9406  1.1987
13084SOL     OW40692   4.146   7.979   5.290  0.0103  0.4112 -0.0352
13084SOL    HW140693   4.148   8.025   5.206  2.0535 -0.0594 -0.2992
13084SOL    HW240694   4.194   8.037   5.349 -1.5400  0.8052  0.8638
13085SOL     OW40695   3.007   1.073   7.479 -0.4103 -0.2203 -0.4022
13085SOL    HW140696   3.032   1.031   7.561 -2.0718  0.4885  0.5402
13085SOL    HW240697   2.954   1.008   7.434  1.9451 -1.2791 -1.8349
13086SOL     OW40698   5.886   5.096   0.848  0.1257  0.0837  0.0665
13086SOL    HW140699   5.900   5.129   0.759  0.4595 -0.9111 -0.2673
13086SOL    HW240700   5.966   5.122   0.895  0.1939  0.1271 -0.0715
13087SOL     OW40701   7.576   4.623  10.006  0.5028 -0.0766  0.2093
13087SOL    HW140702   7.654   4.587  10.048  0.5966 -1.3138 -0.9553
13087SOL    HW240703   7.503   4.574  10.044  0.1492  1.6524  1.9218
13088SOL     OW40704   6.864   2.272  11.695  0.3248  0.0697 -0.2126
13088SOL    HW140705   6.793   2.310  11.643 -0.6015 -1.5331 -0.1778
13088SOL    HW240706   6.847   2.303  11.784 -0.1892 -0.1140 -0.2450
13089SOL     OW40707   3.851   6.543   2.668 -0.3863 -0.5007 -0.3202
13089SOL    HW140708   3.804   6.583   2.594 -2.4584  1.7904  2.0317
13089SOL    HW240709   3.848   6.449   2.650  0.0678 -0.0030 -3.5664
13090SOL     OW40710   1.410   5.448  10.067  0.1127 -0.1596 -0.4099
13090SOL    HW140711   1.330   5.492  10.037 -0.0689 -0.3050 -0.1412
13090SOL    HW240712   1.473   5.461   9.995 -0.6927 -1.5810 -1.4308
13091SOL     OW40713   7.168   1.608   6.771  0.0556  0.5595  0.0896
13091SOL    HW140714   7.128   1.618   6.857 -1.0068  3.0679 -0.5788
13091SOL    HW240715   7.255   1.573   6.788 -1.3343 -2.4113  1.8305
13092SOL     OW40716   4.649   0.545   3.139  0.0349  0.2779  0.1968
13092SOL    HW140717   4.604   0.581   3.063  0.5225  2.4352  0.8511
13092SOL    HW240718   4.684   0.622   3.185  4.7333 -1.1415 -0.4328
13093SOL     OW40719   6.100   5.946   0.328 -0.0538 -0.3701 -0.2993
13093SOL    HW140720   6.192   5.972   0.324 -0.1975  0.0749 -3.3606
13093SOL    HW240721   6.053   6.024   0.299 -1.2977 -1.0651 -0.1789
13094SOL     OW40722   2.292   0.702   7.527  0.1523 -0.6088 -0.9504
13094SOL    HW140723   2.314   0.627   7.471  0.0943 -1.2822 -0.0967
13094SOL    HW240724   2.208   0.677   7.568 -0.0617  0.0924 -0.9580
13095SOL     OW40725   6.715   4.502   0.638 -0.4434  0.4379 -0.0763
13095SOL    HW140726   6.716   4.568   0.569 -1.1137  1.0674  0.5009
13095SOL    HW240727   6.644   4.529   0.697 -0.0052 -0.1879  0.7664
13096SOL     OW40728   2.380   0.140   3.036 -0.0415  0.0251  0.1346
13096SOL    HW140729   2.457   0.193   3.057 -0.6518  0.1012  2.4272
13096SOL    HW240730   2.366   0.154   2.943  1.5255  1.6090  0.0827
13097SOL     OW40731   7.976   4.025   6.581  0.0458  0.0056 -0.1399
13097SOL    HW140732   8.053   3.983   6.542  0.1649 -0.5688  0.6853
13097SOL    HW240733   8.005   4.050   6.669  0.1383  2.2893 -0.7470
13098SOL     OW40734   6.650   7.971   7.022 -0.8361 -0.1587 -0.1079
13098SOL    HW140735   6.723   8.033   7.016 -1.1513  0.4445  1.5981
13098SOL    HW240736   6.664   7.910   6.950 -1.1637  2.5553 -2.6681
13099SOL     OW40737   5.589   4.007   6.992 -0.6582  0.5787 -1.1211
13099SOL    HW140738   5.525   4.069   7.030  1.2780  0.9006  2.0047
13099SOL    HW240739   5.670   4.058   6.985  0.4687 -1.0324 -0.3703
13100SOL     OW40740   0.194   6.108   0.803  0.1661  0.3656  0.2109
13100SOL    HW140741   0.113   6.067   0.773  0.7229  0.6754 -1.8693
13100SOL    HW240742   0.261   6.041   0.789  0.3670  0.2734  1.4962
13101SOL     OW40743   0.503   4.189   0.922 -0.4208 -0.4233 -0.0882
13101SOL    HW140744   0.504   4.113   0.980  1.0391 -0.2191  0.1996
13101SOL    HW240745   0.497   4.151   0.834 -0.6706 -0.8210  0.0951
13102SOL     OW40746   3.709   1.118   7.951  0.4213 -0.1883 -0.9097
13102SOL    HW140747   3.676   1.060   7.883 -1.0880 -0.4283 -0.0140
13102SOL    HW240748   3.631   1.163   7.984  1.1219 -0.0300  0.6106
13103SOL     OW40749   4.674   2.966  11.548 -0.5972 -0.3744 -0.7385
13103SOL    HW140750   4.633   3.052  11.540  1.5424  0.8353  0.3829
13103SOL    HW240751   4.713   2.950  11.461 -0.7714 -0.0920 -0.8682
13104SOL     OW40752   5.545   1.721   9.279 -0.0774  0.6702 -0.0024
13104SOL    HW140753   5.621   1.664   9.274  0.3599  0.7078  3.7259
13104SOL    HW240754   5.494   1.700   9.200  2.2206 -1.6084 -1.0037
13105SOL     OW40755   2.493   7.155   7.528  0.2954 -0.1975 -0.0724
13105SOL    HW140756   2.455   7.099   7.596 -0.0809 -0.0896 -0.1927
13105SOL    HW240757   2.548   7.096   7.476  0.7333 -0.2458  0.4340
13106SOL     OW40758   5.530   5.626   9.893  0.2210 -0.0796  0.2322
13106SOL    HW140759   5.535   5.548   9.838 -0.6370  0.0908 -0.1071
13106SOL    HW240760   5.559   5.697   9.837 -0.1869  0.0220  0.1461
13107SOL     OW40761   5.559   2.054  12.264 -0.7710  0.0497 -0.4677
13107SOL    HW140762   5.486   2.089  12.316  0.1057  2.9120 -1.0131
13107SOL    HW240763   5.537   2.077  12.174 -0.9591 -2.4736 -1.1330
13108SOL     OW40764   0.957   3.138   0.818 -0.5542  0.6149  0.3880
13108SOL    HW140765   0.912   3.221   0.810 -2.7037 -0.3937  1.2621
13108SOL    HW240766   0.934   3.106   0.905  2.8281  0.5014  1.4061
13109SOL     OW40767   7.920   0.205  11.699  0.1456  0.8571  0.3080
13109SOL    HW140768   7.861   0.221  11.625  0.5295  0.3298 -0.1195
13109SOL    HW240769   7.864   0.163  11.765 -0.5491  2.6639  0.9272
13110SOL     OW40770   3.372   5.292  10.033 -0.1882 -0.5152 -0.2862
13110SOL    HW140771   3.402   5.378  10.063  1.1195 -1.3786  1.0700
13110SOL    HW240772   3.294   5.310   9.981 -0.8945  1.3850  1.2828
13111SOL     OW40773   2.665   0.313   2.458  0.2570  0.2681 -0.2624
13111SOL    HW140774   2.593   0.373   2.476  0.3070  0.4540 -0.6731
13111SOL    HW240775   2.672   0.311   2.363 -0.0604 -0.7554 -0.2830
13112SOL     OW40776   4.775   4.476   6.078  0.4814  0.0274  0.3951
13112SOL    HW140777   4.798   4.383   6.081  2.3530  0.4350 -0.0030
13112SOL    HW240778   4.756   4.493   5.986  1.7458  0.3689  0.1819
13113SOL     OW40779   0.240   5.440   8.122 -0.4326  0.6366 -0.5061
13113SOL    HW140780   0.236   5.489   8.040  0.2671 -0.3147 -1.1365
13113SOL    HW240781   0.204   5.354   8.100  1.3204 -0.2023 -0.2887
13114SOL     OW40782   3.309   0.027   9.935  0.5571 -0.3767 -0.0915
13114SOL    HW140783   3.298  -0.037  10.005 -1.0701 -0.1275 -0.0744
13114SOL    HW240784   3.243   0.003   9.870  1.4639 -0.0847 -1.1589
13115SOL     OW40785   0.730   4.357   5.325  0.3663  0.0993 -0.4027
13115SOL    HW140786   0.767   4.298   5.391  4.0311  0.0028 -2.2554
13115SOL    HW240787   0.684   4.423   5.376  1.5168 -0.9005  2.1642
13116SOL     OW40788   6.307   1.472  10.354 -0.4892 -0.3111 -1.0769
13116SOL    HW140789   6.217   1.505  10.362 -1.1039 -1.9625 -0.7210
13116SOL    HW240790   6.357   1.547  10.322 -2.0595  0.5575 -1.6368
13117SOL     OW40791   4.901   2.202   5.217  0.2575  0.1419  0.5517
13117SOL    HW140792   4.814   2.225   5.183  0.7854  0.8868 -0.3261
13117SOL    HW240793   4.951   2.283   5.212  0.7628 -0.0754  1.8564
13118SOL     OW40794   3.462   0.228  10.168 -0.0699  0.0990 -0.1368
13118SOL    HW140795   3.513   0.170  10.225 -0.3561  0.6609  0.7080
13118SOL    HW240796   3.526   0.293  10.137 -0.3902  1.3613  1.6576
13119SOL     OW40797   4.950   7.414   7.004 -0.2356 -0.4482  0.2696
13119SOL    HW140798   4.972   7.504   6.981  0.1735 -0.8753 -1.0854
13119SOL    HW240799   4.856   7.416   7.021 -0.4714  0.0091 -0.9675
13120SOL     OW40800   7.250   5.996   5.884 -0.4391 -0.2578 -0.2919
13120SOL    HW140801   7.331   5.956   5.915  0.1666  0.0148 -1.4607
13120SOL    HW240802   7.210   6.034   5.962 -1.2277 -3.3699  0.9596
13121SOL     OW40803   0.062   6.486  11.454  0.0467  0.2708 -0.2436
13121SOL    HW140804   0.084   6.577  11.432 -3.3641  0.6294 -2.9338
13121SOL    HW240805   0.113   6.433  11.393  0.9083  0.4184  0.3284
13122SOL     OW40806   3.751   3.008   1.289  0.1885  0.1296  0.2941
13122SOL    HW140807   3.833   2.959   1.297  0.9327  1.5066  1.7793
13122SOL    HW240808   3.775   3.087   1.240 -0.5841 -0.1271 -0.5115
13123SOL     OW40809   5.022   3.272   2.215  0.0280 -0.3890 -0.2227
13123SOL    HW140810   5.086   3.203   2.197 -1.1604 -1.4023 -0.6963
13123SOL    HW240811   5.049   3.345   2.159  1.9543 -0.0202  1.0955
13124SOL     OW40812   7.666   1.607  11.148 -0.3773  0.5710  0.1631
13124SOL    HW140813   7.743   1.644  11.105 -1.0740  2.6763  0.6040
13124SOL    HW240814   7.593   1.657  11.114 -1.4361 -0.5989  0.6308
13125SOL     OW40815   3.239   3.270   8.848  0.6628 -0.3594  0.0580
13125SOL    HW140816   3.239   3.351   8.796  0.5398 -0.2821  0.1805
13125SOL    HW240817   3.197   3.294   8.930 -0.9921 -0.9689 -0.5604
13126SOL     OW40818   3.008   4.598   2.813 -0.1333  0.0928 -0.4196
13126SOL    HW140819   2.994   4.517   2.862 -0.9231  0.5903  0.1964
13126SOL    HW240820   2.945   4.595   2.741 -0.0494  0.0902 -0.4938
13127SOL     OW40821   3.372   5.408   3.165  0.2800  0.0637 -0.2197
13127SOL    HW140822   3.465   5.385   3.172  0.2256  0.2524  2.1457
13127SOL    HW240823   3.371   5.495   3.124  1.1549  0.0990 -0.1746
13128SOL     OW40824   4.774   0.649   2.255 -0.0858  1.3985 -0.5256
13128SOL    HW140825   4.702   0.609   2.207 -1.6400  1.7011  1.4132
13128SOL    HW240826   4.825   0.695   2.189 -1.2595  0.5879 -2.0509
13129SOL     OW40827   5.384   6.543   2.548  0.5562  0.1770  0.3803
13129SOL    HW140828   5.339   6.460   2.561  0.9618  0.1655  1.8318
13129SOL    HW240829   5.351   6.600   2.617  2.9333  0.0541  1.7454
13130SOL     OW40830   4.324   6.668  10.299 -0.5069  0.2975  0.2574
13130SOL    HW140831   4.272   6.609  10.354  0.2403 -0.1775  0.4647
13130SOL    HW240832   4.314   6.634  10.210  1.4385 -1.3315  0.5898
13131SOL     OW40833   5.740   0.639   6.709  0.0894 -0.1690  0.0004
13131SOL    HW140834   5.799   0.572   6.677 -0.1102 -0.5167  0.3550
13131SOL    HW240835   5.793   0.719   6.712  0.0966 -0.1066 -1.2519
13132SOL     OW40836   7.702   6.339   5.242 -0.5009  0.3700  0.2047
13132SOL    HW140837   7.734   6.269   5.184  0.4237  0.0625  1.0383
13132SOL    HW240838   7.647   6.394   5.186  0.2607  0.0221 -0.9277
13133SOL     OW40839   0.449   1.496   3.472  0.1543 -0.6019 -0.1654
13133SOL    HW140840   0.420   1.444   3.397  0.4045 -1.3325  0.2336
13133SOL    HW240841   0.538   1.523   3.448 -0.6342  1.2843 -1.2030
13134SOL     OW40842   1.700   2.054   9.535  0.2484 -0.0578  0.2857
13134SOL    HW140843   1.623   2.056   9.479 -0.1787 -0.7409  0.8431
13134SOL    HW240844   1.757   2.122   9.499  0.5899 -1.3702 -1.8464
13135SOL     OW40845   5.424   1.495  11.842  0.1306 -0.0649  0.4850
13135SOL    HW140846   5.417   1.563  11.909  1.7151  1.6202 -0.9253
13135SOL    HW240847   5.358   1.519  11.777  0.4486 -0.0567  0.1566
13136SOL     OW40848   5.825   4.553   2.182 -0.3683  0.3141  0.8373
13136SOL    HW140849   5.780   4.537   2.265  0.8006 -1.1159  1.2305
13136SOL    HW240850   5.907   4.597   2.207  1.2642 -2.4906  0.7828
13137SOL     OW40851   3.211   1.085   6.320 -0.4756  0.5934  0.0907
13137SOL    HW140852   3.210   1.071   6.225  0.2502  4.8418 -0.7528
13137SOL    HW240853   3.304   1.098   6.341 -0.7720  1.1501  1.1191
13138SOL     OW40854   2.245   1.458   1.948  0.0303  0.3176 -0.4649
13138SOL    HW140855   2.329   1.443   1.904 -1.0704 -2.4051 -1.8648
13138SOL    HW240856   2.212   1.539   1.910  1.9741  1.4898  0.1630
13139SOL     OW40857   7.147   4.819  10.089 -0.4609 -0.1592 -0.0856
13139SOL    HW140858   7.213   4.870  10.136 -0.5090 -0.8649  0.7888
13139SOL    HW240859   7.182   4.730  10.088 -0.0496 -0.0096 -2.2026
13140SOL     OW40860   6.593   7.882   0.357 -0.0125 -0.0888  0.7665
13140SOL    HW140861   6.664   7.840   0.309  0.6643  0.2897  1.4041
13140SOL    HW240862   6.565   7.815   0.420 -0.3174 -0.2910  0.4123
13141SOL     OW40863   2.488   6.852   1.200  0.0742  0.4069  0.1632
13141SOL    HW140864   2.528   6.783   1.147 -2.0267 -0.4096 -0.4352
13141SOL    HW240865   2.562   6.908   1.225  1.7353 -1.5742 -0.0036
13142SOL     OW40866   6.266   3.864   9.630  0.1173  0.2955  0.1273
13142SOL    HW140867   6.223   3.950   9.637 -0.4365  0.3478 -2.7506
13142SOL    HW240868   6.335   3.877   9.565  0.1934 -1.3861 -0.1677
13143SOL     OW40869   0.678   5.377   3.190 -0.3126  0.2633 -0.7376
13143SOL    HW140870   0.590   5.357   3.222 -0.3258 -2.4931 -2.1259
13143SOL    HW240871   0.729   5.398   3.269 -1.8462  0.3790  0.2478
13144SOL     OW40872   6.371   4.728   3.988 -0.2232 -0.2433 -0.3779
13144SOL    HW140873   6.399   4.786   4.059  2.0026 -1.2502 -0.3687
13144SOL    HW240874   6.320   4.659   4.032  0.3622 -0.3578  0.1296
13145SOL     OW40875   7.033   6.507  11.737  0.3190  0.1867 -0.5203
13145SOL    HW140876   7.001   6.589  11.697 -1.0306  0.1681  0.4612
13145SOL    HW240877   6.972   6.440  11.705 -0.4797  0.0900  1.1120
13146SOL     OW40878   4.403   1.610   7.520  0.9643  0.0393 -0.1704
13146SOL    HW140879   4.374   1.649   7.438 -0.4846  4.2707  2.0759
13146SOL    HW240880   4.323   1.583   7.564  1.4541  0.5212  1.0609
13147SOL     OW40881   5.936   2.347   8.333  0.3709  0.0421 -0.0302
13147SOL    HW140882   6.019   2.307   8.360  1.8045  3.3221  1.0602
13147SOL    HW240883   5.958   2.392   8.251 -0.7765 -0.2650 -0.5243
13148SOL     OW40884   3.541   1.898   0.448 -0.5704 -0.5387 -0.1961
13148SOL    HW140885   3.470   1.851   0.405  0.4586 -0.5070 -2.0531
13148SOL    HW240886   3.592   1.830   0.491 -1.4969 -0.5950  0.8633
13149SOL     OW40887   4.142   0.532   6.713  0.0735 -0.0490  0.1868
13149SOL    HW140888   4.117   0.485   6.793  1.9203  1.4827  1.7474
13149SOL    HW240889   4.065   0.583   6.690 -0.2797 -0.0072  1.3888
13150SOL     OW40890   7.745   6.764   9.184  0.0558 -0.4586  0.4056
13150SOL    HW140891   7.705   6.701   9.124 -1.5281 -1.0707  2.0208
13150SOL    HW240892   7.702   6.847   9.165  0.6789 -0.2967 -0.3384
13151SOL     OW40893   4.274   4.703   5.766  0.4363  0.3442  0.1670
13151SOL    HW140894   4.365   4.679   5.779  0.0381 -0.6249  1.3922
13151SOL    HW240895   4.266   4.789   5.806  0.6943  0.1776  0.5896
13152SOL     OW40896   2.963   1.348   3.305  0.2986  0.6413  0.2509
13152SOL    HW140897   2.881   1.333   3.352 -0.0467  1.0749 -0.1975
13152SOL    HW240898   2.980   1.267   3.258 -1.0243  1.2360 -1.3678
13153SOL     OW40899   5.477   3.529   7.196  0.4013  0.3067  0.1509
13153SOL    HW140900   5.466   3.449   7.145  0.6189  0.5741 -0.3295
13153SOL    HW240901   5.392   3.545   7.236 -0.1918  0.8395 -1.2556
13154SOL     OW40902   3.020   3.058   8.950 -0.0191  0.4733  0.4941
13154SOL    HW140903   3.083   3.091   9.015 -0.5565  0.1819  1.1836
13154SOL    HW240904   2.976   3.136   8.917  0.5335  0.6595  0.1815
13155SOL     OW40905   4.313   2.880   9.074  0.2811 -0.5512 -0.5845
13155SOL    HW140906   4.355   2.928   9.003 -0.1233  1.0157  0.1906
13155SOL    HW240907   4.321   2.938   9.150 -1.6134 -1.0197  0.0262
13156SOL     OW40908   6.129   3.954   1.801  0.1907 -0.0228 -0.3918
13156SOL    HW140909   6.201   4.015   1.817 -0.9439  0.6756  2.6971
13156SOL    HW240910   6.074   3.998   1.736 -0.9521  2.7254  2.2025
13157SOL     OW40911   3.637   0.150   2.558 -0.1818 -0.2374 -0.4447
13157SOL    HW140912   3.581   0.194   2.622 -0.9165 -0.5149 -0.8844
13157SOL    HW240913   3.689   0.088   2.610 -0.4459 -0.1365 -0.0591
13158SOL     OW40914   7.179   3.388   2.282  0.1842 -0.2734 -0.0184
13158SOL    HW140915   7.206   3.407   2.372 -0.1760 -0.5181  0.1420
13158SOL    HW240916   7.235   3.315   2.255 -1.3895 -1.8823  0.8831
13159SOL     OW40917   6.308   1.329   6.902  0.0761  0.2330 -0.0642
13159SOL    HW140918   6.235   1.346   6.842 -1.1729 -1.3039  0.9396
13159SOL    HW240919   6.356   1.256   6.863 -0.0272  0.0272  0.1866
13160SOL     OW40920   7.961   3.644   9.456 -0.0974  0.2292  0.1986
13160SOL    HW140921   8.004   3.600   9.383  0.6814 -1.8430  1.7905
13160SOL    HW240922   7.880   3.594   9.470  1.8998 -2.5273  3.5202
13161SOL     OW40923   2.518   5.981   5.829 -0.3046 -0.2322 -0.1725
13161SOL    HW140924   2.577   5.988   5.904  0.0683  1.0975 -0.5547
13161SOL    HW240925   2.514   5.887   5.810 -1.9323 -0.8465  2.6617
13162SOL     OW40926   5.015   2.534   6.796  0.1147 -0.1466 -0.2736
13162SOL    HW140927   5.013   2.446   6.757 -1.2337 -0.2894  0.0388
13162SOL    HW240928   5.089   2.532   6.856  0.5939 -0.7953 -0.8676
13163SOL     OW40929   7.220   6.351   0.506 -0.6353  0.2296  0.5896
13163SOL    HW140930   7.287   6.304   0.456  1.1778  2.5767  0.6080
13163SOL    HW240931   7.226   6.316   0.594 -0.4627 -0.6071  0.2499
13164SOL     OW40932   4.110   5.097  11.314 -0.4612 -0.0571 -0.1189
13164SOL    HW140933   4.067   5.132  11.236 -1.3068  1.4684  0.9710
13164SOL    HW240934   4.088   5.159  11.383 -0.6985 -1.9449  1.6062
13165SOL     OW40935   7.145   7.747   3.427  0.0563 -0.5044  0.4038
13165SOL    HW140936   7.106   7.834   3.437  1.0060 -0.0775  0.4695
13165SOL    HW240937   7.076   7.687   3.456 -0.5588  0.2287  0.5031
13166SOL     OW40938   4.027   3.455  11.899 -0.5244 -0.6798  0.1957
13166SOL    HW140939   4.040   3.487  11.988 -0.6238 -2.4350  0.8678
13166SOL    HW240940   3.942   3.411  11.901 -0.3212 -1.1329 -0.6486
13167SOL     OW40941   5.982   6.654   8.326 -0.1989  0.3177  0.1764
13167SOL    HW140942   6.027   6.724   8.372 -0.5296 -0.9183  2.5312
13167SOL    HW240943   6.052   6.591   8.305 -0.3410 -0.1318  1.0019
13168SOL     OW40944   2.374   3.452   8.552  0.1004  0.4798  0.0454
13168SOL    HW140945   2.425   3.404   8.487 -3.9546 -3.1124 -0.9918
13168SOL    HW240946   2.338   3.527   8.505  2.0330  1.4612  0.0417
13169SOL     OW40947   6.415   4.471   1.793  0.8034 -0.0839  0.1136
13169SOL    HW140948   6.440   4.561   1.772 -2.8845  1.2837  0.7292
13169SOL    HW240949   6.388   4.434   1.709  1.4756 -0.3158 -0.0028
13170SOL     OW40950   3.815   4.393   3.683 -0.0664 -0.1063  0.0803
13170SOL    HW140951   3.764   4.468   3.713 -0.9785 -1.3253  1.7769
13170SOL    HW240952   3.762   4.354   3.614 -0.0920  0.2263 -0.0868
13171SOL     OW40953   1.005   4.781  10.595 -0.8697 -0.1805 -0.3159
13171SOL    HW140954   1.032   4.738  10.513 -1.3158 -0.2574 -0.4219
13171SOL    HW240955   1.086   4.786  10.646 -0.2394  1.2915 -1.3838
13172SOL     OW40956   2.342   5.848  11.518 -0.0665  0.2981  0.2621
13172SOL    HW140957   2.395   5.917  11.557  0.2315  0.5301 -0.5424
13172SOL    HW240958   2.262   5.847  11.570 -0.5920  2.0760 -0.4453
13173SOL     OW40959   6.796   6.595   4.943  0.0347  0.1541  0.3165
13173SOL    HW140960   6.811   6.507   4.908  0.9138 -0.0692  1.2101
13173SOL    HW240961   6.794   6.651   4.866  0.3030 -0.5445 -0.2106
13174SOL     OW40962   4.881   7.039   7.929  0.0363 -0.2626 -0.3303
13174SOL    HW140963   4.819   7.061   7.999  0.9205 -1.0228  0.7285
13174SOL    HW240964   4.836   7.064   7.849 -2.4626 -2.4003  0.2279
13175SOL     OW40965   5.255   3.724   8.006  0.4251 -0.3767  0.1455
13175SOL    HW140966   5.251   3.803   7.952  1.7288 -0.4871 -0.1542
13175SOL    HW240967   5.165   3.691   8.007 -0.0361  0.8116 -0.1627
13176SOL     OW40968   3.211   0.683   2.431  0.1884 -1.0055 -0.2007
13176SOL    HW140969   3.184   0.774   2.418  0.5716 -0.9550 -0.6207
13176SOL    HW240970   3.267   0.663   2.357  0.4682 -1.4467  0.1247
13177SOL     OW40971   3.585   4.482   2.318  0.5706  0.0672 -0.0716
13177SOL    HW140972   3.598   4.387   2.316  1.5753  0.1988 -0.3972
13177SOL    HW240973   3.541   4.501   2.235  1.0414 -0.0297 -0.3484
13178SOL     OW40974   1.968   0.287  11.425 -0.2850  0.4896  0.7649
13178SOL    HW140975   2.058   0.264  11.449 -1.0527 -0.5740  2.8155
13178SOL    HW240976   1.919   0.205  11.432 -1.5627  1.1945  0.3934
13179SOL     OW40977   3.041   4.607   0.066 -0.1465  0.4785 -0.2019
13179SOL    HW140978   2.998   4.672   0.010  1.9750  1.1304 -1.1900
13179SOL    HW240979   3.099   4.658   0.123 -0.8120 -0.3397  1.2718
13180SOL     OW40980   1.629   6.774   7.085 -0.5138  0.4608  0.1086
13180SOL    HW140981   1.691   6.847   7.077 -1.0588  0.9783  0.5101
13180SOL    HW240982   1.577   6.796   7.163  0.5472 -1.2994  1.3820
13181SOL     OW40983   1.563   3.641  12.264 -0.1153 -0.3791 -0.2865
13181SOL    HW140984   1.530   3.672  12.348 -3.3355 -0.0415 -1.5182
13181SOL    HW240985   1.529   3.552  12.256  1.3256 -0.9264 -0.6823
13182SOL     OW40986   0.575   6.610   2.116  0.2324  0.3584  0.1336
13182SOL    HW140987   0.491   6.628   2.158  1.1289  0.4407  2.0003
13182SOL    HW240988   0.616   6.696   2.104  1.7466  0.1513  3.0507
13183SOL     OW40989   0.503   6.894  11.196 -0.0674  0.0730  0.3219
13183SOL    HW140990   0.508   6.826  11.263 -2.3736 -0.1604  0.3332
13183SOL    HW240991   0.426   6.946  11.219 -2.7169 -1.6576 -3.5212
13184SOL     OW40992   0.112   0.272   0.470  0.3113 -0.5131 -0.1421
13184SOL    HW140993   0.087   0.287   0.379  1.4726 -0.0063 -0.3980
13184SOL    HW240994   0.120   0.177   0.478 -2.2978 -0.7782  0.1536
13185SOL     OW40995   5.895   2.781   5.646  0.4518  0.1675  0.2832
13185SOL    HW140996   5.894   2.876   5.655  1.0258  0.3060 -0.8585
13185SOL    HW240997   5.804   2.755   5.661 -0.0528  1.0784 -0.9755
13186SOL     OW40998   6.433   6.085   1.056 -0.0709 -0.3410  0.0895
13186SOL    HW140999   6.370   6.148   1.090  0.1701 -0.0460 -0.0152
13186SOL    HW241000   6.447   6.111   0.965 -0.3826 -0.8675 -0.1119
13187SOL     OW41001   5.187   6.078   3.481  0.0815 -0.2795 -0.3582
13187SOL    HW141002   5.186   6.171   3.458  0.1759 -0.0904  0.3497
13187SOL    HW241003   5.229   6.076   3.567  0.9306 -1.0759 -0.7751
13188SOL     OW41004   4.042   4.809   0.248  0.5782  0.5420  0.5026
13188SOL    HW141005   3.975   4.740   0.244  2.3179 -1.2173 -0.3157
13188SOL    HW241006   4.054   4.825   0.342  1.1231 -1.3895  0.8282
13189SOL     OW41007   7.711   1.584   2.879 -0.3165  0.1979 -0.2587
13189SOL    HW141008   7.679   1.539   2.958 -0.6617 -0.0672 -0.5471
13189SOL    HW241009   7.693   1.523   2.808  0.5169  0.1964 -0.4773
13190SOL     OW41010   4.105   4.594   9.459 -0.2637  0.0758  0.2402
13190SOL    HW141011   4.198   4.615   9.467 -0.2133 -0.2061  0.4129
13190SOL    HW241012   4.080   4.629   9.373  0.5314 -1.7029 -0.8020
13191SOL     OW41013   4.387   5.110   7.933 -0.6467  0.1877  0.1864
13191SOL    HW141014   4.353   5.179   7.989 -2.9866  0.9077 -1.9162
13191SOL    HW241015   4.311   5.082   7.881  0.9107 -1.8571 -1.1534
13192SOL     OW41016   2.554   5.096  12.410 -0.0946 -0.5508  0.2202
13192SOL    HW141017   2.632   5.093  12.465 -0.1715 -0.0218  0.3570
13192SOL    HW241018   2.588   5.089  12.321  0.3509  2.2281  0.0926
13193SOL     OW41019   7.624   1.120   2.140  0.0285 -0.4847  0.0720
13193SOL    HW141020   7.531   1.110   2.121  0.0208 -0.3997  0.0640
13193SOL    HW241021   7.644   1.048   2.200 -0.4589  0.5544  1.5440
13194SOL     OW41022   6.103   0.853  10.916  0.1256 -0.3328  0.3394
13194SOL    HW141023   6.134   0.799  10.988  1.4065  0.9627  0.7908
13194SOL    HW241024   6.091   0.940  10.954  3.6604  1.1738 -1.5096
13195SOL     OW41025   1.396   4.765   8.318 -0.4247 -0.5924  0.7960
13195SOL    HW141026   1.336   4.801   8.383  0.6802  0.6348  1.1759
13195SOL    HW241027   1.363   4.796   8.234  0.8993  2.0567  1.1486
13196SOL     OW41028   5.208   4.219   4.198 -0.0675 -0.6305  0.1415
13196SOL    HW141029   5.281   4.269   4.234  1.4809 -1.1072 -2.1593
13196SOL    HW241030   5.174   4.274   4.127 -1.3010 -0.8933  0.5017
13197SOL     OW41031   5.832   3.402   7.259  0.3385 -0.2301 -0.1688
13197SOL    HW141032   5.841   3.497   7.269 -0.0778 -0.1922 -0.1252
13197SOL    HW241033   5.868   3.384   7.172 -0.0192  0.0373 -0.3773
13198SOL     OW41034   4.164   2.294   7.025 -0.3931 -0.2696 -0.3893
13198SOL    HW141035   4.203   2.229   7.083 -1.0008 -0.7240 -0.4787
13198SOL    HW241036   4.111   2.349   7.082 -1.2611 -0.9227 -0.5375
13199SOL     OW41037   3.021   7.678   7.657 -0.3076  0.3399  0.1526
13199SOL    HW141038   3.083   7.745   7.687  1.2702 -0.2287 -1.6112
13199SOL    HW241039   3.050   7.658   7.568 -1.4935 -1.8036  0.1958
13200SOL     OW41040   6.638   1.122   7.918 -0.0768  0.3558  0.4449
13200SOL    HW141041   6.578   1.048   7.925  0.0189  0.1916 -0.4284
13200SOL    HW241042   6.721   1.083   7.891 -0.0807  0.8010 -0.2379
13201SOL     OW41043   5.747   2.549  10.357  0.1242  0.1170  0.8977
13201SOL    HW141044   5.757   2.578  10.447 -0.0238  0.1841  0.8923
13201SOL    HW241045   5.673   2.489  10.359  0.4646 -0.3092  0.9179
13202SOL     OW41046   0.521   7.944   6.667  0.5959 -0.2916  0.9445
13202SOL    HW141047   0.552   7.949   6.757  0.7303  0.2589  0.8669
13202SOL    HW241048   0.575   8.005   6.618  0.8157 -0.9011  0.3975
13203SOL     OW41049   1.975   0.509   3.993  0.4418  0.1363 -0.0148
13203SOL    HW141050   1.951   0.456   4.068  0.8989  0.1139  0.1229
13203SOL    HW241051   2.065   0.536   4.011  1.0003 -0.8682 -1.1157
13204SOL     OW41052   7.659   0.941  10.715 -0.1029  0.2473 -0.2316
13204SOL    HW141053   7.578   0.991  10.722  0.5448  1.2601  0.1734
13204SOL    HW241054   7.700   0.948  10.802 -0.3301 -1.5903  0.0774
13205SOL     OW41055   7.108   6.040   2.448  0.1227  0.2426 -0.0803
13205SOL    HW141056   7.182   6.002   2.400 -0.0652  0.1918 -0.3334
13205SOL    HW241057   7.129   6.025   2.540 -0.0891 -0.7327 -0.1879
13206SOL     OW41058   4.599   0.833   0.772 -0.0556  0.4223  0.0785
13206SOL    HW141059   4.575   0.877   0.853  0.6190  0.4116  0.2912
13206SOL    HW241060   4.534   0.762   0.763 -0.3593  0.6562  0.4047
13207SOL     OW41061   0.326   4.538   7.386 -0.2860  0.2153  0.0716
13207SOL    HW141062   0.381   4.565   7.459  0.0216  1.2041 -0.4949
13207SOL    HW241063   0.375   4.468   7.343  0.1901  0.5850  0.0048
13208SOL     OW41064   3.449   2.345   1.508 -0.2301  0.1751  0.3717
13208SOL    HW141065   3.523   2.373   1.454  0.7382 -1.9169  0.5229
13208SOL    HW241066   3.427   2.422   1.560  1.2098  1.1341 -0.3643
13209SOL     OW41067   4.522   3.294  12.408  0.0404  0.4751 -0.3804
13209SOL    HW141068   4.465   3.222  12.382  0.2552  0.2723 -0.2950
13209SOL    HW241069   4.593   3.252  12.456 -0.9318  0.9390  1.5595
13210SOL     OW41070   2.868   0.977   5.474  0.1041 -0.0354  0.4800
13210SOL    HW141071   2.906   1.031   5.404  1.3740 -0.9153  0.4492
13210SOL    HW241072   2.788   1.023   5.499 -0.8947 -0.1737 -2.1654
13211SOL     OW41073   4.629   2.831   8.640 -0.4326 -0.0339 -0.2836
13211SOL    HW141074   4.637   2.915   8.595 -1.6233 -0.7395 -1.9458
13211SOL    HW241075   4.578   2.776   8.579 -0.1786 -1.7771  0.9896
13212SOL     OW41076   6.957   7.527   4.517  0.4610  0.2597  0.5243
13212SOL    HW141077   6.937   7.459   4.452  1.1893 -0.4730  1.0507
13212SOL    HW241078   7.050   7.545   4.505  0.8208 -0.5259  1.9327
13213SOL     OW41079   3.711   7.642   6.774  0.4605 -1.2010  0.2432
13213SOL    HW141080   3.733   7.722   6.821 -0.6271 -1.6539  1.5700
13213SOL    HW241081   3.618   7.649   6.756  0.9143 -0.8249 -2.3397
13214SOL     OW41082   1.943   6.777  12.115 -0.0851  0.0851 -0.8259
13214SOL    HW141083   1.962   6.702  12.059 -0.8040 -0.4403 -0.3950
13214SOL    HW241084   1.856   6.807  12.086 -0.4324 -0.1470 -0.0686
13215SOL     OW41085   2.705   3.943   2.036  0.0134  0.0076 -0.4409
13215SOL    HW141086   2.718   3.880   1.965  4.6492  0.5394 -0.3475
13215SOL    HW241087   2.669   3.890   2.107 -0.6846 -1.4630 -1.8098
13216SOL     OW41088   5.637   5.545   5.833  0.2187 -0.1205 -0.4014
13216SOL    HW141089   5.552   5.525   5.873  0.0375  2.6139  0.7619
13216SOL    HW241090   5.695   5.561   5.908  1.4440 -0.6093 -1.2121
13217SOL     OW41091   4.073   0.066  10.098  0.0528 -0.3028 -0.4130
13217SOL    HW141092   4.007   0.054  10.031 -1.1561 -0.9254  0.8453
13217SOL    HW241093   4.115  -0.020  10.106 -1.1058 -0.7866  0.9091
13218SOL     OW41094   5.157   1.213   0.414  0.1793 -0.5175  0.4635
13218SOL    HW141095   5.122   1.152   0.349  0.8876  0.5519 -0.9910
13218SOL    HW241096   5.251   1.193   0.418  0.2169 -0.2773  0.8306
13219SOL     OW41097   7.177   1.623  12.232  0.4644 -0.0352 -0.3534
13219SOL    HW141098   7.131   1.543  12.207 -0.7413  0.3637  0.4824
13219SOL    HW241099   7.225   1.599  12.312  0.9969 -0.2114 -0.7221
13220SOL     OW41100   4.029   7.314   5.084 -0.1766 -0.4155  0.7066
13220SOL    HW141101   4.038   7.228   5.043 -1.2085 -0.2631  0.1305
13220SOL    HW241102   3.946   7.308   5.132 -0.1013  0.1546  0.9052
13221SOL     OW41103   7.079   0.157   9.489 -0.3949 -0.1669 -0.1593
13221SOL    HW141104   7.102   0.236   9.538  0.5544 -0.0934 -0.7155
13221SOL    HW241105   7.064   0.090   9.557 -0.2845  0.2448  0.2748
13222SOL     OW41106   1.710   6.470  11.208  0.1002  0.3169 -0.0918
13222SOL    HW141107   1.685   6.448  11.119  0.4904 -0.5393  0.0021
13222SOL    HW241108   1.735   6.563  11.204  0.6853  0.1314 -0.9854
13223SOL     OW41109   0.120   7.255   1.398 -0.0038 -0.0156  0.6144
13223SOL    HW141110   0.137   7.161   1.390 -0.0255  0.1087 -1.9303
13223SOL    HW241111   0.054   7.273   1.330 -0.2911  1.7733  1.3193
13224SOL     OW41112   4.030   7.579   7.575 -0.1891 -0.2498 -0.3444
13224SOL    HW141113   4.074   7.502   7.539  0.0593  0.9145 -2.7026
13224SOL    HW241114   4.015   7.557   7.667  3.5957 -1.4534  0.1432
13225SOL     OW41115   5.956   6.056   5.128 -0.3707  0.0578  0.3102
13225SOL    HW141116   5.909   6.135   5.099  0.0725  0.0004 -0.6025
13225SOL    HW241117   6.015   6.087   5.197 -0.3079  0.4962  0.0608
13226SOL     OW41118   4.417   7.760   8.712  0.2950 -0.4012 -0.2037
13226SOL    HW141119   4.393   7.819   8.640  1.1004  0.8838  0.5399
13226SOL    HW241120   4.493   7.712   8.679  0.6903  0.2140 -0.2045
13227SOL     OW41121   1.088   4.089   6.606 -0.0408  0.2644  0.5235
13227SOL    HW141122   1.173   4.120   6.638  0.0272  0.7823 -0.1307
13227SOL    HW241123   1.037   4.169   6.592  0.1809  0.1305 -1.3309
13228SOL     OW41124   5.102   2.764   8.373  0.2162 -0.4567 -0.6106
13228SOL    HW141125   5.088   2.670   8.385 -1.0806 -0.3351 -0.9918
13228SOL    HW241126   5.175   2.786   8.431 -0.1986 -1.4938  0.3340
13229SOL     OW41127   6.554   5.118   5.792 -0.3064 -0.2368 -0.4693
13229SOL    HW141128   6.528   5.205   5.764  1.3861  0.2560 -0.6106
13229SOL    HW241129   6.631   5.098   5.740  0.0309 -1.3252  0.4050
13230SOL     OW41130   4.049   3.297  12.220  0.3544 -0.6126 -0.4922
13230SOL    HW141131   4.032   3.213  12.179 -0.9825  0.3995 -2.1410
13230SOL    HW241132   4.141   3.315  12.202  0.4455 -1.3587 -0.7951
13231SOL     OW41133   4.155   4.163  11.399  0.1211  0.2138 -0.4711
13231SOL    HW141134   4.232   4.149  11.343 -0.1672 -0.9148 -0.6262
13231SOL    HW241135   4.190   4.186  11.484  0.5623  3.3017 -1.3814
13232SOL     OW41136   1.036   3.453   9.198  0.1870  0.3653 -0.1455
13232SOL    HW141137   1.104   3.497   9.249 -1.1255  0.2273  1.8692
13232SOL    HW241138   1.080   3.422   9.119  1.6487  3.3433 -0.6302
13233SOL     OW41139   7.682   2.478   8.105 -0.5539  0.1584 -0.5310
13233SOL    HW141140   7.737   2.460   8.181 -0.5360 -1.1449 -0.8190
13233SOL    HW241141   7.640   2.561   8.124 -0.4064 -0.0564  0.8148
13234SOL     OW41142   7.714   3.694   6.645  0.4743 -0.7024  0.4432
13234SOL    HW141143   7.628   3.658   6.623 -0.2242  0.2884  1.4622
13234SOL    HW241144   7.715   3.780   6.604  1.1870 -0.8958  0.0361
13235SOL     OW41145   5.130   0.614   5.793  0.2894 -0.0934 -0.1874
13235SOL    HW141146   5.172   0.695   5.824 -1.3482  0.4496  0.7446
13235SOL    HW241147   5.067   0.644   5.727 -2.4693 -0.1506  2.2373
13236SOL     OW41148   3.153   3.052  10.480 -0.2655  0.4267  0.2959
13236SOL    HW141149   3.207   3.118  10.524  0.5125 -0.4915  0.7736
13236SOL    HW241150   3.139   2.985  10.548 -1.4175  0.3101 -0.0392
13237SOL     OW41151   6.779   1.684  11.092  0.0110 -0.0582  0.1254
13237SOL    HW141152   6.808   1.674  11.002 -0.6760 -0.2586 -0.0833
13237SOL    HW241153   6.859   1.693  11.143  0.5597 -2.6040 -0.1799
13238SOL     OW41154   3.833   0.420   4.866  0.3782 -0.4022  0.0869
13238SOL    HW141155   3.915   0.428   4.817  0.1663  1.3661 -0.0478
13238SOL    HW241156   3.846   0.474   4.944 -0.3877 -0.7266  0.4464
13239SOL     OW41157   3.288   7.063   2.074 -0.3220  0.2018  0.1237
13239SOL    HW141158   3.359   7.098   2.129 -1.5084 -0.2751  2.0510
13239SOL    HW241159   3.255   7.139   2.026  0.8913  0.5889 -0.1391
13240SOL     OW41160   0.782   2.313   4.060 -0.0657  0.5102  0.1456
13240SOL    HW141161   0.871   2.296   4.028 -0.2815 -1.4321  0.4491
13240SOL    HW241162   0.741   2.364   3.990  0.6324 -0.4586 -1.0239
13241SOL     OW41163   7.641   6.549   2.127  0.7208  0.0993  0.0389
13241SOL    HW141164   7.730   6.563   2.095  0.4113 -0.7671 -1.2694
13241SOL    HW241165   7.639   6.458   2.156 -0.4637 -0.8227 -2.6272
13242SOL     OW41166   2.404   6.964   7.718  0.8051  0.1773 -0.5441
13242SOL    HW141167   2.343   6.895   7.692  0.6489 -0.1170  0.5748
13242SOL    HW241168   2.401   6.964   7.813  1.9687  0.6877 -0.4931
13243SOL     OW41169   0.229   1.637   4.291  0.2554  0.2994 -0.1999
13243SOL    HW141170   0.281   1.566   4.255 -0.9434 -0.1254 -1.1926
13243SOL    HW241171   0.161   1.652   4.225  0.3033  2.1688  0.1246
13244SOL     OW41172   1.058   1.373   1.778 -0.1543  0.5738  0.3488
13244SOL    HW141173   1.107   1.341   1.702  0.3208  1.5505  0.2194
13244SOL    HW241174   1.002   1.300   1.804  1.1472 -0.4563  0.3051
13245SOL     OW41175   2.614   0.962   2.628 -0.2966 -0.2516 -0.2325
13245SOL    HW141176   2.565   0.933   2.551 -0.7112 -0.3738  0.0795
13245SOL    HW241177   2.571   0.920   2.702 -0.4612  0.5707  0.1562
13246SOL     OW41178   5.379   6.888   6.691  0.4268  0.1330  0.0040
13246SOL    HW141179   5.415   6.885   6.779  1.7544  1.9787 -0.4173
13246SOL    HW241180   5.356   6.981   6.677 -2.5378 -0.5682 -0.5607
13247SOL     OW41181   6.980   4.426   4.379 -0.2489 -0.5425 -0.3105
13247SOL    HW141182   7.029   4.508   4.383 -0.3944 -0.4743  0.0934
13247SOL    HW241183   6.894   4.447   4.415 -0.0182 -1.0626  0.5983
13248SOL     OW41184   5.084   2.452   2.741 -0.2447  0.6507  0.3869
13248SOL    HW141185   5.086   2.357   2.748  0.1924  0.6192 -0.1050
13248SOL    HW241186   5.100   2.483   2.830  1.8861  0.2528  0.2168
13249SOL     OW41187   4.199   3.934   9.778  0.1743 -0.7056  0.7333
13249SOL    HW141188   4.183   3.990   9.854 -1.7390  0.7199 -0.6133
13249SOL    HW241189   4.166   3.985   9.704  1.8540 -2.0893 -1.0685
13250SOL     OW41190   5.978   1.361   9.050  0.4138 -0.0076  0.1368
13250SOL    HW141191   6.046   1.298   9.029  0.5329  0.0396  0.3772
13250SOL    HW241192   6.024   1.432   9.094  0.3847  0.5552 -0.7090
13251SOL     OW41193   1.600   1.945  12.000 -0.3634  0.2620 -0.0466
13251SOL    HW141194   1.687   1.936  12.039  0.6172 -0.2967 -2.2295
13251SOL    HW241195   1.541   1.958  12.075  1.0803 -2.7322  1.7794
13252SOL     OW41196   1.175   0.982   9.181  0.0441 -0.3109 -0.2896
13252SOL    HW141197   1.221   1.046   9.235 -1.1796  0.9201 -0.6606
13252SOL    HW241198   1.160   0.908   9.240  2.1885 -0.6596 -0.0792
13253SOL     OW41199   7.350   5.790   1.642  0.2126 -0.0949 -0.2723
13253SOL    HW141200   7.427   5.830   1.684 -0.3003  1.0824 -0.4390
13253SOL    HW241201   7.387   5.720   1.587  1.0827 -0.1393  0.3400
13254SOL     OW41202   7.519   5.068   3.470  0.3552  0.0211  0.5065
13254SOL    HW141203   7.504   5.161   3.452  1.1229 -0.0440 -0.5487
13254SOL    HW241204   7.431   5.031   3.476  0.0228  0.9118  1.5690
13255SOL     OW41205   5.870   3.437   7.577 -0.8080 -0.3026 -0.2402
13255SOL    HW141206   5.914   3.371   7.630 -1.4081 -0.0010  0.6537
13255SOL    HW241207   5.819   3.388   7.514 -3.5064 -0.8548  2.1763
13256SOL     OW41208   4.755   6.932   1.761  0.8519  0.4835 -0.0821
13256SOL    HW141209   4.830   6.884   1.797  0.3650  1.1454  1.9313
13256SOL    HW241210   4.693   6.938   1.834 -0.3970  1.5214 -1.1870
13257SOL     OW41211   5.778   4.572   1.633  0.6489  0.0509  0.3108
13257SOL    HW141212   5.804   4.521   1.710  0.1090 -1.8823 -0.6949
13257SOL    HW241213   5.707   4.628   1.664  1.5828  0.5712  1.5797
13258SOL     OW41214   2.287   1.260   6.069  0.1776 -0.2139 -0.0051
13258SOL    HW141215   2.236   1.329   6.026 -2.3152 -0.7284  1.8959
13258SOL    HW241216   2.375   1.271   6.034 -0.6714  2.2851 -1.6937
13259SOL     OW41217   2.406   2.186  10.805  0.4065 -0.2432 -0.1127
13259SOL    HW141218   2.408   2.094  10.833  0.5792 -0.0613  0.4919
13259SOL    HW241219   2.350   2.229  10.869  0.1895  0.0450 -0.4939
13260SOL     OW41220   2.530   5.750   7.334  0.5325  0.1210  0.7128
13260SOL    HW141221   2.510   5.678   7.274 -0.1069  0.8330  0.0550
13260SOL    HW241222   2.465   5.742   7.403  0.9186 -0.3606  1.0314
13261SOL     OW41223   2.973   7.377   2.137 -0.0843 -0.3933 -0.3745
13261SOL    HW141224   3.067   7.359   2.141 -0.0275  0.1311  1.2224
13261SOL    HW241225   2.933   7.291   2.121  0.6236 -0.6927 -0.5763
13262SOL     OW41226   6.033   4.639   0.941  0.3368 -0.6381 -0.3833
13262SOL    HW141227   5.954   4.610   0.895  0.1042 -3.1320  1.3956
13262SOL    HW241228   6.017   4.617   1.033  2.6927 -0.2769  0.1769
13263SOL     OW41229   3.206   6.938   4.916  0.1010  0.8473  0.6728
13263SOL    HW141230   3.274   6.893   4.866 -0.2266  1.6463 -0.5219
13263SOL    HW241231   3.217   7.031   4.893 -1.4491  0.9783  0.3885
13264SOL     OW41232   6.802   4.482   2.276  0.5019 -0.4905 -0.4278
13264SOL    HW141233   6.894   4.490   2.250 -0.1844 -0.6139 -3.2154
13264SOL    HW241234   6.773   4.400   2.237 -0.8886 -0.2685  0.0978
13265SOL     OW41235   1.399   5.981   7.310 -0.0837 -0.4128 -0.0081
13265SOL    HW141236   1.375   5.904   7.361 -0.2087 -0.0860  0.4309
13265SOL    HW241237   1.318   6.031   7.301  0.1705  0.1077  0.4727
13266SOL     OW41238   4.768   0.158   1.084  0.5111 -0.0298 -0.0403
13266SOL    HW141239   4.690   0.140   1.138 -0.8924  2.5762 -1.0122
13266SOL    HW241240   4.779   0.078   1.032 -1.6014 -0.4480  0.0390
13267SOL     OW41241   3.459   7.122  10.629  0.5857 -0.0400  0.1670
13267SOL    HW141242   3.489   7.191  10.570 -0.7663  0.8769  0.5024
13267SOL    HW241243   3.471   7.159  10.717 -1.8131  0.5858  0.3210
13268SOL     OW41244   0.355   3.687   9.828 -0.0966  0.4437  0.7142
13268SOL    HW141245   0.316   3.755   9.773  1.2598  0.9770  0.3942
13268SOL    HW241246   0.331   3.605   9.785  3.4221  0.8510 -2.5657
13269SOL     OW41247   1.318   7.128  10.618 -0.6322 -0.4047  0.6133
13269SOL    HW141248   1.292   7.160  10.531  1.6196 -0.6616 -0.2311
13269SOL    HW241249   1.265   7.179  10.679 -0.9064  1.1735 -0.8555
13270SOL     OW41250   3.540   4.670   1.734  0.1758  0.0826  0.5862
13270SOL    HW141251   3.448   4.678   1.758  0.1907  2.6135  0.0880
13270SOL    HW241252   3.587   4.716   1.804  1.1766 -1.7553  1.1955
13271SOL     OW41253   7.574   7.719   9.045  0.1130 -0.0484 -0.2253
13271SOL    HW141254   7.657   7.765   9.030 -0.5981  1.0368 -0.9666
13271SOL    HW241255   7.517   7.750   8.975 -0.9261 -0.7908  0.2784
13272SOL     OW41256   7.457   5.157   2.997 -0.0962  0.2763 -0.1094
13272SOL    HW141257   7.467   5.251   2.978 -0.1957 -0.1111 -2.4043
13272SOL    HW241258   7.379   5.131   2.949  1.1281 -1.3840 -1.3285
13273SOL     OW41259   3.039   6.057   8.687 -0.4804 -0.0310 -0.7871
13273SOL    HW141260   3.070   5.967   8.699 -1.9496 -0.4785 -0.0649
13273SOL    HW241261   3.101   6.096   8.626  1.6660 -0.7406  0.8352
13274SOL     OW41262   3.312   4.074  10.173  0.1511 -0.0608  0.2638
13274SOL    HW141263   3.245   4.074  10.241  0.8535 -0.8126  0.9889
13274SOL    HW241264   3.359   4.156  10.185 -1.2221  0.9261 -0.8733
13275SOL     OW41265   7.442   5.711   8.372  0.3048 -0.1591  0.0267
13275SOL    HW141266   7.396   5.641   8.420 -1.9922  0.8283 -0.5845
13275SOL    HW241267   7.433   5.788   8.428  2.0184 -0.0928  0.2670
13276SOL     OW41268   5.740   6.696   3.795  0.0326 -0.1166  0.1415
13276SOL    HW141269   5.739   6.614   3.843 -0.4481  0.4729  1.1677
13276SOL    HW241270   5.714   6.672   3.706 -1.3875 -0.9015  0.7403
13277SOL     OW41271   5.873   3.189   6.649  0.7342 -0.1235 -0.0064
13277SOL    HW141272   5.878   3.280   6.677  0.6012  0.0053 -0.3953
13277SOL    HW241273   5.874   3.193   6.554 -1.2049 -0.3925 -0.0827
13278SOL     OW41274   5.874   3.856   2.919  0.2142 -0.3027  0.7060
13278SOL    HW141275   5.798   3.893   2.875  0.8299  0.3589  0.1782
13278SOL    HW241276   5.837   3.794   2.982 -0.6937 -1.0253 -0.4893
13279SOL     OW41277   2.967   0.618   7.335  0.3476 -0.4240 -0.0796
13279SOL    HW141278   2.912   0.546   7.304  1.5276 -1.0557 -0.7910
13279SOL    HW241279   2.983   0.598   7.427  1.2895 -1.5151 -0.4563
13280SOL     OW41280   4.958   5.716  11.279  0.1267  0.2705 -0.5750
13280SOL    HW141281   5.006   5.638  11.307  0.4579  0.5368 -0.3849
13280SOL    HW241282   4.868   5.686  11.267  0.2813 -0.1733 -0.6515
13281SOL     OW41283   5.991   7.334   6.234 -0.4372  0.1736  0.1568
13281SOL    HW141284   5.970   7.419   6.196 -0.7135  0.3082  0.6086
13281SOL    HW241285   5.934   7.326   6.310 -1.9386 -1.3218 -1.0543
13282SOL     OW41286   0.967   5.841   5.897  0.0887 -0.4866  0.0306
13282SOL    HW141287   1.009   5.784   5.962  2.1519  1.4735  0.5420
13282SOL    HW241288   0.883   5.865   5.937  0.0910 -1.5170  0.7002
13283SOL     OW41289   5.606   1.034   9.147 -0.3955  0.2777  0.4411
13283SOL    HW141290   5.702   1.027   9.151 -0.5331 -1.0218  2.3186
13283SOL    HW241291   5.591   1.117   9.101  1.6161  0.6566  0.3447
13284SOL     OW41292   7.586   6.551  11.504 -0.6718 -0.4630 -0.0438
13284SOL    HW141293   7.657   6.498  11.468  0.4065  1.7360 -1.3564
13284SOL    HW241294   7.565   6.509  11.588  1.0221 -2.1376 -0.3894
13285SOL     OW41295   6.331   3.859   4.605 -0.4598  0.0601 -0.4033
13285SOL    HW141296   6.354   3.939   4.653 -0.1013 -0.8836  1.0473
13285SOL    HW241297   6.390   3.792   4.639 -1.2573 -1.0010 -1.0466
13286SOL     OW41298   7.925   3.002   8.668  0.2671 -0.1893 -0.0421
13286SOL    HW141299   7.887   3.027   8.584 -1.4640  0.0932  0.7753
13286SOL    HW241300   7.966   3.082   8.701  2.2321 -0.6383 -1.1960
13287SOL     OW41301   0.371   3.032   3.059 -0.0075  1.0053 -0.0374
13287SOL    HW141302   0.394   3.118   3.023 -0.2941  1.0534 -0.1121
13287SOL    HW241303   0.434   3.017   3.129  1.2540  0.4296 -1.2424
13288SOL     OW41304   6.183   4.901   5.233 -0.7009 -0.2026 -0.0569
13288SOL    HW141305   6.238   4.979   5.230  1.1196 -1.3532  1.4496
13288SOL    HW241306   6.095   4.934   5.250 -0.1050  1.5409 -0.1752
13289SOL     OW41307   4.600   4.056   0.178  0.1036  0.0291  0.1814
13289SOL    HW141308   4.645   4.089   0.256  0.7613 -0.2360 -0.0798
13289SOL    HW241309   4.561   3.973   0.206 -1.2269  0.7878  0.7301
13290SOL     OW41310   5.435   2.818   0.333 -0.0666 -0.7469  0.4826
13290SOL    HW141311   5.348   2.786   0.357  0.4414 -1.6196  1.2588
13290SOL    HW241312   5.470   2.750   0.275 -0.3364  0.1655 -0.7799
13291SOL     OW41313   5.999   1.339   5.722 -0.0347  0.4836 -0.2433
13291SOL    HW141314   5.911   1.303   5.731 -0.3167  1.0961 -0.5301
13291SOL    HW241315   6.057   1.263   5.732 -0.6361 -0.1585 -1.3499
13292SOL     OW41316   3.822   6.863   0.986  0.7556  0.1373  0.3087
13292SOL    HW141317   3.842   6.945   1.033  2.9743  0.1292 -0.4767
13292SOL    HW241318   3.875   6.797   1.031  1.7374 -0.1560 -1.2172
13293SOL     OW41319   2.399   1.494   3.711  0.5510  0.0750  0.1090
13293SOL    HW141320   2.380   1.564   3.774 -1.3617 -0.3103  0.0276
13293SOL    HW241321   2.452   1.536   3.644 -0.5601  1.4802  0.0582
13294SOL     OW41322   1.718   4.126   2.289  0.1574 -0.2575 -0.2786
13294SOL    HW141323   1.754   4.114   2.377  1.1318  0.1061 -0.6088
13294SOL    HW241324   1.683   4.215   2.289 -1.4892 -0.8714  0.2793
13295SOL     OW41325   5.852   5.956   0.047  0.1921  0.7567  0.1638
13295SOL    HW141326   5.945   5.937   0.063 -0.2983 -0.6080  1.6890
13295SOL    HW241327   5.847   5.974  -0.047  1.8196 -0.3105 -0.1647
13296SOL     OW41328   1.813   3.344   7.627  0.1011 -0.7818  0.1250
13296SOL    HW141329   1.894   3.308   7.663  0.6681  1.6015  1.4830
13296SOL    HW241330   1.842   3.410   7.564 -0.7726 -0.0738  0.4381
13297SOL     OW41331   7.760   5.019   3.330 -0.8915 -0.1157 -0.1019
13297SOL    HW141332   7.763   5.079   3.255 -1.6407 -0.1892 -0.1935
13297SOL    HW241333   7.667   5.006   3.347 -0.7231 -0.0043  0.9269
13298SOL     OW41334   0.931   6.158   0.854  0.0927 -0.3568 -0.2032
13298SOL    HW141335   0.848   6.139   0.810  0.7737 -2.0919 -0.8357
13298SOL    HW241336   0.912   6.150   0.947 -0.6700  0.3088 -0.2879
13299SOL     OW41337   5.306   2.141   0.781 -0.2870  0.0085 -0.3928
13299SOL    HW141338   5.239   2.139   0.713  1.2205 -1.6067 -1.9417
13299SOL    HW241339   5.358   2.219   0.762 -0.7628  0.3968 -0.1359
13300SOL     OW41340   3.490   5.459   2.062  0.0995 -0.2480  0.6399
13300SOL    HW141341   3.452   5.542   2.093 -0.1217 -0.3598  0.6711
13300SOL    HW241342   3.431   5.431   1.992  1.3364  0.6876 -0.8449
13301SOL     OW41343   3.872   3.460   8.223 -0.3485  0.8761  0.2064
13301SOL    HW141344   3.959   3.442   8.258  0.0265  1.4380 -0.4027
13301SOL    HW241345   3.836   3.527   8.280  0.1290  1.5506 -0.2682
13302SOL     OW41346   5.836   7.196   3.502 -0.0167  0.2392 -0.0674
13302SOL    HW141347   5.850   7.264   3.568  0.2721 -1.6554  1.9438
13302SOL    HW241348   5.787   7.239   3.432 -0.0892  2.4073  1.2500
13303SOL     OW41349   1.166   4.078   5.008 -0.2083 -0.4120  0.5076
13303SOL    HW141350   1.199   3.988   5.007  0.1319 -0.2848  0.3565
13303SOL    HW241351   1.150   4.097   5.100 -1.5930 -1.1086  0.4421
13304SOL     OW41352   7.303   3.391   1.437  0.1157 -0.1025 -0.5768
13304SOL    HW141353   7.317   3.333   1.362  0.9737 -1.8151  0.8147
13304SOL    HW241354   7.390   3.401   1.475 -0.3261  0.6229  0.2737
13305SOL     OW41355   7.878   6.015   9.198 -0.5768 -0.5846 -0.0012
13305SOL    HW141356   7.842   5.988   9.113 -2.2401  0.2510  0.3992
13305SOL    HW241357   7.940   6.085   9.177  0.2307 -1.4615 -0.6368
13306SOL     OW41358   3.157   2.515   1.665 -0.3722  0.2035 -0.5196
13306SOL    HW141359   3.152   2.451   1.736  0.9184  0.2435 -0.3696
13306SOL    HW241360   3.201   2.591   1.703  0.4097  0.1956 -1.3653
13307SOL     OW41361   4.673   5.145   7.858 -0.4220 -0.1956 -0.0666
13307SOL    HW141362   4.587   5.143   7.899 -1.8099 -0.3955 -2.7235
13307SOL    HW241363   4.698   5.237   7.859 -1.3855  0.0890 -0.5635
13308SOL     OW41364   1.430   4.554   9.643 -0.1469 -0.2227  0.1235
13308SOL    HW141365   1.477   4.583   9.721 -0.1644  2.1432 -0.6750
13308SOL    HW241366   1.441   4.458   9.643 -0.4660 -0.3796  3.1833
13309SOL     OW41367   3.059   7.285  10.520  0.0929  0.1553 -0.2775
13309SOL    HW141368   3.013   7.327  10.593 -0.3754  0.2952 -0.6479
13309SOL    HW241369   3.078   7.197  10.550 -1.8710 -0.4532 -0.7108
13310SOL     OW41370   6.683   3.109   5.012  0.4919 -0.5307  0.2383
13310SOL    HW141371   6.651   3.078   5.096  0.2839 -0.8974  0.0258
13310SOL    HW241372   6.630   3.186   4.993 -0.8297 -1.5865 -0.4839
13311SOL     OW41373   7.826   3.255   2.327  0.2360 -0.1051 -0.0813
13311SOL    HW141374   7.900   3.270   2.385 -0.8645  0.6425  1.1846
13311SOL    HW241375   7.817   3.160   2.323 -1.4057 -0.2735  3.4135
13312SOL     OW41376   1.297   4.044  10.653  0.5696 -0.0260 -0.4269
13312SOL    HW141377   1.315   4.095  10.574 -1.0000  0.4566 -0.5194
13312SOL    HW241378   1.377   3.996  10.670  1.2678  0.6203 -1.7515
13313SOL     OW41379   0.131   5.916   7.017  0.4044  0.0827 -0.4146
13313SOL    HW141380   0.156   5.965   6.939  1.3509  1.9864  1.0036
13313SOL    HW241381   0.215   5.889   7.056 -0.0203 -0.0390  0.4337
13314SOL     OW41382   2.441   6.304   9.357 -0.2487  0.3049  0.4512
13314SOL    HW141383   2.462   6.334   9.445 -0.8809  0.0160  0.7058
13314SOL    HW241384   2.526   6.285   9.317  0.3274  3.4791 -0.1178
13315SOL     OW41385   6.346   0.881   3.917  0.0043  0.0182  0.3544
13315SOL    HW141386   6.319   0.810   3.975  0.2301 -0.6753 -0.3676
13315SOL    HW241387   6.415   0.842   3.863 -0.4457  0.5278 -0.6103
13316SOL     OW41388   4.933   5.700   0.398  0.1181  0.0150 -0.4683
13316SOL    HW141389   4.841   5.724   0.392  0.3242  0.8611 -0.4029
13316SOL    HW241390   4.945   5.673   0.489 -0.2601 -0.9617 -0.7026
13317SOL     OW41391   6.396   0.987   4.844  0.7996 -0.1066  0.4831
13317SOL    HW141392   6.457   1.020   4.778  0.6287  0.5573  0.6528
13317SOL    HW241393   6.327   0.945   4.793  0.4477  0.7811  0.2178
13318SOL     OW41394   6.848   2.971   2.100 -0.1882 -0.4038 -0.5467
13318SOL    HW141395   6.900   3.002   2.175  2.3711 -2.3980 -1.3358
13318SOL    HW241396   6.803   3.049   2.069  1.1460  1.1709  1.1682
13319SOL     OW41397   5.056   3.060   4.884  0.3788 -0.1659 -0.2043
13319SOL    HW141398   5.009   3.110   4.818  0.7654  0.9558  0.3503
13319SOL    HW241399   5.004   3.072   4.964  0.3567 -0.8483 -0.1062
13320SOL     OW41400   1.494   4.502  11.648 -0.4994 -0.2819 -0.0116
13320SOL    HW141401   1.536   4.523  11.732 -1.6863  0.2753  0.4670
13320SOL    HW241402   1.448   4.420  11.665 -1.0130  0.0025 -0.0079
13321SOL     OW41403   3.359   0.574   2.211  0.5458  0.1758 -0.3545
13321SOL    HW141404   3.455   0.570   2.207  0.5839  1.4855 -2.3327
13321SOL    HW241405   3.330   0.546   2.124 -1.0109 -1.7930  0.6988
13322SOL     OW41406   1.586   3.487   7.432 -0.1397  0.3186 -0.4282
13322SOL    HW141407   1.662   3.434   7.453  0.5296  1.7842  1.1069
13322SOL    HW241408   1.524   3.471   7.502  0.9728  3.1200  1.3889
13323SOL     OW41409   4.593   1.831   0.571  0.2677  0.1283 -0.2664
13323SOL    HW141410   4.526   1.900   0.575 -0.3489 -0.4217 -0.9292
13323SOL    HW241411   4.674   1.878   0.549  0.0665  0.7661  0.2924
13324SOL     OW41412   7.180   5.995  11.303  0.4113  0.8086 -0.2354
13324SOL    HW141413   7.254   6.026  11.250  2.0902 -0.6130  1.1503
13324SOL    HW241414   7.178   6.053  11.378 -0.3287  1.2545 -0.5960
13325SOL     OW41415   0.052   1.015   3.481 -0.4811 -0.0371  0.0927
13325SOL    HW141416   0.065   1.109   3.466 -0.1128 -0.1566 -0.3575
13325SOL    HW241417   0.137   0.982   3.508 -0.6476 -0.2179  0.4108
13326SOL     OW41418   1.604   1.411  10.001  0.0586  0.3705 -0.4041
13326SOL    HW141419   1.615   1.318  10.021  1.4182 -0.2373 -3.2887
13326SOL    HW241420   1.676   1.430   9.941 -0.9161  2.9800 -0.8648
13327SOL     OW41421   7.860   4.375   2.066  0.6648  0.0600  0.2129
13327SOL    HW141422   7.857   4.392   2.160  1.6649  1.7637 -0.0025
13327SOL    HW241423   7.776   4.408   2.033  0.1908 -0.8151  0.5401
13328SOL     OW41424   0.967   7.548   4.819 -0.5038 -0.0880 -0.0262
13328SOL    HW141425   0.902   7.580   4.882 -0.0621  1.9823 -0.5579
13328SOL    HW241426   0.937   7.581   4.735  1.2214  0.9369 -0.2845
13329SOL     OW41427   5.358   4.466   5.370 -0.0676 -0.0754 -0.2252
13329SOL    HW141428   5.340   4.417   5.451  2.0472  1.0789  1.0394
13329SOL    HW241429   5.289   4.532   5.366  0.5008  0.6664  1.3841
13330SOL     OW41430   2.129   0.819   2.557 -0.1150  0.4839 -0.1405
13330SOL    HW141431   2.123   0.911   2.531 -0.7021  0.1078 -1.4462
13330SOL    HW241432   2.063   0.775   2.503 -1.0143 -0.4687  1.6685
13331SOL     OW41433   3.843   0.269   8.650  0.3147  0.2566  0.0683
13331SOL    HW141434   3.791   0.276   8.730  2.1952 -1.5290  1.5881
13331SOL    HW241435   3.782   0.239   8.583 -0.9407 -0.1685  1.3572
13332SOL     OW41436   0.850   4.712  10.060 -0.3479  0.1925 -0.0623
13332SOL    HW141437   0.831   4.695   9.967  1.1219 -1.4771 -0.1022
13332SOL    HW241438   0.946   4.716  10.064 -0.3876 -0.0828  1.4410
13333SOL     OW41439   1.543   7.349   4.403 -0.0672  0.4508 -0.4693
13333SOL    HW141440   1.489   7.289   4.454 -0.4574  2.8957  2.2687
13333SOL    HW241441   1.480   7.402   4.354  0.2054 -0.2798 -1.6659
13334SOL     OW41442   5.612   6.056  11.469 -0.1325  0.6671  0.0186
13334SOL    HW141443   5.567   5.999  11.531 -0.0176 -0.3073 -0.7600
13334SOL    HW241444   5.566   6.043  11.386  1.8713 -0.8352 -0.9568
13335SOL     OW41445   0.390   4.220  11.997  0.6045  0.9911  0.1157
13335SOL    HW141446   0.468   4.188  12.043 -0.5030  0.7289  1.9078
13335SOL    HW241447   0.408   4.203  11.904  1.4114 -1.9361  0.6992
13336SOL     OW41448   2.610   1.357   4.720 -0.1034  0.1368  0.6291
13336SOL    HW141449   2.659   1.362   4.802 -1.6665 -0.4463  1.6568
13336SOL    HW241450   2.588   1.264   4.710 -0.1309  0.2309 -0.3420
13337SOL     OW41451   3.673   2.782   9.024  0.3318  0.1859 -0.1391
13337SOL    HW141452   3.703   2.836   8.950 -4.2043  0.0976 -2.4701
13337SOL    HW241453   3.652   2.845   9.092 -1.2293  1.0799 -1.3703
13338SOL     OW41454   0.029   4.895   6.377  0.4574 -0.5074 -0.2200
13338SOL    HW141455   0.059   4.813   6.416 -0.1992 -0.2943  0.7678
13338SOL    HW241456   0.068   4.964   6.431  2.7060 -0.0578 -2.2693
13339SOL     OW41457   0.548   1.479   6.192 -0.2619 -0.4124 -0.3435
13339SOL    HW141458   0.473   1.480   6.252 -0.9188  0.3568 -1.1475
13339SOL    HW241459   0.571   1.571   6.181  0.1441 -0.5734 -0.9123
13340SOL     OW41460   1.917   6.251   8.930 -0.0407 -0.1874  0.4261
13340SOL    HW141461   1.912   6.282   9.020 -1.7063  0.3275  0.1947
13340SOL    HW241462   1.994   6.194   8.929  0.6275  0.6272  1.8952
13341SOL     OW41463   4.493   5.014   2.928  0.4071  0.0312  0.2672
13341SOL    HW141464   4.544   5.095   2.934 -0.7192  0.7685  0.2615
13341SOL    HW241465   4.454   5.018   2.840  0.8897 -0.8622  0.0066
13342SOL     OW41466   1.072   4.870   2.071 -0.0289  0.4212 -0.1455
13342SOL    HW141467   0.978   4.875   2.092 -0.2599  0.0332 -1.0305
13342SOL    HW241468   1.096   4.779   2.089 -0.3319 -0.0368 -1.8590
13343SOL     OW41469   3.356   2.611   9.788  0.1460  0.2789 -0.1771
13343SOL    HW141470   3.308   2.531   9.768 -3.5011  1.8218  1.5221
13343SOL    HW241471   3.357   2.616   9.883  1.8885  1.4254 -0.2046
13344SOL     OW41472   6.400   5.740   0.488 -0.4513  0.9395  0.4801
13344SOL    HW141473   6.387   5.767   0.398 -0.1740  2.1041  0.7649
13344SOL    HW241474   6.333   5.673   0.504 -0.4665  0.6895 -0.5862
13345SOL     OW41475   1.236   4.430   9.221 -0.2145  0.1385 -0.6698
13345SOL    HW141476   1.286   4.456   9.143 -1.5523 -1.0663 -1.9903
13345SOL    HW241477   1.144   4.431   9.192 -0.6712 -1.3677  0.5680
13346SOL     OW41478   2.790   1.239   7.512  0.4730  0.5723  0.2471
13346SOL    HW141479   2.877   1.202   7.494 -0.1147 -0.8562  0.2251
13346SOL    HW241480   2.808   1.329   7.538  1.8469  0.7853 -1.2572
13347SOL     OW41481   2.574   6.174   5.452  0.0035 -0.0938 -0.2572
13347SOL    HW141482   2.612   6.240   5.393  0.9370  1.5874  2.0832
13347SOL    HW241483   2.494   6.215   5.485  1.2823  0.5788  2.2590
13348SOL     OW41484   6.211   6.900   3.790  0.0917 -0.0576 -0.0761
13348SOL    HW141485   6.134   6.911   3.735  0.9631 -0.2607 -1.3935
13348SOL    HW241486   6.246   6.814   3.765  0.4280 -0.2351  0.9303
13349SOL     OW41487   4.548   4.841  12.111 -0.1629  0.1113  0.4095
13349SOL    HW141488   4.640   4.864  12.099 -0.1543 -0.4547 -0.7516
13349SOL    HW241489   4.511   4.843  12.023 -1.1547 -0.1057  0.8114
13350SOL     OW41490   0.314   0.753   0.516 -0.5906  0.0479 -0.4307
13350SOL    HW141491   0.280   0.670   0.482 -0.6044  0.9026 -2.6036
13350SOL    HW241492   0.265   0.820   0.470 -2.2340  1.3896  2.9161
13351SOL     OW41493   3.180   2.103   6.299  0.2466  0.0284 -0.0934
13351SOL    HW141494   3.197   2.053   6.220 -2.3454 -0.1959 -0.6134
13351SOL    HW241495   3.156   2.037   6.364 -0.9769  0.4040 -0.1387
13352SOL     OW41496   0.350   0.804   6.512 -0.0066  0.3853  0.6218
13352SOL    HW141497   0.358   0.785   6.418 -0.5883  0.1464  0.6129
13352SOL    HW241498   0.272   0.859   6.518 -1.8287 -2.0760  1.2692
13353SOL     OW41499   1.391   0.992   2.331 -0.4827  0.1826  0.2409
13353SOL    HW141500   1.325   0.971   2.397 -0.7394 -0.6790 -0.2859
13353SOL    HW241501   1.439   0.911   2.318 -0.5204  0.3064 -0.7362
13354SOL     OW41502   0.646   3.786   0.623  0.2420 -0.7834  0.2089
13354SOL    HW141503   0.678   3.832   0.545 -0.0758  0.4403  0.7789
13354SOL    HW241504   0.724   3.743   0.659  0.6471 -0.2734 -0.0489
13355SOL     OW41505   4.695   5.247   0.417  0.0661  0.4408 -0.6281
13355SOL    HW141506   4.789   5.263   0.427  0.2566 -0.6475 -0.5452
13355SOL    HW241507   4.690   5.169   0.363 -0.8583  1.8778 -2.7358
13356SOL     OW41508   2.441   6.634   4.713 -0.4627  0.4299 -0.4417
13356SOL    HW141509   2.518   6.597   4.756 -0.7959  0.2487  0.0104
13356SOL    HW241510   2.472   6.718   4.678 -0.4179  1.0761  1.0545
13357SOL     OW41511   1.730   4.554   7.960 -0.1362  0.2399  0.5202
13357SOL    HW141512   1.673   4.599   7.898 -0.5048  0.2304  0.8508
13357SOL    HW241513   1.679   4.481   7.993 -0.4506  0.9923  1.8185
13358SOL     OW41514   1.190   6.054   3.985  0.4193 -0.0830  0.3258
13358SOL    HW141515   1.231   5.994   3.923  1.0811  0.3284  0.3592
13358SOL    HW241516   1.202   6.012   4.070 -0.9391 -0.9010  0.1550
13359SOL     OW41517   5.772   6.420   6.249  0.4943  0.0623 -0.4507
13359SOL    HW141518   5.803   6.469   6.325 -0.7036  0.7255 -0.3619
13359SOL    HW241519   5.849   6.412   6.193  1.2853 -0.0406  0.6186
13360SOL     OW41520   0.884   5.623   7.403 -0.4254  0.4347  0.0382
13360SOL    HW141521   0.887   5.694   7.467  2.6497 -0.7404  1.4403
13360SOL    HW241522   0.975   5.592   7.398 -0.5605  0.1455 -4.6752
13361SOL     OW41523   7.447   2.555   6.722  0.1188 -0.7334  0.0786
13361SOL    HW141524   7.531   2.525   6.758 -0.0121  0.6740  1.7038
13361SOL    HW241525   7.383   2.494   6.759 -0.0408  0.8232  2.5971
13362SOL     OW41526   7.386   4.457   3.215 -0.1906  0.3676  0.0129
13362SOL    HW141527   7.294   4.475   3.234 -0.0740  3.0454 -1.3647
13362SOL    HW241528   7.434   4.496   3.288 -0.0929 -0.2119  0.2672
13363SOL     OW41529   4.530   7.050  10.671  0.3840  0.0955 -0.1297
13363SOL    HW141530   4.546   7.135  10.630  0.2674  0.0887 -0.1878
13363SOL    HW241531   4.585   6.989  10.622  2.4053  0.5206  1.4589
13364SOL     OW41532   4.943   1.169   9.842  0.4205  0.3577  0.2908
13364SOL    HW141533   4.884   1.223   9.789  1.1529 -0.2160 -1.1829
13364SOL    HW241534   4.941   1.208   9.929 -3.4029 -0.5787  0.8204
13365SOL     OW41535   1.326   0.457   1.082 -0.0791  0.0778  0.0673
13365SOL    HW141536   1.305   0.534   1.029 -0.5016  0.7313  1.1248
13365SOL    HW241537   1.258   0.393   1.060  0.5006 -0.1536 -1.1038
13366SOL     OW41538   6.677   5.946   0.136  0.1367 -0.2726  0.0954
13366SOL    HW141539   6.683   5.922   0.044  1.6411  2.3823 -0.6437
13366SOL    HW241540   6.767   5.939   0.168  0.2001  1.5552  0.4800
13367SOL     OW41541   2.903   2.500   1.392 -0.6532  0.0140  0.3564
13367SOL    HW141542   2.881   2.582   1.436  0.3866  0.4434  0.1072
13367SOL    HW241543   2.834   2.488   1.327 -1.0701  0.4451  0.7171
13368SOL     OW41544   1.969   0.654   1.651  0.5286 -0.1842  0.2104
13368SOL    HW141545   1.942   0.618   1.566 -0.2921  0.4308  0.2071
13368SOL    HW241546   2.062   0.674   1.640  0.1779  0.9208 -0.9131
13369SOL     OW41547   1.884   5.466  11.140  0.2598 -0.1413  0.3893
13369SOL    HW141548   1.928   5.472  11.055  0.9661 -0.0508  0.7624
13369SOL    HW241549   1.838   5.382  11.137 -1.3523  0.7201 -0.8576
13370SOL     OW41550   5.422   4.326   8.598 -0.4517  0.2780 -0.1961
13370SOL    HW141551   5.334   4.288   8.596 -0.2558 -0.2322  0.5007
13370SOL    HW241552   5.479   4.255   8.568  0.0023 -0.2707  1.8226
13371SOL     OW41553   0.395   2.412   9.213  0.3933 -0.1355 -0.1506
13371SOL    HW141554   0.462   2.395   9.279  0.1551 -0.4549  0.0119
13371SOL    HW241555   0.371   2.325   9.180  2.2112  0.1190 -2.3792
13372SOL     OW41556   5.918   5.500   4.902 -0.5675  0.1651 -0.3591
13372SOL    HW141557   5.965   5.418   4.888 -1.0041 -0.7369  2.7098
13372SOL    HW241558   5.832   5.486   4.862 -1.8666 -2.3028  2.8602
13373SOL     OW41559   6.583   3.879   6.091 -0.1213  0.1362 -0.1042
13373SOL    HW141560   6.663   3.841   6.055 -0.8495  0.4910 -2.2370
13373SOL    HW241561   6.611   3.964   6.125  0.6164 -0.2312  0.2295
13374SOL     OW41562   1.629   4.949   3.217  0.4428  0.4997 -0.1963
13374SOL    HW141563   1.714   4.991   3.225  0.7394  0.7942 -3.5478
13374SOL    HW241564   1.648   4.862   3.182 -0.5364 -0.4163  1.4109
13375SOL     OW41565   6.153   6.123   3.359 -0.5944 -0.1943  0.1636
13375SOL    HW141566   6.060   6.144   3.350 -0.7113 -0.3208  1.0035
13375SOL    HW241567   6.156   6.029   3.374 -0.4240 -0.0237  1.2919
13376SOL     OW41568   5.092   5.633   2.438  0.0401  0.1387  0.3586
13376SOL    HW141569   5.041   5.609   2.515 -1.5335  0.9510 -0.3863
13376SOL    HW241570   5.077   5.727   2.427 -0.1462 -0.0454 -1.1915
13377SOL     OW41571   0.735   2.216   5.322 -0.8403  0.1722  0.0915
13377SOL    HW141572   0.711   2.282   5.258  1.3100 -0.3987 -1.3788
13377SOL    HW241573   0.792   2.261   5.384 -0.5288  0.0201 -0.0868
13378SOL     OW41574   7.860   0.951   6.216 -0.3037  0.6052  0.1549
13378SOL    HW141575   7.920   0.877   6.224 -1.4293 -0.3161  0.1824
13378SOL    HW241576   7.845   0.959   6.122  0.6875  1.5412  0.0467
13379SOL     OW41577   7.621   4.613   7.343 -0.4550 -0.3099  0.9098
13379SOL    HW141578   7.672   4.559   7.403 -1.7536 -1.0837  1.3473
13379SOL    HW241579   7.632   4.571   7.258  0.0156 -0.1826  0.9005
13380SOL     OW41580   5.337   3.312   6.636 -0.6516 -0.4753 -0.2308
13380SOL    HW141581   5.350   3.402   6.665 -1.3883 -0.5479  0.3603
13380SOL    HW241582   5.378   3.308   6.549 -0.4065  0.3569 -0.1595
13381SOL     OW41583   6.088   5.887   4.050  0.4065 -0.6924  0.7611
13381SOL    HW141584   6.157   5.855   4.107  0.6030  0.9268  1.4836
13381SOL    HW241585   6.132   5.949   3.991  0.2011 -2.2393 -1.1475
13382SOL     OW41586   7.290   4.128   1.064 -0.0978 -0.3369  0.0175
13382SOL    HW141587   7.303   4.215   1.101  1.0721 -0.2774 -0.4996
13382SOL    HW241588   7.224   4.141   0.996 -1.4486 -0.2510  1.2774
13383SOL     OW41589   7.224   5.039  11.986  0.0048 -0.3953  0.9685
13383SOL    HW141590   7.264   5.055  12.071  1.2149 -0.2793  0.3910
13383SOL    HW241591   7.185   4.951  11.994 -0.1255 -0.2768  1.7129
13384SOL     OW41592   3.051   1.273   3.770  0.1268 -0.0759 -0.1391
13384SOL    HW141593   3.056   1.339   3.701 -0.0139 -0.1306 -0.2027
13384SOL    HW241594   2.971   1.293   3.817 -0.5660 -0.9205 -0.9097
13385SOL     OW41595   7.405   4.474   8.450 -0.1561 -0.3180  0.3131
13385SOL    HW141596   7.397   4.569   8.458  0.3815 -0.3158  0.9235
13385SOL    HW241597   7.319   4.445   8.423 -0.6577  0.2236  1.2848
13386SOL     OW41598   0.955   4.176   1.744 -0.2241 -0.1931  0.4973
13386SOL    HW141599   0.864   4.155   1.762 -0.2358 -0.3504  0.2598
13386SOL    HW241600   1.004   4.128   1.811 -0.3566  0.5217  1.1183
13387SOL     OW41601   0.566   6.187   0.341 -0.2633  0.0350 -0.5152
13387SOL    HW141602   0.618   6.262   0.310 -0.0916  0.1127 -0.0439
13387SOL    HW241603   0.488   6.227   0.378 -0.2112 -0.0230 -0.3426
13388SOL     OW41604   4.402   4.889   2.315 -0.2114  0.2817 -0.2431
13388SOL    HW141605   4.394   4.808   2.364 -2.3676  0.0245 -0.9395
13388SOL    HW241606   4.470   4.938   2.362  0.7070 -1.6210  0.5528
13389SOL     OW41607   0.241   5.796   7.610 -0.2377 -0.0148  0.3909
13389SOL    HW141608   0.158   5.825   7.648 -0.7216 -1.0390  0.1508
13389SOL    HW241609   0.224   5.790   7.516 -0.1444 -0.9807  0.4204
13390SOL     OW41610   3.453   0.463   3.431  0.5134  0.4140  0.2410
13390SOL    HW141611   3.417   0.545   3.397 -0.5291  1.1103  2.7607
13390SOL    HW241612   3.476   0.483   3.522  0.9790 -1.8734  0.6916
13391SOL     OW41613   2.519   5.154   6.238  0.0345 -0.1254  0.2446
13391SOL    HW141614   2.448   5.213   6.262  1.3524  1.6469 -0.0714
13391SOL    HW241615   2.510   5.142   6.144 -0.6840 -1.0964  0.4159
13392SOL     OW41616   1.883   1.764   3.764 -0.3385  0.4522  0.0806
13392SOL    HW141617   1.969   1.776   3.804  0.4107 -0.3431 -1.2223
13392SOL    HW241618   1.855   1.676   3.792 -0.3182  0.3439 -0.2411
13393SOL     OW41619   2.312   1.158   6.695 -0.6672 -0.3127  0.2414
13393SOL    HW141620   2.235   1.135   6.643 -2.1374  2.6232  0.9210
13393SOL    HW241621   2.284   1.149   6.786  0.6817 -1.7136  0.5731
13394SOL     OW41622   5.321   0.860   3.921  0.1651  0.2001  0.5050
13394SOL    HW141623   5.279   0.778   3.895  0.9437 -0.0466  0.0053
13394SOL    HW241624   5.349   0.845   4.011 -1.0109  0.4529  0.9378
13395SOL     OW41625   0.982   1.638   5.851 -0.2738 -0.1195 -0.2063
13395SOL    HW141626   0.887   1.646   5.859 -0.4201 -2.7806  2.4182
13395SOL    HW241627   1.008   1.584   5.925  3.2870  0.1424 -1.0701
13396SOL     OW41628   5.526   3.170   5.354  0.1030 -0.0638  0.1375
13396SOL    HW141629   5.453   3.232   5.356 -1.6711 -2.0596  0.5666
13396SOL    HW241630   5.598   3.219   5.313 -0.9872  2.4536  1.0343
13397SOL     OW41631   1.389   3.408  11.208 -0.5532 -0.1156  0.0614
13397SOL    HW141632   1.457   3.407  11.275 -1.3365 -1.0525  0.8764
13397SOL    HW241633   1.347   3.494  11.218 -0.0965  0.0938  0.1835
13398SOL     OW41634   0.275   1.598   6.810 -0.6982  0.3318 -0.1689
13398SOL    HW141635   0.235   1.536   6.871 -1.5808  2.1610  1.2173
13398SOL    HW241636   0.347   1.637   6.859 -0.5542  0.8575 -0.7818
13399SOL     OW41637   6.627   0.790   4.199  0.2063  0.1722 -0.0507
13399SOL    HW141638   6.548   0.761   4.244 -0.9434  2.5628 -0.3428
13399SOL    HW241639   6.639   0.728   4.127 -1.8094  0.1061 -0.3791
13400SOL     OW41640   7.426   7.181  10.353 -0.7005 -0.7600  0.5245
13400SOL    HW141641   7.419   7.276  10.346 -0.1517 -0.6149  1.7262
13400SOL    HW241642   7.381   7.148  10.276 -1.2190  0.4664  0.2816
13401SOL     OW41643   5.967   3.077  10.087  0.4230 -0.4154  0.0495
13401SOL    HW141644   5.890   3.023  10.103 -0.0979  0.5136  0.8043
13401SOL    HW241645   5.975   3.130  10.166  0.0339  1.6660 -1.2425
13402SOL     OW41646   5.446   0.493   9.634  0.0695  0.5524 -0.5003
13402SOL    HW141647   5.447   0.508   9.540  1.2237 -2.6695 -1.1139
13402SOL    HW241648   5.374   0.432   9.648  0.5382  0.2280  0.5623
13403SOL     OW41649   1.511   7.801   5.021  0.3843 -0.0968 -0.0387
13403SOL    HW141650   1.546   7.717   4.992 -1.1423 -1.8530  2.7074
13403SOL    HW241651   1.416   7.792   5.013  0.2047  1.8648 -0.7619
13404SOL     OW41652   3.335   3.141   4.789 -0.9532 -0.0527  0.7316
13404SOL    HW141653   3.414   3.137   4.844 -1.1858  0.6573  1.1276
13404SOL    HW241654   3.263   3.150   4.852 -1.5065 -2.0272  0.4605
13405SOL     OW41655   6.966   1.452   9.803  0.0541  0.2591  0.5342
13405SOL    HW141656   6.927   1.461   9.716 -1.5887  0.4170  1.2612
13405SOL    HW241657   7.004   1.538   9.821  1.9821 -0.2532 -0.6985
13406SOL     OW41658   3.457   7.865  11.575 -0.2050 -0.3824  0.2616
13406SOL    HW141659   3.477   7.802  11.506  2.3370  0.9127 -0.3088
13406SOL    HW241660   3.390   7.922  11.536  0.5303 -0.2182 -0.8146
13407SOL     OW41661   5.284   2.765   9.061 -0.2638 -0.1190 -0.3757
13407SOL    HW141662   5.326   2.806   9.136 -1.2193 -0.5488  0.4084
13407SOL    HW241663   5.268   2.675   9.089 -1.1790 -0.1157 -0.8754
13408SOL     OW41664   2.254   1.183   9.723  0.2577 -0.2095  0.2607
13408SOL    HW141665   2.172   1.140   9.699 -0.0809  0.3663  0.3821
13408SOL    HW241666   2.317   1.152   9.657  0.1053 -1.1495  0.5410
13409SOL     OW41667   2.362   3.809   8.923  0.9587  0.1341 -0.7519
13409SOL    HW141668   2.399   3.791   8.837  1.9563  2.6948 -0.9503
13409SOL    HW241669   2.437   3.802   8.983  0.6442  0.0708 -0.3637
13410SOL     OW41670   3.920   1.058   2.528  0.3007 -0.6280 -0.1561
13410SOL    HW141671   4.011   1.032   2.514 -0.0488 -1.3171 -1.3048
13410SOL    HW241672   3.925   1.150   2.557  1.3518 -0.6520 -0.2361
13411SOL     OW41673   2.889   7.022   4.371  0.3082 -0.4064  0.3340
13411SOL    HW141674   2.815   7.064   4.416 -0.3548 -2.2016  0.9895
13411SOL    HW241675   2.864   7.023   4.278  0.0288  0.0615  0.4068
13412SOL     OW41676   2.632   0.530  11.348 -0.4826  0.2810  0.0745
13412SOL    HW141677   2.684   0.609  11.361 -1.0895  0.3574  2.5709
13412SOL    HW241678   2.587   0.545  11.265  1.8133  1.1106 -1.1204
13413SOL     OW41679   0.699   4.769   4.935  0.5579  0.0118 -0.2551
13413SOL    HW141680   0.664   4.692   4.890 -0.8108  0.1299  0.5527
13413SOL    HW241681   0.623   4.826   4.948  1.3956  1.1194 -0.0831
13414SOL     OW41682   6.911   4.054   6.571  0.2784  0.1694  0.1703
13414SOL    HW141683   6.969   4.121   6.609  1.5843 -0.8335  0.0341
13414SOL    HW241684   6.950   4.036   6.486 -0.6123 -0.0917 -0.1829
13415SOL     OW41685   7.066   6.475   5.110 -0.4193 -0.6524 -0.0989
13415SOL    HW141686   7.059   6.465   5.015 -1.5993 -3.6051  0.1993
13415SOL    HW241687   7.161   6.473   5.127 -0.0801  1.7683 -1.2675
13416SOL     OW41688   0.935   3.561   6.380 -0.0549  0.7113  0.3020
13416SOL    HW141689   1.028   3.541   6.391 -0.0517  1.1497  1.1620
13416SOL    HW241690   0.890   3.495   6.431 -0.1799  0.9606  0.5159
13417SOL     OW41691   3.860   5.726  11.835  0.2335 -0.0386  0.4446
13417SOL    HW141692   3.810   5.646  11.852 -0.0812  0.2174  0.7269
13417SOL    HW241693   3.826   5.760  11.753 -0.8423  0.7330  1.1808
13418SOL     OW41694   5.761   5.711   3.169  0.1739  0.3514 -0.2966
13418SOL    HW141695   5.839   5.735   3.119 -0.0909 -0.5752 -1.1844
13418SOL    HW241696   5.693   5.699   3.103 -0.2157 -0.7742  0.2809
13419SOL     OW41697   5.932   2.101  12.045 -0.2200  0.1613 -0.5438
13419SOL    HW141698   5.970   2.068  11.963 -0.1922  1.3393 -1.0211
13419SOL    HW241699   5.920   2.195  12.030  0.0504  0.4553  0.9085
13420SOL     OW41700   7.730   2.082   9.608 -0.5046 -0.1797  0.5217
13420SOL    HW141701   7.687   1.997   9.596  0.4516 -0.5151 -0.8023
13420SOL    HW241702   7.699   2.135   9.535  0.0831  0.0902  0.4590
13421SOL     OW41703   2.802   2.114   3.872  0.1236 -0.1733 -0.4550
13421SOL    HW141704   2.835   2.198   3.842 -0.4920  0.7082  1.2041
13421SOL    HW241705   2.719   2.103   3.825 -0.0618  0.4186 -0.2771
13422SOL     OW41706   6.868   0.566   4.693 -0.6721  0.1287  0.8573
13422SOL    HW141707   6.850   0.592   4.783 -1.0796  2.0497  0.2794
13422SOL    HW241708   6.782   0.572   4.649 -0.0952  1.6028 -0.1635
13423SOL     OW41709   1.213   0.741   9.326  0.4020  0.4390  0.0378
13423SOL    HW141710   1.268   0.714   9.252  0.0220  1.0226 -0.4675
13423SOL    HW241711   1.163   0.663   9.348  2.2448 -0.4745  1.2773
13424SOL     OW41712   5.663   1.237   6.714  0.4761 -0.1128 -0.0960
13424SOL    HW141713   5.585   1.291   6.706 -0.4896 -1.5533 -0.9596
13424SOL    HW241714   5.721   1.267   6.644  0.5250  0.6899  0.2878
13425SOL     OW41715   3.585   7.125   4.953 -0.1282  0.1563 -0.5641
13425SOL    HW141716   3.586   7.065   4.878  1.0047 -1.0826  0.4016
13425SOL    HW241717   3.626   7.205   4.921 -2.2282  0.7354 -2.0578
13426SOL     OW41718   4.830   1.708  11.749 -0.1444  0.5581  0.4323
13426SOL    HW141719   4.774   1.633  11.731 -0.1048  0.8013 -0.7893
13426SOL    HW241720   4.907   1.671  11.793 -0.7494  0.0863  1.1119
13427SOL     OW41721   2.466   4.591   1.613  0.2489 -0.4293  0.3592
13427SOL    HW141722   2.515   4.642   1.549 -0.0864  1.3712  1.4787
13427SOL    HW241723   2.532   4.562   1.676  0.6957 -2.7815 -1.0467
13428SOL     OW41724   3.525   1.251   4.619 -0.9186 -0.0471  0.3954
13428SOL    HW141725   3.455   1.302   4.578 -1.0490  1.2305  2.1045
13428SOL    HW241726   3.564   1.311   4.683  0.1987 -1.4963  1.1283
13429SOL     OW41727   1.215   5.352   0.577 -0.0519 -0.2437  0.6287
13429SOL    HW141728   1.168   5.435   0.582 -0.9216 -0.7868  3.3256
13429SOL    HW241729   1.286   5.361   0.641  1.9850 -0.4163 -1.4787
13430SOL     OW41730   5.999   2.051   9.077 -0.5611  0.3369  0.1932
13430SOL    HW141731   5.983   2.130   9.026  0.3008  1.6867  1.8895
13430SOL    HW241732   6.084   2.020   9.046 -0.4452  0.6513  0.1890
13431SOL     OW41733   4.586   3.212  11.069  0.0607  0.0700  0.2578
13431SOL    HW141734   4.636   3.160  11.133 -2.2004  0.2730  2.3517
13431SOL    HW241735   4.599   3.166  10.986  3.0296 -0.2884  0.7842
13432SOL     OW41736   2.597   3.376  10.206 -0.2076  0.8184 -0.5869
13432SOL    HW141737   2.518   3.339  10.246  1.1407 -0.4329  1.0632
13432SOL    HW241738   2.565   3.452  10.157 -2.3134  0.9590  0.8304
13433SOL     OW41739   3.620   2.472   8.227  0.5931  0.2842 -0.0643
13433SOL    HW141740   3.530   2.457   8.198  0.6258  1.2376 -0.6864
13433SOL    HW241741   3.612   2.537   8.297  0.7789  0.1501  0.0827
13434SOL     OW41742   6.257   5.309   8.856 -0.3008  0.3346  0.8246
13434SOL    HW141743   6.273   5.249   8.784 -0.5565  3.2322 -1.8723
13434SOL    HW241744   6.344   5.344   8.878 -0.3612  0.3086  1.1064
13435SOL     OW41745   0.875   4.703   1.060  0.3209  0.5408  0.0961
13435SOL    HW141746   0.795   4.658   1.030  0.7620  1.2717 -2.4311
13435SOL    HW241747   0.864   4.710   1.155 -2.3573  0.0947 -0.0846
13436SOL     OW41748   1.943   7.202   4.229 -0.3269 -0.2464 -0.3126
13436SOL    HW141749   1.991   7.119   4.237  1.3888  0.5965 -1.1983
13436SOL    HW241750   2.012   7.268   4.216 -1.7126  1.1525 -0.8248
13437SOL     OW41751   0.013   0.403   8.873 -0.4327 -0.3599 -0.1699
13437SOL    HW141752   0.084   0.338   8.868  0.5941  0.5810  1.4098
13437SOL    HW241753  -0.053   0.362   8.928 -0.3181 -0.5153 -0.1467
13438SOL     OW41754   4.982   0.885   1.165 -0.3503 -0.1415 -0.1657
13438SOL    HW141755   4.992   0.891   1.070 -1.7432  1.7573 -0.2568
13438SOL    HW241756   4.935   0.803   1.180 -1.5868  0.3273 -1.2865
13439SOL     OW41757   4.944   1.177   2.676  0.0889  0.2496 -0.3856
13439SOL    HW141758   5.040   1.186   2.671  0.3261 -0.7159  1.4246
13439SOL    HW241759   4.927   1.086   2.654 -0.6510  0.8218 -2.4611
13440SOL     OW41760   7.289   4.409  10.822 -0.3016 -0.2078  0.3899
13440SOL    HW141761   7.280   4.341  10.890  1.1671 -0.8724 -0.0449
13440SOL    HW241762   7.356   4.375  10.763 -1.2976  0.5139 -1.2367
13441SOL     OW41763   2.885   4.597  11.684 -0.0098  0.1335 -0.5078
13441SOL    HW141764   2.980   4.600  11.673  0.2191 -0.7138  0.9005
13441SOL    HW241765   2.850   4.594  11.595  1.2955  0.0295 -1.0415
13442SOL     OW41766   3.761   0.098   6.571  0.2359 -0.9186 -0.2032
13442SOL    HW141767   3.722   0.021   6.530  0.4523  0.0778 -2.4493
13442SOL    HW241768   3.706   0.171   6.542  1.3074  0.0109  0.0112
13443SOL     OW41769   1.776   7.928   4.505 -0.0413  0.0064  0.0123
13443SOL    HW141770   1.731   7.995   4.556 -0.4431  0.0724 -0.4232
13443SOL    HW241771   1.868   7.954   4.506  0.1427 -0.6106  1.6669
13444SOL     OW41772   7.255   7.422   4.711 -0.7295 -0.4240  0.4717
13444SOL    HW141773   7.212   7.371   4.641 -0.4902 -1.4554  1.0531
13444SOL    HW241774   7.264   7.510   4.674 -0.9825 -0.8414 -0.6436
13445SOL     OW41775   2.858   6.669   8.914 -0.0534  0.6241 -0.1321
13445SOL    HW141776   2.863   6.622   8.831 -0.2895 -0.2508  0.3409
13445SOL    HW241777   2.947   6.702   8.928  0.9686 -2.3325  1.0314
13446SOL     OW41778   3.415   6.707   9.878  0.3803  0.0638  0.0214
13446SOL    HW141779   3.497   6.750   9.854  0.0261  2.3811  2.4416
13446SOL    HW241780   3.348   6.774   9.863 -1.1696 -1.8522 -2.1301
13447SOL     OW41781   6.594   5.606   3.397  0.1124 -0.1843 -0.1837
13447SOL    HW141782   6.661   5.674   3.389 -0.9715  0.9504 -0.0686
13447SOL    HW241783   6.632   5.542   3.456  1.7248 -0.4122 -1.4032
13448SOL     OW41784   6.742   4.251   5.585  0.3398  0.3716 -0.1333
13448SOL    HW141785   6.721   4.301   5.506 -0.4194  0.8855  0.3806
13448SOL    HW241786   6.710   4.305   5.657  1.4315  0.1142  0.5603
13449SOL     OW41787   3.487   5.250   7.982 -0.4714 -0.7998 -0.2686
13449SOL    HW141788   3.492   5.253   7.887 -3.0432  0.6604 -0.4489
13449SOL    HW241789   3.577   5.234   8.011  1.6568  4.4354 -2.7625
13450SOL     OW41790   3.587   6.526   0.419  0.6331  0.1298  0.1719
13450SOL    HW141791   3.571   6.548   0.328  1.2266  0.5176  0.1554
13450SOL    HW241792   3.505   6.488   0.450  0.0427  1.0868 -0.1906
13451SOL     OW41793   1.911   2.121   8.979 -0.4991  0.6151  0.0598
13451SOL    HW141794   1.859   2.056   9.026 -0.5957  1.3044  0.9425
13451SOL    HW241795   1.846   2.178   8.937 -0.4719  1.4372  1.1074
13452SOL     OW41796   4.670   5.368   9.574 -0.5516 -0.3515 -0.8102
13452SOL    HW141797   4.685   5.344   9.483 -1.6396 -1.7882 -0.6593
13452SOL    HW241798   4.641   5.286   9.616 -0.0431  0.2623  0.8309
13453SOL     OW41799   1.871   6.828   0.260  0.0519  0.3858  0.4817
13453SOL    HW141800   1.804   6.894   0.279  1.0117  1.6097 -0.1989
13453SOL    HW241801   1.919   6.864   0.186  1.5688 -0.3726  1.0504
13454SOL     OW41802   1.704   3.672  10.340  0.1714  0.4604 -0.2377
13454SOL    HW141803   1.768   3.614  10.381 -1.9533 -2.7194 -1.0460
13454SOL    HW241804   1.707   3.650  10.247 -0.9803  1.4048 -0.5276
13455SOL     OW41805   5.537   5.732   6.835 -0.1731  0.3644  0.0594
13455SOL    HW141806   5.549   5.827   6.846  0.1715  0.1688  1.5380
13455SOL    HW241807   5.460   5.724   6.780 -0.6570  1.5012  0.5343
13456SOL     OW41808   3.237   0.212   4.674 -0.1007 -0.2582 -0.3504
13456SOL    HW141809   3.210   0.130   4.632 -0.0786 -0.6269  0.3357
13456SOL    HW241810   3.331   0.202   4.688 -0.0668 -0.0438 -0.4331
13457SOL     OW41811   4.557   3.707   4.909 -0.4442 -0.3099  0.5077
13457SOL    HW141812   4.600   3.624   4.928  0.8091  0.2382  0.1440
13457SOL    HW241813   4.626   3.773   4.919 -0.5032  0.3557 -2.5413
13458SOL     OW41814   4.364   7.631  10.522  0.0403 -0.0302 -0.2721
13458SOL    HW141815   4.352   7.676  10.439 -0.1951  0.5302  0.0631
13458SOL    HW241816   4.320   7.686  10.586 -0.6103 -0.9418  0.0907
13459SOL     OW41817   3.342   3.130   2.005  0.3315 -0.1508 -0.1631
13459SOL    HW141818   3.386   3.125   2.090  2.4423 -1.5589 -1.2498
13459SOL    HW241819   3.273   3.064   2.011  0.0596  0.1892  0.6556
13460SOL     OW41820   5.365   5.397   6.326 -0.2344  0.5612 -0.4987
13460SOL    HW141821   5.325   5.470   6.373  0.6630  1.1593 -0.6329
13460SOL    HW241822   5.459   5.415   6.328  0.0614 -0.8975 -0.0450
13461SOL     OW41823   7.307   1.067   9.716  0.4480  0.4191  0.3088
13461SOL    HW141824   7.370   1.129   9.752  1.3303  0.2282 -0.8417
13461SOL    HW241825   7.222   1.100   9.743  0.9957  1.1196  1.2334
13462SOL     OW41826   7.936   1.750   9.058 -0.0450  0.2594  0.0670
13462SOL    HW141827   8.024   1.717   9.077  0.4489  0.9325 -0.9586
13462SOL    HW241828   7.880   1.673   9.066  0.4717  0.0148  1.7004
13463SOL     OW41829   6.528   0.376   9.406  0.0238  0.1175  0.6539
13463SOL    HW141830   6.577   0.459   9.403  0.1861  0.0086  0.1510
13463SOL    HW241831   6.589   0.314   9.445 -0.1699  0.2776  1.2230
13464SOL     OW41832   6.122   4.843  10.371  0.3445  0.4226 -0.0446
13464SOL    HW141833   6.175   4.812  10.298  0.5497 -0.2585  0.3822
13464SOL    HW241834   6.182   4.845  10.445 -0.2623 -0.5754  0.4965
13465SOL     OW41835   4.879   0.599   8.150  0.1812 -0.0262 -0.4307
13465SOL    HW141836   4.939   0.526   8.165 -1.0860 -0.9499  0.3818
13465SOL    HW241837   4.885   0.617   8.057  1.2896 -0.4774 -0.4551
13466SOL     OW41838   0.145   5.618   7.266 -0.1629  0.8364 -0.4482
13466SOL    HW141839   0.237   5.594   7.258 -0.3792 -0.2397  0.0881
13466SOL    HW241840   0.098   5.550   7.217 -0.6956  1.1685 -0.4075
13467SOL     OW41841   3.807   5.484   6.273  0.0709 -0.1714  0.1501
13467SOL    HW141842   3.890   5.441   6.251 -0.5474 -0.7731 -1.1126
13467SOL    HW241843   3.745   5.412   6.283 -0.3137  0.2777  1.0845
13468SOL     OW41844   2.731   6.195   7.038  0.3120 -0.1247  0.3071
13468SOL    HW141845   2.705   6.227   7.124  1.9711  0.2611  0.6843
13468SOL    HW241846   2.649   6.162   7.000 -0.9146  1.9283  1.0195
13469SOL     OW41847   7.258   2.909   1.644 -0.1399 -0.3848 -0.1950
13469SOL    HW141848   7.353   2.915   1.634 -0.1464 -1.4303 -1.0247
13469SOL    HW241849   7.237   2.976   1.709  1.0617  0.3889 -0.5655
13470SOL     OW41850   0.532   2.522   1.005 -0.0667 -0.3149 -0.1573
13470SOL    HW141851   0.481   2.584   1.058  0.3365 -0.6157  0.5956
13470SOL    HW241852   0.515   2.549   0.914 -1.5737 -0.4065  0.0694
13471SOL     OW41853   0.744   6.664   6.192  0.6900 -0.1064  0.7245
13471SOL    HW141854   0.699   6.744   6.222 -1.2215 -1.4226  1.6149
13471SOL    HW241855   0.741   6.669   6.097  0.3636  0.7640  0.7684
13472SOL     OW41856   6.938   5.950   9.595 -0.5784  0.3347 -0.1260
13472SOL    HW141857   6.903   5.947   9.506 -1.6416  3.9209  0.0223
13472SOL    HW241858   7.023   5.994   9.586 -1.9327  3.4038  0.7684
13473SOL     OW41859   5.385   1.553   8.740  0.0736 -0.0897 -0.8802
13473SOL    HW141860   5.421   1.540   8.652  2.0811 -1.2374  0.0404
13473SOL    HW241861   5.393   1.468   8.782 -0.9550  0.4108  0.4006
13474SOL     OW41862   5.540   5.559  10.585 -0.2183 -0.5309  0.0507
13474SOL    HW141863   5.512   5.550  10.676 -0.4828 -0.5231 -0.0295
13474SOL    HW241864   5.525   5.472  10.547  0.8216 -0.8267  0.2653
13475SOL     OW41865   3.524   2.914   7.198  0.4885 -0.0651 -0.1579
13475SOL    HW141866   3.533   2.895   7.292  2.1356  2.2995  0.2596
13475SOL    HW241867   3.613   2.934   7.169 -0.2163  0.8216 -1.8413
13476SOL     OW41868   2.017   6.182  12.177  0.2152 -0.2176 -0.2940
13476SOL    HW141869   2.096   6.174  12.124  0.4695 -0.5163  0.1200
13476SOL    HW241870   1.990   6.091  12.192  0.5793 -0.1636  0.7279
13477SOL     OW41871   2.420   0.389   0.248  0.1548 -0.0856  0.5923
13477SOL    HW141872   2.386   0.306   0.283  2.1566 -0.5871  1.4962
13477SOL    HW241873   2.475   0.363   0.174  0.3750  0.5003  0.5462
13478SOL     OW41874   5.424   1.147  10.301  0.3145 -0.0847  0.2543
13478SOL    HW141875   5.452   1.086  10.369  2.0033  0.7223  0.3530
13478SOL    HW241876   5.342   1.111  10.268  1.8164 -3.0764 -0.5520
13479SOL     OW41877   3.142   3.017   3.503  0.1885 -0.5100 -0.1211
13479SOL    HW141878   3.183   3.085   3.449 -0.3646 -1.1728 -1.4163
13479SOL    HW241879   3.075   3.063   3.554  1.6334  0.3651  1.0750
13480SOL     OW41880   0.278   0.831  10.402  0.1643 -0.5452  0.7235
13480SOL    HW141881   0.223   0.859  10.475  0.2921  0.4051  0.4614
13480SOL    HW241882   0.258   0.738  10.392  0.0026 -0.6468  1.8368
13481SOL     OW41883   4.999   3.995   3.834 -0.3497  0.1044  0.0361
13481SOL    HW141884   5.074   4.037   3.875 -0.2952 -0.2334  0.2910
13481SOL    HW241885   4.997   4.030   3.745  0.1093  0.1209  0.0289
13482SOL     OW41886   0.103   0.049  10.264 -0.2670  0.2119  0.0761
13482SOL    HW141887   0.041   0.064  10.335  0.9007  0.0391  1.1527
13482SOL    HW241888   0.189   0.049  10.306  0.5683  1.3881 -1.5019
13483SOL     OW41889   1.868   4.648   6.754 -0.2051 -0.6177  0.0403
13483SOL    HW141890   1.912   4.698   6.685 -0.2262  1.5808  1.5096
13483SOL    HW241891   1.775   4.651   6.729 -0.5886  2.4606  1.3406
13484SOL     OW41892   4.763   3.086   4.775 -1.4569  0.3715 -0.0279
13484SOL    HW141893   4.745   3.075   4.681 -1.2422  1.8383 -0.2668
13484SOL    HW241894   4.809   3.170   4.781  0.4696 -0.7080  1.1652
13485SOL     OW41895   6.651   0.362   6.163 -0.3078 -0.4231 -0.0660
13485SOL    HW141896   6.708   0.432   6.130 -1.6550  1.8532  2.1121
13485SOL    HW241897   6.644   0.300   6.090  1.8489  1.1316 -1.7081
13486SOL     OW41898   7.977   7.780   5.889  0.2511 -0.1808 -0.1740
13486SOL    HW141899   7.945   7.699   5.929  0.5761 -1.8419 -3.0225
13486SOL    HW241900   8.044   7.812   5.950 -1.2560 -0.8914  2.0062
13487SOL     OW41901   1.095   0.606   3.901 -0.4947  0.0374  0.0414
13487SOL    HW141902   1.168   0.612   3.963 -0.5933 -0.2231  0.1833
13487SOL    HW241903   1.125   0.544   3.834 -0.5011  0.0938 -0.0133
13488SOL     OW41904   5.230   7.031   0.144 -0.2713  0.6169 -0.3033
13488SOL    HW141905   5.282   7.013   0.066  0.5223 -0.2578  0.4178
13488SOL    HW241906   5.145   6.990   0.126 -0.1281  0.5095 -0.7455
13489SOL     OW41907   3.723   6.730  10.810  0.5234 -0.3552  0.4039
13489SOL    HW141908   3.817   6.745  10.797  0.8376 -2.1411  0.3211
13489SOL    HW241909   3.680   6.795  10.756  1.7468 -0.8230 -1.1920
13490SOL     OW41910   2.553   2.417   5.030 -0.0299  1.1029  0.6937
13490SOL    HW141911   2.505   2.469   4.965 -0.4134  1.1298  0.9948
13490SOL    HW241912   2.627   2.380   4.982 -0.5653  0.7496  0.1294
13491SOL     OW41913   7.802   4.567  12.292  0.1734 -0.1573  0.5767
13491SOL    HW141914   7.835   4.649  12.328 -0.1754  0.3003 -0.1100
13491SOL    HW241915   7.845   4.558  12.208  1.4956 -1.5629  1.3556
13492SOL     OW41916   5.660   3.660  10.314 -0.5445  0.0467 -0.1257
13492SOL    HW141917   5.702   3.576  10.334  0.9966  0.5771 -0.9400
13492SOL    HW241918   5.566   3.641  10.314 -0.2203 -1.6825 -0.3385
13493SOL     OW41919   3.237   3.471  10.204 -0.1525  0.3580 -0.3438
13493SOL    HW141920   3.249   3.532  10.131  0.2693 -0.7788 -1.2559
13493SOL    HW241921   3.299   3.501  10.271 -0.3762  1.2706 -0.5272
13494SOL     OW41922   0.766   7.258   0.876  0.2047 -0.2184 -0.5814
13494SOL    HW141923   0.827   7.188   0.898 -0.9331 -1.3780 -1.0323
13494SOL    HW241924   0.725   7.230   0.795 -1.3782  0.2150  0.0271
13495SOL     OW41925   6.563   5.405   0.719 -0.0294 -0.4554 -0.3775
13495SOL    HW141926   6.555   5.501   0.718 -1.5365 -0.4355  2.5248
13495SOL    HW241927   6.502   5.376   0.651 -0.4645  0.6374 -0.4897
13496SOL     OW41928   5.172   0.202   7.859  0.2218 -0.0679 -0.0626
13496SOL    HW141929   5.210   0.281   7.897 -0.3981 -1.0393  2.8496
13496SOL    HW241930   5.095   0.233   7.811  0.2167  1.1527  0.6956
13497SOL     OW41931   2.038   4.715   0.493  0.9751  0.2275  0.5427
13497SOL    HW141932   2.058   4.736   0.585  1.1504  1.2635  0.2873
13497SOL    HW241933   2.073   4.627   0.480  0.8113  0.0095  1.5110
13498SOL     OW41934   4.435   7.252   1.890 -0.1560  0.2573 -0.0654
13498SOL    HW141935   4.394   7.196   1.824 -1.1190  1.5072 -0.5672
13498SOL    HW241936   4.527   7.259   1.862 -0.6718  1.2566 -1.6554
13499SOL     OW41937   1.778   3.614   3.813 -0.3998 -0.5090 -0.2960
13499SOL    HW141938   1.811   3.581   3.730  1.8344 -0.3814  0.4758
13499SOL    HW241939   1.718   3.546   3.844 -0.8336 -0.8056 -1.7282
13500SOL     OW41940   5.774   7.785   7.722 -0.2307  0.0182  0.2059
13500SOL    HW141941   5.814   7.768   7.807 -1.4793  1.5782  1.1705
13500SOL    HW241942   5.847   7.816   7.667  0.6353 -1.2729  0.5780
13501SOL     OW41943   0.496   5.808   8.030 -0.5554  1.2674 -0.5208
13501SOL    HW141944   0.402   5.826   8.033 -0.4207  1.8387  0.8828
13501SOL    HW241945   0.502   5.713   8.040 -0.9087  1.5030  4.4851
13502SOL     OW41946   3.470   7.300  10.878 -0.4129  0.7421 -0.2625
13502SOL    HW141947   3.557   7.315  10.915 -0.8413  2.0523  0.2860
13502SOL    HW241948   3.434   7.388  10.865 -0.2752  0.3884 -3.9459
13503SOL     OW41949   1.917   6.539  10.296 -0.0309  0.0077  0.2603
13503SOL    HW141950   1.916   6.443  10.304 -0.4390  0.0724  1.1108
13503SOL    HW241951   1.850   6.557  10.230  1.2176 -0.3773 -1.1502
13504SOL     OW41952   0.796   0.580   8.148 -0.3148  1.1283 -0.0358
13504SOL    HW141953   0.794   0.631   8.229 -2.1852  1.1511 -0.0489
13504SOL    HW241954   0.704   0.576   8.120  0.0671 -0.3983 -1.2013
13505SOL     OW41955   2.649   3.259   0.965 -0.4056 -0.0480  0.3232
13505SOL    HW141956   2.744   3.264   0.979 -0.3020  0.0723 -0.3595
13505SOL    HW241957   2.614   3.337   1.008 -0.2824 -0.4903  1.2360
13506SOL     OW41958   1.259   4.539   6.618 -0.5619 -0.4815 -0.0031
13506SOL    HW141959   1.280   4.585   6.700 -3.6911  0.2543  0.5113
13506SOL    HW241960   1.289   4.597   6.549  2.6919 -1.3775  0.4775
13507SOL     OW41961   6.085   0.134   6.228 -0.2493  0.7302  0.3472
13507SOL    HW141962   6.031   0.132   6.149 -0.7769 -3.5417  0.5734
13507SOL    HW241963   6.039   0.079   6.291  3.7393 -2.5977  0.8299
13508SOL     OW41964   4.712   1.901   4.794  0.1577 -0.3900 -0.2919
13508SOL    HW141965   4.805   1.917   4.776 -0.2333  0.1007 -1.9976
13508SOL    HW241966   4.682   1.849   4.720 -1.2677  0.6618 -0.4832
13509SOL     OW41967   5.355   6.239  11.660 -0.5011  0.8146 -0.2391
13509SOL    HW141968   5.432   6.250  11.605 -1.4647  1.0599 -1.5978
13509SOL    HW241969   5.375   6.163  11.716  0.1821  0.0084 -1.5415
13510SOL     OW41970   5.551   4.043   5.889  0.2818  0.1495  0.0044
13510SOL    HW141971   5.615   4.013   5.953  0.6556  1.2252  0.1597
13510SOL    HW241972   5.603   4.089   5.823 -0.0431 -1.2462 -1.3039
13511SOL     OW41973   1.394   4.599   9.371  0.4127 -0.1006  0.4255
13511SOL    HW141974   1.382   4.602   9.466 -0.6336  0.0699  0.2977
13511SOL    HW241975   1.336   4.530   9.341  0.8706 -0.2726 -0.0837
13512SOL     OW41976   5.519   2.445   1.443 -0.2662 -0.7053  0.4428
13512SOL    HW141977   5.614   2.453   1.436 -0.0731 -2.2883  0.7841
13512SOL    HW241978   5.493   2.392   1.367 -0.8983 -0.1264  0.2465
13513SOL     OW41979   2.935   0.351   9.738 -0.0081 -0.0207  0.0109
13513SOL    HW141980   2.909   0.309   9.656  0.4390  0.0598 -0.1736
13513SOL    HW241981   2.859   0.340   9.795 -0.1548 -0.4717 -0.2629
13514SOL     OW41982   2.643   4.251   6.265 -0.6846 -0.2607  0.1044
13514SOL    HW141983   2.681   4.338   6.258  0.3852 -0.7429 -0.2867
13514SOL    HW241984   2.695   4.207   6.332 -1.5880 -0.4306  0.7235
13515SOL     OW41985   7.797   6.853   9.528  0.0113 -0.0843  0.3572
13515SOL    HW141986   7.824   6.905   9.453 -0.4654 -0.5782 -0.1662
13515SOL    HW241987   7.706   6.830   9.510  0.0505 -0.6438  0.8276
13516SOL     OW41988   0.261   4.003  12.462  0.0041  0.5302 -0.0102
13516SOL    HW141989   0.257   4.079  12.404  0.8146 -0.0314 -0.8290
13516SOL    HW241990   0.170   3.976  12.473 -0.1306 -2.1899 -4.9498
13517SOL     OW41991   7.731   3.711   5.388  0.2145  0.2320  0.0424
13517SOL    HW141992   7.673   3.634   5.390 -1.3020  1.1850 -2.3465
13517SOL    HW241993   7.741   3.730   5.295 -0.0650  3.3416  0.5555
13518SOL     OW41994   6.604   1.683   2.743 -0.0263 -0.0703  0.2285
13518SOL    HW141995   6.625   1.592   2.718 -1.5319 -0.0458 -1.3328
13518SOL    HW241996   6.558   1.674   2.827 -1.8795 -1.0127 -0.8027
13519SOL     OW41997   5.449   1.679   9.529  0.4248  0.2136  0.0750
13519SOL    HW141998   5.475   1.747   9.590  2.2673 -0.2596 -0.1334
13519SOL    HW241999   5.486   1.706   9.445  0.0110 -0.3651 -0.3045
13520SOL     OW42000   0.712   2.439   1.816 -0.7876  0.1920 -0.1652
13520SOL    HW142001   0.739   2.347   1.825 -1.5774  0.1191  2.1620
13520SOL    HW242002   0.644   2.437   1.748  0.2414 -0.6780 -1.2041
13521SOL     OW42003   5.761   1.883   0.840 -0.3990 -0.2541  0.2342
13521SOL    HW142004   5.793   1.936   0.767 -0.6164  0.4521  0.6426
13521SOL    HW242005   5.830   1.887   0.905  0.2754 -1.7735 -0.3335
13522SOL     OW42006   3.957   5.707   5.826  0.3942 -0.0482 -0.3295
13522SOL    HW142007   3.868   5.691   5.858 -0.9713  1.0736 -3.2002
13522SOL    HW242008   4.002   5.623   5.836 -0.7351 -0.4669  1.7990
13523SOL     OW42009   6.399   5.629   7.177 -0.0246  0.2623  0.2693
13523SOL    HW142010   6.344   5.643   7.253  0.8405  0.4530  0.8782
13523SOL    HW242011   6.459   5.704   7.177 -0.1239  0.3591 -0.6985
13524SOL     OW42012   5.645   4.573   9.061 -0.5046 -0.1643 -0.1257
13524SOL    HW142013   5.572   4.632   9.040 -1.1811 -0.6982  0.6797
13524SOL    HW242014   5.721   4.614   9.020 -1.0196  1.1020  0.1450
13525SOL     OW42015   6.102   4.354   2.234 -0.0112 -0.6135  0.0711
13525SOL    HW142016   6.073   4.417   2.300  0.5860 -1.1037  0.8200
13525SOL    HW242017   6.093   4.401   2.151 -1.1542 -0.1288  0.4528
13526SOL     OW42018   7.389   3.376   0.994  0.0276  0.2064  0.5687
13526SOL    HW142019   7.475   3.338   1.011 -0.4736 -1.6982 -0.7935
13526SOL    HW242020   7.394   3.410   0.905 -1.0445 -1.3534 -0.1318
13527SOL     OW42021   4.243   1.416   2.055  0.5580 -0.2209  0.2178
13527SOL    HW142022   4.268   1.490   2.000 -2.5566 -0.4011 -1.7169
13527SOL    HW242023   4.317   1.356   2.050  1.3865  0.8664 -1.8202
13528SOL     OW42024   6.492   5.738  11.610 -0.2228 -0.1022  0.8131
13528SOL    HW142025   6.476   5.780  11.694  0.5788 -2.0141  1.9984
13528SOL    HW242026   6.405   5.717  11.576 -0.5566  0.8112  1.0833
13529SOL     OW42027   3.878   2.327   9.036 -0.0317 -0.0916 -0.0460
13529SOL    HW142028   3.919   2.322   9.122  1.8414  0.3943 -0.8442
13529SOL    HW242029   3.884   2.420   9.013 -1.3500 -0.0634 -0.3375
13530SOL     OW42030   2.601   0.385   3.187  0.7125  0.5377  0.1114
13530SOL    HW142031   2.696   0.400   3.183  0.8477 -0.3558 -0.4186
13530SOL    HW242032   2.592   0.308   3.244  0.4319 -0.2803 -0.9931
13531SOL     OW42033   1.974   2.964   0.190 -0.9092  0.1696  0.1403
13531SOL    HW142034   1.909   3.006   0.247 -0.9535 -0.4141  0.5316
13531SOL    HW242035   1.981   2.875   0.224 -0.2877  0.0728 -0.2305
13532SOL     OW42036   7.397   4.856   9.231 -0.2892  0.0610 -0.8897
13532SOL    HW142037   7.402   4.947   9.203  1.1810  0.1908 -0.2707
13532SOL    HW242038   7.450   4.808   9.168  0.0735 -0.1629 -0.4228
13533SOL     OW42039   5.517   7.453  10.968 -0.3698  0.2034 -0.0066
13533SOL    HW142040   5.519   7.389  10.897  1.2367 -0.0111  0.1992
13533SOL    HW242041   5.541   7.403  11.046  1.8544  1.1771  0.0081
13534SOL     OW42042   2.352   5.977   1.394 -0.2290 -0.6016 -0.0478
13534SOL    HW142043   2.300   6.010   1.467 -1.5308 -1.6923 -0.4445
13534SOL    HW242044   2.422   6.041   1.383 -2.0693  1.4917 -0.1560
13535SOL     OW42045   1.099   1.972   4.993 -0.1178 -0.4494 -0.3576
13535SOL    HW142046   1.141   2.025   5.061  0.2588 -0.3502 -0.6603
13535SOL    HW242047   1.053   2.036   4.938 -0.1059 -0.4897 -0.4140
13536SOL     OW42048   6.571   6.106  12.253 -0.1079 -0.1286 -0.1300
13536SOL    HW142049   6.603   6.022  12.286  0.1756  0.7246  1.9415
13536SOL    HW242050   6.495   6.126  12.308  0.7808  1.7014  0.5252
13537SOL     OW42051   0.048   1.542   0.523 -0.5510 -0.1978 -0.1550
13537SOL    HW142052  -0.010   1.615   0.545  1.4649  1.6546 -0.6288
13537SOL    HW242053   0.102   1.530   0.601 -1.0498 -1.4324  0.0284
13538SOL     OW42054   6.018   7.568   3.593  0.0933 -0.2592  0.7588
13538SOL    HW142055   6.010   7.514   3.672  2.2465 -0.7762  0.6731
13538SOL    HW242056   6.088   7.527   3.542  0.8548  1.8098  0.0195
13539SOL     OW42057   1.838   0.235  10.219 -0.2372  0.1549  0.4779
13539SOL    HW142058   1.895   0.273  10.152 -0.0014 -0.0744  0.5467
13539SOL    HW242059   1.807   0.153  10.181  1.3373 -0.9021  1.3284
13540SOL     OW42060   5.870   7.175   4.928 -0.1610  0.0311  0.2156
13540SOL    HW142061   5.792   7.123   4.906 -1.3611  1.6741  0.4226
13540SOL    HW242062   5.852   7.209   5.015  0.1306  1.5889 -0.3050
13541SOL     OW42063   5.217   6.098   2.796 -0.0358  0.1973 -0.0781
13541SOL    HW142064   5.145   6.044   2.763  0.5841 -1.2427  0.8290
13541SOL    HW242065   5.275   6.037   2.840  1.1769  1.4974  0.2179
13542SOL     OW42066   7.556   3.427   1.963  0.7456 -0.9437  0.0476
13542SOL    HW142067   7.511   3.491   2.019  1.8195 -0.3789  0.2986
13542SOL    HW242068   7.625   3.392   2.019  0.5451 -1.8854 -0.2905
13543SOL     OW42069   3.414   2.389   3.004  0.3309 -0.0032 -0.4896
13543SOL    HW142070   3.374   2.411   3.088 -0.9714 -0.2589 -1.0148
13543SOL    HW242071   3.421   2.293   3.005  0.1313 -0.0228 -0.7405
13544SOL     OW42072   1.857   2.617   5.494 -0.0792 -0.3276  0.1194
13544SOL    HW142073   1.815   2.608   5.580  1.4326 -1.4565  0.7946
13544SOL    HW242074   1.845   2.531   5.453  2.3781 -1.0866  0.7881
13545SOL     OW42075   3.343   6.370   7.971 -0.6426 -0.1342  0.1330
13545SOL    HW142076   3.331   6.309   8.044  1.0998 -0.8035 -0.0836
13545SOL    HW242077   3.283   6.339   7.904  2.0638 -3.4817 -1.0501
13546SOL     OW42078   7.743   5.633   7.289  0.3586 -0.0579 -0.8673
13546SOL    HW142079   7.750   5.647   7.195  0.1895  1.1560 -0.7166
13546SOL    HW242080   7.827   5.595   7.314  0.7437  0.4304 -1.3752
13547SOL     OW42081   5.861   6.701   3.494 -0.0325 -0.3484  0.3935
13547SOL    HW142082   5.898   6.622   3.454  1.0826 -0.8538  2.2735
13547SOL    HW242083   5.927   6.769   3.480  0.4474 -0.5739  1.4638
13548SOL     OW42084   3.563   6.598  12.255 -0.1456 -0.1444  0.0518
13548SOL    HW142085   3.605   6.672  12.300  1.4907 -1.2055  0.3752
13548SOL    HW242086   3.576   6.615  12.162 -0.7601  0.5052  0.0772
13549SOL     OW42087   5.443   3.026   8.893  0.0215  0.5441  0.4380
13549SOL    HW142088   5.349   3.018   8.881  0.0689 -0.9102  0.8648
13549SOL    HW242089   5.455   3.111   8.936 -1.2822 -0.1329  2.2604
13550SOL     OW42090   0.177   6.898   1.507 -0.8413  0.3077  0.2346
13550SOL    HW142091   0.156   6.811   1.473  0.4484 -0.9160  2.3360
13550SOL    HW242092   0.268   6.913   1.482 -0.5953  0.3924  1.1486
13551SOL     OW42093   3.225   2.005   0.441  0.0043 -0.6664 -0.5582
13551SOL    HW142094   3.284   2.079   0.425  0.4706 -0.9632 -0.2546
13551SOL    HW242095   3.177   1.994   0.360  0.8582 -0.8523 -1.0512
13552SOL     OW42096   1.645   5.330   1.700 -0.0204 -0.1565 -0.2715
13552SOL    HW142097   1.673   5.239   1.693  1.0290  0.1258  0.0682
13552SOL    HW242098   1.655   5.352   1.792 -2.6842 -0.4075  0.1718
13553SOL     OW42099   4.129   0.650   8.833 -0.1969  0.3048  0.1785
13553SOL    HW142100   4.049   0.699   8.857 -0.1468  1.2772 -1.4692
13553SOL    HW242101   4.145   0.674   8.742  1.0302 -1.2284 -0.0473
13554SOL     OW42102   3.521   7.308   1.112  0.0948  0.4170  0.1108
13554SOL    HW142103   3.507   7.328   1.205 -1.3919 -1.1642  0.2766
13554SOL    HW242104   3.490   7.386   1.066 -1.9457  0.1137  0.8658
13555SOL     OW42105   3.226   2.044   5.696  0.9205 -0.0802  0.0919
13555SOL    HW142106   3.146   2.097   5.704  0.7757 -0.2414 -0.2959
13555SOL    HW242107   3.200   1.957   5.726  0.9765 -0.1071  0.0625
13556SOL     OW42108   2.817   0.265  12.054  0.2624  0.1225 -1.0452
13556SOL    HW142109   2.727   0.232  12.053  0.2714  0.0977 -1.4138
13556SOL    HW242110   2.865   0.204  11.999  0.2076  0.9277 -2.0331
13557SOL     OW42111   2.936   1.550   5.399  0.1386 -0.2943 -0.2225
13557SOL    HW142112   2.942   1.624   5.338  1.5207 -0.3485 -0.1987
13557SOL    HW242113   2.994   1.574   5.471 -1.2383 -0.3765  0.9403
13558SOL     OW42114   5.239   2.567   6.962 -0.1065 -0.4474  0.6374
13558SOL    HW142115   5.314   2.535   6.911 -0.2892  0.3779 -0.1915
13558SOL    HW242116   5.272   2.573   7.051 -0.1522 -3.1253  0.9161
13559SOL     OW42117   1.790   2.972   9.662  0.6849  0.3802  0.0328
13559SOL    HW142118   1.802   3.058   9.700  1.6555  0.4172 -0.3134
13559SOL    HW242119   1.697   2.952   9.673  0.6414  1.0648  0.9525
13560SOL     OW42120   5.148   1.770   4.179  0.9386 -0.1700 -0.2415
13560SOL    HW142121   5.237   1.792   4.151  1.1955 -0.3126  0.4473
13560SOL    HW242122   5.100   1.853   4.173  1.4533  0.2088  0.6239
13561SOL     OW42123   3.482   7.461   9.053 -0.3966 -0.0545 -0.2821
13561SOL    HW142124   3.524   7.543   9.025  0.1817 -0.0098  0.6818
13561SOL    HW242125   3.453   7.420   8.971 -0.5108  1.0123 -0.7911
13562SOL     OW42126   7.067   2.571   9.434 -0.3826  0.5368  0.5320
13562SOL    HW142127   7.025   2.492   9.399  0.6061  0.6754 -1.1085
13562SOL    HW242128   7.050   2.568   9.528 -0.0388 -1.8388  0.5883
13563SOL     OW42129   7.266   4.437  12.219 -0.1557  0.4883 -0.2031
13563SOL    HW142130   7.227   4.512  12.174 -0.1330 -0.8124 -2.5414
13563SOL    HW242131   7.356   4.433  12.185  0.0719 -0.1817  0.4510
13564SOL     OW42132   5.372   5.222   7.251  0.3091 -0.4830  0.0098
13564SOL    HW142133   5.366   5.262   7.165 -1.1152 -1.1041 -0.2098
13564SOL    HW242134   5.298   5.161   7.255 -0.6438  0.7064  2.2888
13565SOL     OW42135   0.498   7.285   7.715 -0.1130 -0.4986  0.2543
13565SOL    HW142136   0.531   7.289   7.625 -0.9259 -0.7349 -0.0639
13565SOL    HW242137   0.501   7.193   7.738 -0.7413 -0.5573  0.1367
13566SOL     OW42138   6.779   0.074   9.338 -0.0187 -0.1271 -0.3462
13566SOL    HW142139   6.817   0.142   9.394 -0.3437 -0.5604  0.4050
13566SOL    HW242140   6.837   0.072   9.261 -0.7134  1.8871 -1.0113
13567SOL     OW42141   5.959   1.385   0.356 -0.0886  0.6002  0.0054
13567SOL    HW142142   5.917   1.452   0.302 -1.5975 -1.4928 -1.6134
13567SOL    HW242143   6.038   1.361   0.308 -1.0099 -0.6907 -0.9294
13568SOL     OW42144   4.641   3.862   8.189 -0.0531 -0.0554 -0.0927
13568SOL    HW142145   4.733   3.838   8.203  0.4217  1.2395 -0.8534
13568SOL    HW242146   4.639   3.957   8.197 -1.0438  0.0804 -1.5038
13569SOL     OW42147   7.232   4.302  11.544  0.0635  0.0426  0.6121
13569SOL    HW142148   7.151   4.333  11.584  0.0282 -0.2664  0.7841
13569SOL    HW242149   7.240   4.353  11.463 -1.3883 -1.3506 -0.4652
13570SOL     OW42150   7.770   5.172   2.509 -0.6323 -0.1378 -0.5470
13570SOL    HW142151   7.823   5.218   2.574  2.2938  1.5104 -3.7551
13570SOL    HW242152   7.733   5.097   2.556 -0.2568  1.8651  3.3414
13571SOL     OW42153   7.229   6.727   8.009 -0.6520 -0.3014 -0.7697
13571SOL    HW142154   7.321   6.750   8.014 -1.1006  1.4907 -0.1879
13571SOL    HW242155   7.183   6.811   8.000 -2.2207 -1.1538 -1.1496
13572SOL     OW42156   0.923   2.585   2.979  0.1175  0.0513 -0.2317
13572SOL    HW142157   1.008   2.543   2.969  0.0136 -0.3235  0.4067
13572SOL    HW242158   0.932   2.669   2.933  1.3873  0.7767  1.2606
13573SOL     OW42159   7.506   1.206   7.071 -0.6055  0.3143 -0.3609
13573SOL    HW142160   7.557   1.246   7.142 -3.4665  2.0845  0.8632
13573SOL    HW242161   7.530   1.256   6.993  0.4066  0.2768 -0.0931
13574SOL     OW42162   7.087   0.538   8.319 -0.2737 -0.1017  0.5612
13574SOL    HW142163   7.164   0.552   8.264 -0.2519 -1.6724  0.1483
13574SOL    HW242164   7.099   0.597   8.393 -0.2756  2.0279 -1.0556
13575SOL     OW42165   4.936   1.457   1.924 -0.3047  0.3746  0.2802
13575SOL    HW142166   4.978   1.439   2.008  0.2183  1.6413  0.3237
13575SOL    HW242167   4.998   1.428   1.858 -0.9308 -1.0894  0.3084
13576SOL     OW42168   2.455   7.476   8.185  0.3251  0.1275  0.1823
13576SOL    HW142169   2.465   7.480   8.090 -0.7425 -1.0358 -0.0006
13576SOL    HW242170   2.521   7.413   8.213 -0.1942 -0.4776  0.0590
13577SOL     OW42171   4.798   4.673   3.107  0.0847  0.0407 -0.3965
13577SOL    HW142172   4.779   4.668   3.200 -0.8937 -0.7750 -0.6201
13577SOL    HW242173   4.786   4.765   3.084  0.2288  0.2238  0.2608
13578SOL     OW42174   1.927   6.346  11.947  0.3076 -0.4401  0.9548
13578SOL    HW142175   1.944   6.441  11.946 -0.4010 -0.3098  1.0511
13578SOL    HW242176   1.966   6.316  12.029  1.6390 -0.4455  0.3463
13579SOL     OW42177   4.033   5.390   9.045 -0.1589  0.2392  0.0604
13579SOL    HW142178   4.045   5.445   9.122  2.7697  1.0096 -0.8179
13579SOL    HW242179   3.975   5.440   8.987  1.5871  1.9983 -0.2652
13580SOL     OW42180   5.585   3.076   5.677  0.1971 -0.0740  0.3514
13580SOL    HW142181   5.553   3.050   5.590  1.0822 -0.3387  0.0931
13580SOL    HW242182   5.539   3.157   5.696 -0.1263 -0.0952 -0.2947
13581SOL     OW42183   0.537   3.030  10.773  0.4759 -0.1055 -0.2930
13581SOL    HW142184   0.453   3.047  10.814  0.1055 -2.9518  0.3715
13581SOL    HW242185   0.573   3.116  10.754 -2.8834  1.2517 -1.3022
13582SOL     OW42186   5.200   7.580   0.686 -0.2627 -0.1162  1.3073
13582SOL    HW142187   5.106   7.567   0.697 -0.1920 -2.0918  0.0594
13582SOL    HW242188   5.222   7.527   0.610  1.6687  1.2814  0.8300
13583SOL     OW42189   0.085   2.841   4.266  0.1773  0.2546  0.2147
13583SOL    HW142190   0.075   2.933   4.291 -2.6144 -0.1378  0.9523
13583SOL    HW242191   0.134   2.802   4.337  0.6938  1.0169  0.2888
13584SOL     OW42192   7.126   3.869   5.536 -0.0526 -0.2705 -0.0970
13584SOL    HW142193   7.106   3.820   5.615  1.8470 -0.2190  0.4744
13584SOL    HW242194   7.149   3.802   5.471 -1.2887 -0.2948 -0.5438
13585SOL     OW42195   5.150   4.420   2.155  0.3596 -0.0965 -0.2719
13585SOL    HW142196   5.175   4.341   2.107 -1.0188 -0.7213 -0.0144
13585SOL    HW242197   5.128   4.484   2.087 -0.0577 -0.4580 -0.4810
13586SOL     OW42198   7.470   0.127   4.226 -0.1399 -0.0717  0.6884
13586SOL    HW142199   7.449   0.139   4.319  0.8904 -2.5399  1.3082
13586SOL    HW242200   7.470   0.032   4.213  2.1739  0.1045 -1.2307
13587SOL     OW42201   4.500   2.337   0.009 -0.1034  0.7951 -0.5074
13587SOL    HW142202   4.565   2.274   0.037 -0.9532  0.5732  1.0586
13587SOL    HW242203   4.460   2.298  -0.069 -0.7053 -0.6768  0.5081
13588SOL     OW42204   0.851   4.990   2.785  0.0148 -0.7376  0.3701
13588SOL    HW142205   0.837   5.064   2.844 -0.8677 -0.3473 -0.2926
13588SOL    HW242206   0.888   4.921   2.839 -0.2070 -0.1816  1.2378
13589SOL     OW42207   3.478   0.543   6.874  0.1929  0.5312  1.1970
13589SOL    HW142208   3.504   0.589   6.954 -0.0123 -0.5466  1.9009
13589SOL    HW242209   3.517   0.456   6.882 -0.3921  0.1831  0.4417
13590SOL     OW42210   5.010   2.335   0.920 -0.1459 -0.4887 -0.1094
13590SOL    HW142211   4.937   2.285   0.883  0.0070 -0.6583 -0.1870
13590SOL    HW242212   5.060   2.363   0.843 -0.8273  0.7146 -0.1249
13591SOL     OW42213   1.796   4.229   0.544 -0.2130 -0.7007  0.3922
13591SOL    HW142214   1.716   4.276   0.522 -0.1123 -0.1191  1.2285
13591SOL    HW242215   1.768   4.140   0.564 -0.6901 -0.4235  0.9649
13592SOL     OW42216   0.871   0.634   4.507 -0.1120 -0.1419 -0.3204
13592SOL    HW142217   0.783   0.638   4.544  0.0274  2.7977 -0.0759
13592SOL    HW242218   0.927   0.611   4.582 -0.6157 -2.1677 -0.5092
13593SOL     OW42219   4.783   0.814   8.252 -0.1551  0.1516  0.1553
13593SOL    HW142220   4.748   0.851   8.172 -1.7733  1.9067  1.5668
13593SOL    HW242221   4.833   0.738   8.224  1.0801  1.8436 -2.6790
13594SOL     OW42222   6.710   6.258  10.832 -0.1422 -0.3841 -0.3767
13594SOL    HW142223   6.772   6.186  10.846  0.3475 -0.1103 -1.0778
13594SOL    HW242224   6.675   6.242  10.744 -0.5720 -0.1684 -0.2431
13595SOL     OW42225   5.206   3.418   4.650  0.0291 -0.4313  0.1263
13595SOL    HW142226   5.238   3.482   4.713  0.5165 -1.8226  1.3569
13595SOL    HW242227   5.274   3.416   4.582 -0.3530  0.8659 -0.3131
13596SOL     OW42228   4.906   2.812   3.043  0.1993 -0.2263 -0.0255
13596SOL    HW142229   4.956   2.881   3.086  1.1901 -0.6919 -0.4070
13596SOL    HW242230   4.971   2.746   3.019 -0.5058 -0.5654 -1.0814
13597SOL     OW42231   6.351   3.569   9.213 -0.4824  0.2467  0.5891
13597SOL    HW142232   6.336   3.635   9.146 -1.3906 -0.3684  0.1691
13597SOL    HW242233   6.424   3.603   9.265 -0.4197  1.1913 -0.1051
13598SOL     OW42234   6.484   5.388  12.197  0.3079 -0.2736  0.1942
13598SOL    HW142235   6.548   5.456  12.176 -1.0462  0.9976  0.1054
13598SOL    HW242236   6.445   5.416  12.280 -1.4355 -0.0365 -0.6720
13599SOL     OW42237   1.659   7.272   2.842  0.5806 -0.1653 -0.0584
13599SOL    HW142238   1.632   7.350   2.793  0.4614  0.3692  0.8442
13599SOL    HW242239   1.595   7.205   2.817 -0.9467  0.7568  1.1556
13600SOL     OW42240   3.774   0.781  11.192 -0.8563 -0.4606 -0.3512
13600SOL    HW142241   3.689   0.766  11.152 -0.8599  1.0817 -0.9918
13600SOL    HW242242   3.837   0.777  11.120 -0.5847  0.0175 -0.1509
13601SOL     OW42243   4.514   2.143  12.116 -0.4287  0.2060 -0.4597
13601SOL    HW142244   4.468   2.139  12.033  0.1465 -0.6741 -0.7468
13601SOL    HW242245   4.450   2.181  12.177 -1.2228 -0.1770 -1.0412
13602SOL     OW42246   5.383   6.522   9.363  0.3337 -0.5165 -1.1436
13602SOL    HW142247   5.298   6.543   9.326 -0.5909 -0.1073  1.0654
13602SOL    HW242248   5.446   6.572   9.311 -0.8632 -0.0848 -2.2045
13603SOL     OW42249   3.384   7.538  11.173 -0.1947 -0.1189 -0.5555
13603SOL    HW142250   3.404   7.543  11.079 -0.6147 -1.6312 -0.7419
13603SOL    HW242251   3.293   7.508  11.177  0.4677 -2.2018  0.3091
13604SOL     OW42252   6.820   7.954   7.893  0.1310 -0.8779  0.2362
13604SOL    HW142253   6.759   7.888   7.924  0.1201 -1.2583 -0.5703
13604SOL    HW242254   6.851   7.921   7.809  0.0112  0.2172 -0.2613
13605SOL     OW42255   4.221   4.851   6.391 -0.3619 -0.2016  0.2194
13605SOL    HW142256   4.309   4.813   6.402  0.0545 -0.0068 -1.9756
13605SOL    HW242257   4.180   4.840   6.476  1.4271 -1.2640  1.0143
13606SOL     OW42258   3.019   0.971   9.494 -0.3188 -0.5333 -0.2712
13606SOL    HW142259   2.957   1.043   9.504 -1.7846 -1.1037 -3.8582
13606SOL    HW242260   3.104   1.010   9.513 -1.2024  1.8082 -0.7745
13607SOL     OW42261   1.910   6.523   8.449  0.3504  0.0408  0.4793
13607SOL    HW142262   1.991   6.542   8.402  0.6075  1.8525  1.5587
13607SOL    HW242263   1.841   6.552   8.389  0.5974  0.5003  0.4097
13608SOL     OW42264   3.380   0.451   4.927 -0.0414 -0.1399 -0.7481
13608SOL    HW142265   3.464   0.469   4.884  0.5713 -0.7391  0.1850
13608SOL    HW242266   3.383   0.358   4.949  0.2073  0.3818  1.7007
13609SOL     OW42267   3.111   0.044   5.352  0.3929  0.5617 -0.1944
13609SOL    HW142268   3.118   0.026   5.446  0.2163  1.9793  0.1271
13609SOL    HW242269   3.095   0.139   5.348 -1.8423  0.1926 -1.5416
13610SOL     OW42270   4.816   7.683   0.699 -0.0660 -0.0608  0.0934
13610SOL    HW142271   4.859   7.612   0.746  0.9811  1.2080  1.1440
13610SOL    HW242272   4.840   7.669   0.607 -0.5993 -1.5305  0.1607
13611SOL     OW42273   4.636   2.136   7.639 -0.3114 -0.3966 -0.1789
13611SOL    HW142274   4.578   2.210   7.653  1.3370  1.1884 -1.1890
13611SOL    HW242275   4.644   2.130   7.543  1.2750 -0.4287 -0.0731
13612SOL     OW42276   7.425   2.890   0.975 -0.7371  0.4020 -0.2665
13612SOL    HW142277   7.484   2.819   0.952 -0.3925  0.1141  1.3867
13612SOL    HW242278   7.442   2.957   0.909 -0.3479 -0.6422 -1.2599
13613SOL     OW42279   2.469   2.904  10.339 -0.0590  0.4894  0.0942
13613SOL    HW142280   2.396   2.943  10.386 -1.1092  1.9734 -2.5597
13613SOL    HW242281   2.441   2.901  10.248  2.1282 -1.5448 -0.6312
13614SOL     OW42282   1.256   2.570   4.348 -0.4569  0.2462 -0.2991
13614SOL    HW142283   1.236   2.501   4.411  0.7193  0.1869  0.0351
13614SOL    HW242284   1.229   2.651   4.392  0.5958  0.2312  0.4226
13615SOL     OW42285   1.555   5.811   3.072  1.2624  0.6180 -0.0639
13615SOL    HW142286   1.590   5.756   3.143 -2.2040 -0.5726  0.8871
13615SOL    HW242287   1.588   5.770   2.992  1.5647 -0.7944  0.7420
13616SOL     OW42288   6.698   2.685  11.430 -0.6289 -0.5882  0.1158
13616SOL    HW142289   6.754   2.725  11.364 -0.1066  0.2288  1.0135
13616SOL    HW242290   6.612   2.679  11.389 -0.4104  0.2996 -0.4920
13617SOL     OW42291   2.805   0.647   9.294  0.2760  0.3952  0.2930
13617SOL    HW142292   2.773   0.595   9.220  1.8958 -1.4118  0.7887
13617SOL    HW242293   2.735   0.710   9.310 -0.9376 -0.3750 -1.5753
13618SOL     OW42294   7.225   4.204  11.944  0.2539  0.1191 -0.8017
13618SOL    HW142295   7.182   4.150  12.011 -2.0766 -0.8730 -2.9261
13618SOL    HW242296   7.161   4.273  11.924  1.9691  1.9473 -0.2722
13619SOL     OW42297   1.718   6.124  11.441 -0.3708  0.2838  0.0015
13619SOL    HW142298   1.773   6.163  11.372  0.8407 -0.3908  0.5422
13619SOL    HW242299   1.747   6.168  11.521  0.3750 -1.0420  0.4834
13620SOL     OW42300   4.320   7.311   6.065 -0.1303  0.1565 -0.4765
13620SOL    HW142301   4.366   7.383   6.109  0.0446 -0.0130 -0.3767
13620SOL    HW242302   4.389   7.247   6.047 -0.4966 -0.6039  0.6959
13621SOL     OW42303   7.411   5.950   8.493 -0.2969 -0.2015  0.6492
13621SOL    HW142304   7.480   5.997   8.540 -0.3214  0.9998 -0.4695
13621SOL    HW242305   7.355   5.915   8.563  1.3622 -1.1383  1.5730
13622SOL     OW42306   6.540   4.539   0.824  0.1278  0.2693  0.0017
13622SOL    HW142307   6.581   4.616   0.862  2.2298  0.7838 -2.9707
13622SOL    HW242308   6.446   4.559   0.826  0.4250  1.7582  1.5356
13623SOL     OW42309   2.823   0.945   2.426 -0.4539 -0.5479 -0.3611
13623SOL    HW142310   2.839   0.860   2.386 -2.4795 -0.7399 -0.9043
13623SOL    HW242311   2.752   0.930   2.488 -1.1105  0.7866 -0.7354
13624SOL     OW42312   7.811   6.606   5.287 -0.5970 -0.1714 -0.5917
13624SOL    HW142313   7.771   6.522   5.311 -0.1568 -0.2421 -0.0809
13624SOL    HW242314   7.877   6.583   5.222 -0.8652 -0.1457 -0.8776
13625SOL     OW42315   2.988   6.250   1.189 -0.8073 -0.0574 -0.0854
13625SOL    HW142316   2.929   6.188   1.231  0.2083  0.5576  2.4373
13625SOL    HW242317   3.075   6.212   1.201 -0.4006  0.5840 -0.8986
13626SOL     OW42318   1.818   4.457   1.504  0.0609  0.1377 -0.4924
13626SOL    HW142319   1.754   4.505   1.557  0.7722 -0.5454  1.0524
13626SOL    HW242320   1.796   4.364   1.519 -0.6364 -0.0785 -2.5958
13627SOL     OW42321   7.741   0.556  10.892 -0.1004 -0.0379  0.2735
13627SOL    HW142322   7.814   0.595  10.940  0.1805 -1.2971  0.8893
13627SOL    HW242323   7.781   0.522  10.812 -0.1324 -0.1300  0.2971
13628SOL     OW42324   1.790   6.823   1.320  0.0213 -0.2314 -0.3035
13628SOL    HW142325   1.748   6.853   1.239 -1.7832 -1.2525  0.1856
13628SOL    HW242326   1.719   6.825   1.385  1.6435  1.5895  1.5779
13629SOL     OW42327   7.069   4.200   7.051  0.1550  0.3471  0.1684
13629SOL    HW142328   7.103   4.204   7.141 -1.0954 -0.5127  0.7069
13629SOL    HW242329   6.987   4.150   7.058  0.1193  0.1126 -1.4867
13630SOL     OW42330   7.319   7.160   5.451  0.0513  0.2314  0.0579
13630SOL    HW142331   7.335   7.230   5.515  1.0392 -1.7435  2.0950
13630SOL    HW242332   7.270   7.094   5.499  3.6764 -2.8430 -0.0425
13631SOL     OW42333   0.154   2.630   6.632 -0.2436  0.4057 -0.0809
13631SOL    HW142334   0.170   2.545   6.673  1.4888 -0.4791 -2.3300
13631SOL    HW242335   0.205   2.692   6.684 -1.1904  0.0357  1.3312
13632SOL     OW42336   5.173   6.502  10.881  0.6221  0.1635  0.4634
13632SOL    HW142337   5.139   6.417  10.851  0.2315  0.5246 -0.1286
13632SOL    HW242338   5.268   6.488  10.889  0.5322 -0.4011  0.6211
13633SOL     OW42339   6.275   1.125   8.509  0.2592 -0.1751  0.0964
13633SOL    HW142340   6.241   1.041   8.479  0.7007 -0.2953 -0.0744
13633SOL    HW242341   6.233   1.189   8.452 -0.4162 -0.2329  0.5090
13634SOL     OW42342   6.145   0.403   9.802 -0.7169 -0.2514 -0.2667
13634SOL    HW142343   6.107   0.463   9.738  1.3106  0.0599 -1.2714
13634SOL    HW242344   6.187   0.335   9.749 -0.6454 -1.0696  0.7937
13635SOL     OW42345   0.189   4.413   0.055 -0.2737  0.3815  0.0215
13635SOL    HW142346   0.211   4.415  -0.038 -2.7315 -0.2903 -0.6554
13635SOL    HW242347   0.165   4.322   0.072  1.6271  0.1480  1.7502
13636SOL     OW42348   5.320   0.718  11.880 -0.1020  0.1319 -0.3807
13636SOL    HW142349   5.410   0.704  11.909 -0.6373 -4.1345 -0.2088
13636SOL    HW242350   5.328   0.759  11.794  1.8045  2.6227  0.8641
13637SOL     OW42351   4.325   5.449   3.821 -0.0753 -0.2601  0.2738
13637SOL    HW142352   4.293   5.422   3.735 -2.4899 -1.0018  1.3171
13637SOL    HW242353   4.272   5.526   3.844 -1.6147 -1.8155  2.2825
13638SOL     OW42354   4.176   2.417  11.266  0.4843 -0.5245  0.0624
13638SOL    HW142355   4.147   2.499  11.226 -0.3560 -0.4232  0.8529
13638SOL    HW242356   4.267   2.407  11.237 -0.3321 -0.9133 -2.5605
13639SOL     OW42357   5.458   3.115   9.216 -0.0723  0.1260  0.0848
13639SOL    HW142358   5.542   3.160   9.229 -0.0446 -0.2051  1.1425
13639SOL    HW242359   5.482   3.022   9.214 -0.2987  0.0804 -0.6423
13640SOL     OW42360   3.635   4.377   3.041 -0.1159  0.2620 -0.0981
13640SOL    HW142361   3.664   4.451   2.987  0.1483  1.6081  1.7968
13640SOL    HW242362   3.581   4.416   3.109 -1.2112 -1.4973  0.1130
13641SOL     OW42363   0.277   2.393  11.568  0.2969 -0.4686  0.5673
13641SOL    HW142364   0.305   2.347  11.489  0.9326  0.6779  0.1091
13641SOL    HW242365   0.315   2.341  11.640  2.2955  0.1315  0.0172
13642SOL     OW42366   6.240   1.004  11.981  0.6130  0.1895 -0.5037
13642SOL    HW142367   6.191   0.928  12.012 -0.4081 -0.0168 -2.4570
13642SOL    HW242368   6.196   1.079  12.021  0.2846 -0.1338 -0.2585
13643SOL     OW42369   7.145   3.764   4.790 -0.0304 -0.0089 -0.3876
13643SOL    HW142370   7.071   3.822   4.810  1.7891  1.4023  2.9293
13643SOL    HW242371   7.212   3.822   4.755  0.6399 -0.7459 -0.3445
13644SOL     OW42372   2.851   1.070   4.756 -0.3961  0.2278  0.1139
13644SOL    HW142373   2.825   1.036   4.842  0.0426 -1.0980 -0.2625
13644SOL    HW242374   2.925   1.015   4.730 -0.0835  1.0672 -0.8196
13645SOL     OW42375   4.105   2.457   6.653  0.1120  0.7490 -0.0820
13645SOL    HW142376   4.017   2.422   6.669 -0.0785  2.1189  2.3318
13645SOL    HW242377   4.111   2.534   6.709  2.4219  1.4505 -1.1590
13646SOL     OW42378   4.185   7.217   4.515  0.1853  0.3469  0.1672
13646SOL    HW142379   4.215   7.179   4.598 -0.6299  0.2669  0.4403
13646SOL    HW242380   4.188   7.144   4.453 -0.8303 -0.0467  0.5527
13647SOL     OW42381   3.550   4.811   9.530  0.2656 -0.0326  0.4917
13647SOL    HW142382   3.596   4.727   9.537  0.3611 -0.0226 -0.0090
13647SOL    HW242383   3.481   4.795   9.466 -1.1818 -0.3795  2.0613
13648SOL     OW42384   4.255   5.313  11.492  0.0672 -0.7190 -0.4141
13648SOL    HW142385   4.341   5.271  11.505  0.8378  0.9298  0.0814
13648SOL    HW242386   4.200   5.277  11.562  1.5599  1.1660  1.8994
13649SOL     OW42387   6.801   4.865   3.348  0.0056  0.0985 -0.1905
13649SOL    HW142388   6.754   4.781   3.342  0.3406 -0.1190  0.1595
13649SOL    HW242389   6.752   4.915   3.414 -0.4206  0.3299 -0.6799
13650SOL     OW42390   2.184   0.076  11.079  0.3018 -0.6982  0.7067
13650SOL    HW142391   2.151   0.019  11.148 -1.6134 -0.4338  0.0822
13650SOL    HW242392   2.258   0.122  11.118 -0.8258 -0.4469  2.6180
13651SOL     OW42393   0.613   2.396   9.367  0.0614 -0.0271  0.3128
13651SOL    HW142394   0.697   2.440   9.351  0.0008 -0.3286 -0.9984
13651SOL    HW242395   0.636   2.310   9.402  0.2665  0.1595  0.6410
13652SOL     OW42396   2.325   4.594  10.392 -0.0978 -0.5818  0.2759
13652SOL    HW142397   2.255   4.529  10.404 -0.7727 -0.1384 -0.9927
13652SOL    HW242398   2.405   4.549  10.418 -0.6848 -1.5815  0.3941
13653SOL     OW42399   1.721   6.128   2.189  0.1896 -0.0015  0.0260
13653SOL    HW142400   1.628   6.135   2.167 -0.0258 -2.3695 -0.0209
13653SOL    HW242401   1.757   6.214   2.166 -2.0620  1.1771  0.6067
13654SOL     OW42402   3.522   1.149   3.252  0.1341 -0.4570 -0.1012
13654SOL    HW142403   3.593   1.202   3.288  0.5495 -0.7826 -0.4254
13654SOL    HW242404   3.444   1.204   3.260  0.8099  0.8419 -1.8851
13655SOL     OW42405   4.396   2.799   3.573  0.0362 -0.7298  0.1620
13655SOL    HW142406   4.365   2.885   3.603 -0.0618 -0.1340 -1.5782
13655SOL    HW242407   4.317   2.751   3.551  0.0626 -1.4680  1.5545
13656SOL     OW42408   7.702   6.985  10.399 -0.2973  0.1847  0.4753
13656SOL    HW142409   7.653   7.063  10.425  1.3877  1.5545 -0.2385
13656SOL    HW242410   7.779   6.985  10.455 -0.0315 -0.7218  0.1349
13657SOL     OW42411   0.711   2.229   0.362  0.1373 -0.1489  0.9118
13657SOL    HW142412   0.640   2.172   0.393  0.0207 -0.9710 -0.7356
13657SOL    HW242413   0.710   2.303   0.422 -1.7733 -0.3965  1.2599
13658SOL     OW42414   0.925   7.426  11.039  0.4964 -0.3358 -0.0533
13658SOL    HW142415   1.020   7.438  11.044  0.6887 -0.9460 -1.5114
13658SOL    HW242416   0.893   7.509  11.002  0.5645 -0.4047 -0.2722
13659SOL     OW42417   6.548   3.671   4.634 -0.5972 -0.4000  0.1056
13659SOL    HW142418   6.565   3.585   4.596  0.1500 -1.1892  2.1032
13659SOL    HW242419   6.634   3.713   4.638 -0.6902 -0.2513  0.6885
13660SOL     OW42420   3.018   6.328   1.828  0.2217 -0.2928  0.5836
13660SOL    HW142421   2.956   6.385   1.872  0.5714 -0.3182  1.1090
13660SOL    HW242422   2.967   6.288   1.757 -0.3243 -0.2062  0.9201
13661SOL     OW42423   5.167   2.292   2.424  0.5548  0.1880 -0.5721
13661SOL    HW142424   5.105   2.221   2.407  0.9403 -0.3835  0.2882
13661SOL    HW242425   5.140   2.328   2.508  1.1405  0.1903 -0.3759
13662SOL     OW42426   5.964   3.183   9.854 -0.4337  0.0267  0.2502
13662SOL    HW142427   5.926   3.111   9.804 -0.6564 -0.3900  1.0032
13662SOL    HW242428   5.969   3.150   9.944 -0.9416  1.0898  0.6895
13663SOL     OW42429   7.370   7.938   3.914  0.2392  0.3013 -0.2690
13663SOL    HW142430   7.311   7.879   3.868  0.7111 -0.1189 -0.3468
13663SOL    HW242431   7.391   8.006   3.851 -0.4403  0.6480 -0.1260
13664SOL     OW42432   7.185   7.797   0.744 -0.5905 -0.0641  0.2792
13664SOL    HW142433   7.181   7.783   0.649 -0.2442 -1.1658  0.4064
13664SOL    HW242434   7.254   7.737   0.773  1.2824  2.2370  0.9029
13665SOL     OW42435   1.343   2.681   6.456  0.0327 -1.0796 -0.6654
13665SOL    HW142436   1.278   2.614   6.477 -1.7381  0.8978  0.4424
13665SOL    HW242437   1.305   2.763   6.487  1.8041  0.5913 -2.5930
13666SOL     OW42438   2.626   2.824   1.495 -0.1660  0.2844 -0.5236
13666SOL    HW142439   2.555   2.813   1.431 -1.2776  0.2264  0.6883
13666SOL    HW242440   2.607   2.906   1.540  1.0863  0.7671 -0.8140
13667SOL     OW42441   5.917   7.419   8.532  0.4540  0.3730  0.1616
13667SOL    HW142442   5.832   7.414   8.574 -0.0561  1.8367 -0.6361
13667SOL    HW242443   5.898   7.415   8.438  1.3638 -0.4025 -0.0103
13668SOL     OW42444   3.097   0.571  10.062  0.5618  0.5378  0.1827
13668SOL    HW142445   3.145   0.516  10.123  0.3063 -0.1193 -0.1973
13668SOL    HW242446   3.149   0.570   9.982  0.3044  0.4275  0.0114
13669SOL     OW42447   4.500   1.663  10.704  0.4948 -0.0288  0.1807
13669SOL    HW142448   4.475   1.623  10.621  1.3978 -1.2974  0.4918
13669SOL    HW242449   4.459   1.750  10.702  0.0032 -0.2636 -1.3137
13670SOL     OW42450   7.355   2.750  10.335 -0.4469 -0.1361 -0.0590
13670SOL    HW142451   7.320   2.761  10.424  1.0780 -0.9350  0.6894
13670SOL    HW242452   7.423   2.817  10.328  0.1597 -0.7566 -0.2195
13671SOL     OW42453   1.835   1.367   1.143 -0.0441  0.3807 -0.0434
13671SOL    HW142454   1.751   1.369   1.096  0.3294  0.4532 -0.7158
13671SOL    HW242455   1.858   1.459   1.154 -0.4169  0.3784  0.8145
13672SOL     OW42456   2.036   6.917   4.212  0.0421  0.3264  0.1550
13672SOL    HW142457   1.991   6.886   4.291  0.3842  0.5520  0.4427
13672SOL    HW242458   2.058   6.837   4.165 -1.7687  0.2388 -0.6340
13673SOL     OW42459   5.494   1.117   3.556  0.1368  0.1413 -0.0063
13673SOL    HW142460   5.413   1.128   3.606  0.1065  0.7570 -0.1795
13673SOL    HW242461   5.563   1.140   3.618  0.1826 -0.3895  0.1428
13674SOL     OW42462   1.459   7.215  11.419 -0.4284 -0.5957  0.2800
13674SOL    HW142463   1.461   7.144  11.482 -0.2030 -0.3399  0.5634
13674SOL    HW242464   1.551   7.236  11.404 -0.3845 -1.7797 -1.4165
13675SOL     OW42465   7.476   7.391   7.138 -0.1373  0.3012 -0.4124
13675SOL    HW142466   7.450   7.360   7.224  1.3470 -0.2691 -0.1454
13675SOL    HW242467   7.462   7.317   7.080 -0.8370  0.5845 -0.6122
13676SOL     OW42468   5.409   3.264   6.375 -0.3198 -0.0728  0.8685
13676SOL    HW142469   5.368   3.295   6.294 -2.5168  0.1189  1.9672
13676SOL    HW242470   5.452   3.182   6.351 -0.4576  0.2615 -0.5939
13677SOL     OW42471   4.672   4.895   6.263 -0.1006  0.2972 -0.2481
13677SOL    HW142472   4.676   4.815   6.316 -0.6645 -0.3818 -1.2100
13677SOL    HW242473   4.644   4.963   6.324 -0.9718 -0.5160  0.2831
13678SOL     OW42474   5.781   2.017   3.808 -0.6559  0.0339 -0.5634
13678SOL    HW142475   5.698   2.062   3.790  0.3638  2.0377 -0.5090
13678SOL    HW242476   5.767   1.927   3.777 -3.2789 -0.0699  0.6502
13679SOL     OW42477   0.186   4.491   1.045 -0.0983  0.3637 -0.5511
13679SOL    HW142478   0.119   4.556   1.065 -1.4362 -1.2644  0.6133
13679SOL    HW242479   0.152   4.446   0.967  0.1338  0.1850 -0.5475
13680SOL     OW42480   1.623   5.908   9.507  0.6319  0.1800 -0.5733
13680SOL    HW142481   1.644   5.960   9.429  1.0498 -1.2246 -1.4384
13680SOL    HW242482   1.695   5.927   9.568  0.8659  0.4922 -0.9353
13681SOL     OW42483   7.751   2.855   4.746 -0.2006  0.3393  0.4312
13681SOL    HW142484   7.799   2.848   4.663  1.9030  0.3187  1.5749
13681SOL    HW242485   7.807   2.810   4.810 -0.1414  3.1158  2.5054
13682SOL     OW42486   2.016   4.446   5.614 -0.0348  0.5285 -0.0311
13682SOL    HW142487   1.967   4.370   5.584  0.1623 -0.3631  1.7663
13682SOL    HW242488   2.092   4.410   5.659  3.0462  1.8313 -3.6006
13683SOL     OW42489   2.657   6.070   9.813 -0.0399  0.0630  0.0537
13683SOL    HW142490   2.565   6.093   9.796 -0.4736 -0.1436  1.9521
13683SOL    HW242491   2.690   6.142   9.866  0.4837 -0.5727  0.6003
13684SOL     OW42492   6.956   3.980   3.884 -0.1189  0.0947  0.1046
13684SOL    HW142493   7.035   4.008   3.839  0.1592 -0.5405  0.1898
13684SOL    HW242494   6.987   3.942   3.966 -0.4427 -0.8921 -0.2158
13685SOL     OW42495   6.771   4.054  10.893  0.2328 -0.6001  0.7016
13685SOL    HW142496   6.801   4.134  10.850  1.2100 -2.0524 -1.5415
13685SOL    HW242497   6.833   4.040  10.965  0.3715  0.3638  0.7764
13686SOL     OW42498   5.715   2.028   2.974 -0.5317 -0.1359 -0.0747
13686SOL    HW142499   5.676   1.991   2.894 -0.8204 -0.5675  0.2598
13686SOL    HW242500   5.744   1.951   3.023 -0.0522  0.1464  0.0836
13687SOL     OW42501   2.993   1.304   4.476 -0.0577 -0.1160  0.4568
13687SOL    HW142502   2.912   1.256   4.458  0.2101 -0.5425  0.3941
13687SOL    HW242503   2.979   1.389   4.434 -0.7062  0.0263  0.9409
13688SOL     OW42504   2.683   7.482   7.378 -0.3657 -0.4340  0.4652
13688SOL    HW142505   2.645   7.491   7.465  0.9095 -0.1684  1.0159
13688SOL    HW242506   2.639   7.405   7.340 -0.2094 -1.1773  1.7407
13689SOL     OW42507   0.221   2.033   3.015  0.3353 -0.5405 -0.2286
13689SOL    HW142508   0.239   2.119   2.977  2.9173 -0.6352  0.5786
13689SOL    HW242509   0.274   1.972   2.964  1.4557 -1.0784  1.4840
13690SOL     OW42510   6.403   1.641  12.036  0.4385  0.6876 -0.3634
13690SOL    HW142511   6.438   1.629  11.948 -0.4208  0.3613 -0.6771
13690SOL    HW242512   6.479   1.658  12.091  1.5124 -2.8871 -0.4548
13691SOL     OW42513   0.990   5.644   4.236  0.5387 -0.2091 -0.0973
13691SOL    HW142514   0.948   5.679   4.157 -1.3882 -0.2025  0.8690
13691SOL    HW242515   0.944   5.561   4.252  1.2643 -0.4627  0.7317
13692SOL     OW42516   2.646   4.587  11.055 -0.4388  0.2394 -0.6346
13692SOL    HW142517   2.721   4.599  10.997  1.9259 -0.6707  2.0122
13692SOL    HW242518   2.644   4.666  11.110 -1.4758  0.2750 -0.6929
13693SOL     OW42519   3.779   7.716   0.342 -0.0344  0.0145  1.1906
13693SOL    HW142520   3.762   7.743   0.432 -0.1240  0.7495  0.9641
13693SOL    HW242521   3.803   7.624   0.348  1.4665  0.4437  2.1251
13694SOL     OW42522   3.512   4.833   6.734 -0.5849 -0.2742 -0.2685
13694SOL    HW142523   3.519   4.881   6.817  3.3773 -0.5911 -0.2073
13694SOL    HW242524   3.491   4.899   6.669 -0.4993  0.5659  0.5367
13695SOL     OW42525   0.663   0.092   4.101 -0.0739 -0.4866  0.5629
13695SOL    HW142526   0.758   0.078   4.093 -0.1333 -1.7488  1.7680
13695SOL    HW242527   0.636   0.117   4.013  1.3901 -0.0332  0.2064
13696SOL     OW42528   6.630   6.667   4.304  0.3360  0.3584  0.1481
13696SOL    HW142529   6.581   6.692   4.226 -0.4470  1.5478  0.9962
13696SOL    HW242530   6.651   6.749   4.347  0.4994 -0.2910  1.3575
13697SOL     OW42531   4.104   4.778  12.330  0.4075  0.1726 -0.2338
13697SOL    HW142532   4.010   4.796  12.331  0.7105  1.9667 -0.0191
13697SOL    HW242533   4.140   4.847  12.274  1.6203 -0.4030 -0.1888
13698SOL     OW42534   5.063   2.500   0.515  0.1310 -0.1230 -0.4724
13698SOL    HW142535   4.970   2.506   0.536  0.0270  1.5516 -1.2071
13698SOL    HW242536   5.107   2.494   0.600 -0.5504  1.5363  0.0470
13699SOL     OW42537   4.204   1.992  12.255 -0.1724 -0.8669  0.0939
13699SOL    HW142538   4.234   2.072  12.211  0.4048 -1.0907  0.0683
13699SOL    HW242539   4.136   1.957  12.198 -0.0328 -0.6968 -0.1784
13700SOL     OW42540   3.760   7.011  11.627 -0.5501  0.0792  0.2122
13700SOL    HW142541   3.684   7.011  11.684 -0.6117  0.1313  0.1297
13700SOL    HW242542   3.831   6.979  11.683 -0.8538 -0.9873 -0.0091
13701SOL     OW42543   5.683   3.042   0.145 -0.0437 -0.3239 -0.6060
13701SOL    HW142544   5.700   2.950   0.164 -1.4426 -0.5661 -0.4422
13701SOL    HW242545   5.590   3.055   0.165 -0.5475  0.4715 -3.0528
13702SOL     OW42546   0.448   7.691   8.329 -0.0586 -0.4317  0.2602
13702SOL    HW142547   0.487   7.626   8.270 -2.1554 -2.5848  1.0813
13702SOL    HW242548   0.360   7.704   8.294  0.7611  3.3393 -0.8271
13703SOL     OW42549   5.909   0.461   9.027 -0.2880  0.4108  0.4752
13703SOL    HW142550   6.001   0.438   9.013 -0.3808  0.7016 -0.6701
13703SOL    HW242551   5.902   0.551   8.996 -0.7300  0.7834  1.5816
13704SOL     OW42552   7.826   7.259   7.522  0.0436  0.0202  0.0736
13704SOL    HW142553   7.801   7.209   7.600  0.1383  0.6446  0.5165
13704SOL    HW242554   7.758   7.327   7.515 -0.8111 -0.9291 -1.2639
13705SOL     OW42555   7.891   0.613   2.259  0.1862 -0.5067 -0.1089
13705SOL    HW142556   7.953   0.657   2.318  0.1831 -0.1903 -0.3377
13705SOL    HW242557   7.810   0.607   2.310 -0.1228  0.6741 -0.4186
13706SOL     OW42558   6.559   7.159   0.191 -0.5078 -0.1510 -0.9675
13706SOL    HW142559   6.628   7.222   0.170 -0.4824 -0.5673 -2.1693
13706SOL    HW242560   6.529   7.185   0.279 -0.0187  1.0958 -1.1517
13707SOL     OW42561   4.202   7.668   8.423  0.4706  0.3043  0.0115
13707SOL    HW142562   4.119   7.645   8.381  0.2369 -2.5396  1.7604
13707SOL    HW242563   4.268   7.619   8.375  0.5749 -0.6109  1.0400
13708SOL     OW42564   2.552   1.672   7.631 -0.7924 -0.5284  0.2222
13708SOL    HW142565   2.520   1.651   7.544 -0.3631  0.1165 -0.0983
13708SOL    HW242566   2.604   1.751   7.619  0.4777 -1.2448  0.8210
13709SOL     OW42567   5.233   4.094   3.936  0.0152 -0.2512  0.1746
13709SOL    HW142568   5.316   4.105   3.890 -0.6779 -0.4669 -1.1958
13709SOL    HW242569   5.248   4.131   4.022  0.8376  1.9489 -0.8326
13710SOL     OW42570   3.146   6.703   6.999 -0.4452 -0.0588 -0.6106
13710SOL    HW142571   3.077   6.655   6.953 -0.9261 -0.2624  0.2940
13710SOL    HW242572   3.100   6.775   7.042 -0.2624 -0.6675  0.6830
13711SOL     OW42573   3.337   6.630   6.020  0.6110 -0.0496  0.5054
13711SOL    HW142574   3.426   6.613   5.989  1.2504  0.1249  2.1352
13711SOL    HW242575   3.311   6.711   5.976  1.2225 -0.1456 -0.0531
13712SOL     OW42576   3.306   7.723   1.835  0.4289  0.1472 -0.8115
13712SOL    HW142577   3.371   7.788   1.807  0.6193 -0.5563 -2.0994
13712SOL    HW242578   3.250   7.770   1.897  0.6055  1.5358 -1.6460
13713SOL     OW42579   5.085   4.194   9.024  0.2462  0.6179  0.1466
13713SOL    HW142580   5.043   4.170   8.941  1.2539 -0.9067  0.0352
13713SOL    HW242581   5.063   4.286   9.036 -3.6651 -0.1743  0.4341
13714SOL     OW42582   1.898   4.184   7.849  0.6055  0.3165 -0.5126
13714SOL    HW142583   1.940   4.203   7.766 -1.6153  1.2526 -1.5118
13714SOL    HW242584   1.832   4.118   7.829  1.7297 -1.3938  1.0677
13715SOL     OW42585   6.930   7.041   6.703 -0.1497 -0.1959 -0.5524
13715SOL    HW142586   7.010   7.078   6.664 -0.0294  0.5857  0.3974
13715SOL    HW242587   6.930   7.074   6.793  0.1678 -2.8424  0.5063
13716SOL     OW42588   2.836   6.390   9.643  0.5295 -0.2547  0.3311
13716SOL    HW142589   2.920   6.435   9.630  0.2538  0.2131  0.1822
13716SOL    HW242590   2.858   6.297   9.633  0.9619 -0.1110 -0.1064
13717SOL     OW42591   6.973   7.287  11.662 -0.2469  0.4508  0.6198
13717SOL    HW142592   7.008   7.375  11.646  1.7501 -0.5723 -1.0021
13717SOL    HW242593   6.919   7.268  11.585 -2.1015  0.8391  1.7412
13718SOL     OW42594   0.195   4.183  12.257  0.3658  0.1298  0.3960
13718SOL    HW142595   0.135   4.257  12.256 -0.3928 -0.4136  2.2296
13718SOL    HW242596   0.269   4.211  12.203 -1.5450  0.7512 -2.1095
13719SOL     OW42597   6.830   6.401   6.377 -0.0367 -0.1299 -0.0375
13719SOL    HW142598   6.845   6.316   6.418  0.9548  0.2632  0.4542
13719SOL    HW242599   6.834   6.383   6.283 -0.4360 -0.7268  0.0554
13720SOL     OW42600   2.027   4.009   5.744 -0.5463  0.5098  0.1009
13720SOL    HW142601   2.099   3.983   5.802  0.2033  1.0611 -0.5462
13720SOL    HW242602   1.957   3.948   5.763  0.6931 -1.1530 -0.4504
13721SOL     OW42603   5.969   1.326   8.542  0.1013  0.3770  0.1464
13721SOL    HW142604   5.957   1.249   8.486  0.7927 -0.0436  0.5569
13721SOL    HW242605   6.043   1.303   8.598 -0.7342  0.6850  1.4045
13722SOL     OW42606   3.720   2.449   9.970  0.2540  0.0364 -0.4827
13722SOL    HW142607   3.716   2.528   9.916  0.8507 -1.0525 -2.2324
13722SOL    HW242608   3.640   2.401   9.948  0.7730 -0.6834 -0.8611
13723SOL     OW42609   6.785   4.387   8.801 -0.6675  0.5605  0.3457
13723SOL    HW142610   6.781   4.481   8.782 -0.7004  0.3020 -1.0290
13723SOL    HW242611   6.708   4.350   8.757 -0.6687 -0.1156  0.8914
13724SOL     OW42612   1.655   3.097  10.656  0.3817  0.0327 -0.6027
13724SOL    HW142613   1.748   3.089  10.678  0.3999  0.2119 -0.6132
13724SOL    HW242614   1.622   3.008  10.661  0.5694 -0.0417 -0.6644
13725SOL     OW42615   0.077   7.724   0.675  0.0471  0.2015 -0.0663
13725SOL    HW142616   0.031   7.788   0.621  0.3311 -1.4283 -2.3606
13725SOL    HW242617   0.008   7.667   0.708  0.0437  0.0839 -0.2742
13726SOL     OW42618   6.990   5.191   9.632 -0.1206  0.5243 -0.0198
13726SOL    HW142619   6.936   5.148   9.698 -0.0805 -0.8672 -0.8625
13726SOL    HW242620   6.938   5.186   9.551  0.2028  1.4219 -0.2985
13727SOL     OW42621   1.022   7.985   8.959  0.0774 -0.1235 -0.2544
13727SOL    HW142622   1.067   7.905   8.988 -0.4641 -0.6990 -0.9754
13727SOL    HW242623   0.984   7.962   8.875  0.5837  1.1486 -0.8624
13728SOL     OW42624   1.938   3.758   2.164 -0.0844 -0.3948 -0.0297
13728SOL    HW142625   1.940   3.853   2.177 -1.0134 -0.2576 -0.8105
13728SOL    HW242626   1.911   3.746   2.073  0.3224 -1.4102 -0.0337
13729SOL     OW42627   7.538   0.280   9.742  0.6265 -0.1232 -0.1356
13729SOL    HW142628   7.626   0.243   9.734  0.0483 -1.2401 -1.6641
13729SOL    HW242629   7.542   0.363   9.695  1.1850  0.4729  0.9243
13730SOL     OW42630   3.282   7.088   3.716 -0.4713 -0.2040 -0.4202
13730SOL    HW142631   3.317   7.101   3.804 -0.9892 -0.0888 -0.2287
13730SOL    HW242632   3.250   6.998   3.716  0.5268 -0.5802 -0.8482
13731SOL     OW42633   4.443   5.890   4.035  0.2904 -1.2053 -0.4055
13731SOL    HW142634   4.477   5.901   3.947  1.6440 -0.4890  0.1761
13731SOL    HW242635   4.348   5.897   4.025  0.4926  0.6533 -1.5915
13732SOL     OW42636   4.116   0.302   3.605 -1.0158 -0.4043 -0.1183
13732SOL    HW142637   4.071   0.347   3.676  0.1206 -1.2759  1.2268
13732SOL    HW242638   4.095   0.209   3.618 -0.7194 -0.5850 -0.8689
13733SOL     OW42639   3.533   1.149   2.818 -0.2461  0.2028  0.5733
13733SOL    HW142640   3.440   1.139   2.841 -0.0683 -0.9042  0.8524
13733SOL    HW242641   3.578   1.149   2.902  0.1431 -0.8605  0.3738
13734SOL     OW42642   5.009   1.464   6.073  0.6760  0.2211 -0.1678
13734SOL    HW142643   4.922   1.504   6.063 -0.5276 -1.4865  2.5583
13734SOL    HW242644   5.010   1.393   6.009 -0.8847 -1.1055  1.1741
13735SOL     OW42645   7.748   5.619  11.951 -0.3354 -0.0933  0.6660
13735SOL    HW142646   7.762   5.557  11.880  2.4719  1.4792 -0.3145
13735SOL    HW242647   7.654   5.634  11.952 -0.4710  0.0371 -2.9631
13736SOL     OW42648   5.291   4.835   6.192  0.9232 -0.3605 -0.2772
13736SOL    HW142649   5.336   4.920   6.201  1.3409 -0.4023 -1.7404
13736SOL    HW242650   5.330   4.781   6.261  1.3008  0.3679  0.1034
13737SOL     OW42651   5.543   7.718   1.757  0.7692  0.2255 -0.1400
13737SOL    HW142652   5.510   7.746   1.672 -0.4284 -2.1186 -0.5260
13737SOL    HW242653   5.569   7.626   1.745  0.0638 -0.3560  2.1209
13738SOL     OW42654   1.042   7.736   6.598 -0.3190  0.5854 -0.1428
13738SOL    HW142655   1.052   7.731   6.503 -0.6072  0.9575 -0.1963
13738SOL    HW242656   0.954   7.704   6.615 -0.5396  1.2077 -0.0744
13739SOL     OW42657   5.806   2.541   6.051 -0.1846 -0.1246 -0.2221
13739SOL    HW142658   5.731   2.523   6.108  0.3895 -2.5552 -0.1181
13739SOL    HW242659   5.869   2.472   6.073  1.3781  0.8207 -1.5406
13740SOL     OW42660   6.728   3.010   0.219  0.9016  0.3838  0.2474
13740SOL    HW142661   6.671   2.934   0.207 -0.0569  1.4496 -2.5566
13740SOL    HW242662   6.766   2.997   0.306 -2.3935 -1.1649  1.6400
13741SOL     OW42663   0.034   0.111   9.364  0.4840 -0.0628 -0.0049
13741SOL    HW142664  -0.054   0.144   9.349  0.4609  1.2919  2.5269
13741SOL    HW242665   0.022   0.023   9.400  0.2392 -0.2523 -0.5369
13742SOL     OW42666   0.886   7.158   7.544 -0.4635 -0.1727 -0.3147
13742SOL    HW142667   0.925   7.241   7.515 -0.3950 -0.0995 -0.0182
13742SOL    HW242668   0.959   7.107   7.576 -0.1632 -1.2386 -2.5074
13743SOL     OW42669   5.683   1.217  11.981  0.2576  0.3687 -0.1052
13743SOL    HW142670   5.683   1.218  11.885 -1.6034  0.5592 -0.1329
13743SOL    HW242671   5.776   1.218  12.004  0.7878 -1.0792 -1.8932
13744SOL     OW42672   3.334   0.773   6.532 -0.3724  0.0088 -0.7063
13744SOL    HW142673   3.342   0.862   6.567  0.0024 -0.6860  1.0685
13744SOL    HW242674   3.418   0.732   6.551 -1.5214 -1.6343  1.2907
13745SOL     OW42675   3.805   5.992   3.491 -0.4591  0.0846  0.0946
13745SOL    HW142676   3.759   5.913   3.463 -0.7356 -1.3469  4.0717
13745SOL    HW242677   3.743   6.063   3.474 -0.9826 -0.7427 -1.7210
13746SOL     OW42678   6.273   2.788   0.421  0.3660  0.2615 -0.6287
13746SOL    HW142679   6.192   2.769   0.373  0.9341  0.1831 -1.5902
13746SOL    HW242680   6.337   2.806   0.352  1.4238 -0.6969  0.0676
13747SOL     OW42681   4.280   5.453   2.693 -0.2315  0.1742 -0.1440
13747SOL    HW142682   4.368   5.422   2.714 -0.7115 -0.1264  1.5882
13747SOL    HW242683   4.237   5.377   2.653 -1.3617 -1.6334  3.9739
13748SOL     OW42684   4.171   6.127   8.077 -0.1110  0.3086  0.3668
13748SOL    HW142685   4.160   6.201   8.017  0.7609 -0.8993 -1.3635
13748SOL    HW242686   4.240   6.155   8.137  2.8441 -0.2843 -2.4738
13749SOL     OW42687   5.983   6.307   7.661  0.1100  0.0083  0.2330
13749SOL    HW142688   6.065   6.282   7.619 -0.1070 -0.5326  0.1276
13749SOL    HW242689   5.921   6.237   7.638  0.4225 -1.2621  2.8339
13750SOL     OW42690   2.781   5.850   9.010 -0.2765  0.6891 -0.1565
13750SOL    HW142691   2.822   5.778   8.963  1.0684  1.0296  0.4404
13750SOL    HW242692   2.814   5.929   8.968 -0.6697  0.9751  0.0591
13751SOL     OW42693   0.232   1.943   9.315  0.2936  0.2013 -0.0470
13751SOL    HW142694   0.170   1.981   9.378 -1.5985 -1.4803 -0.7918
13751SOL    HW242695   0.188   1.949   9.231  1.4339 -0.4448 -0.7173
13752SOL     OW42696   7.599   6.091   8.664  0.6844  0.6954  0.3752
13752SOL    HW142697   7.608   6.141   8.582  1.7813 -0.5239 -0.2837
13752SOL    HW242698   7.532   6.138   8.713 -0.5445  1.0544 -1.5395
13753SOL     OW42699   4.289   7.472   1.508 -0.0576  0.1256 -0.0530
13753SOL    HW142700   4.232   7.402   1.540  0.5160 -0.8569 -1.0869
13753SOL    HW242701   4.373   7.428   1.492  0.7539  1.3585  0.6388
13754SOL     OW42702   7.938   7.284   5.309  0.0617 -0.0419 -0.2794
13754SOL    HW142703   7.888   7.340   5.369 -0.6470 -0.5099 -0.4320
13754SOL    HW242704   8.008   7.249   5.363  0.1810  0.5422 -0.0401
13755SOL     OW42705   2.621   3.942  11.836 -0.2730 -0.1105 -0.3530
13755SOL    HW142706   2.702   3.973  11.875  0.8110 -0.5164 -2.1707
13755SOL    HW242707   2.611   3.852  11.868 -0.9587  0.4741  1.2091
13756SOL     OW42708   5.300   0.438  12.384 -0.5418  0.1884 -0.4954
13756SOL    HW142709   5.213   0.472  12.362 -0.8310  0.9950  1.6559
13756SOL    HW242710   5.285   0.378  12.457  0.6504  0.0071 -0.3782
13757SOL     OW42711   0.366   5.453   2.487  0.0869  0.3428  0.4028
13757SOL    HW142712   0.317   5.389   2.539 -0.3541 -2.4578 -3.1026
13757SOL    HW242713   0.300   5.517   2.459 -0.1557  0.3962  1.0582
13758SOL     OW42714   6.636   7.078   9.301  0.7760  0.5067 -0.5391
13758SOL    HW142715   6.597   7.128   9.372 -0.2950  0.3378 -0.9877
13758SOL    HW242716   6.711   7.033   9.341  0.0761  0.2581  0.5342
13759SOL     OW42717   1.598   6.468   7.427 -0.4662  0.8394 -0.3139
13759SOL    HW142718   1.579   6.555   7.463 -1.9990 -0.0276  1.1132
13759SOL    HW242719   1.538   6.460   7.352  1.7071  2.0707 -2.3240
13760SOL     OW42720   3.908   2.703   6.503  0.3005 -0.0046 -0.0383
13760SOL    HW142721   3.957   2.732   6.579  0.0815  0.0560  0.0821
13760SOL    HW242722   3.873   2.617   6.527 -1.6559  0.9661  0.8168
13761SOL     OW42723   4.128   5.838  10.809 -0.1454 -0.1217 -0.1873
13761SOL    HW142724   4.078   5.784  10.870 -1.0100  1.1947  0.3074
13761SOL    HW242725   4.099   5.809  10.722  1.8685 -2.7359 -0.0870
13762SOL     OW42726   5.238   0.326   9.654 -0.6413 -0.1291  0.3057
13762SOL    HW142727   5.252   0.267   9.580 -1.8460  0.4813 -0.4444
13762SOL    HW242728   5.159   0.293   9.697 -0.7356  0.3235  0.4934
13763SOL     OW42729   1.633   3.946   7.822 -0.2713 -0.3179  0.3850
13763SOL    HW142730   1.710   3.890   7.806 -0.8782 -1.2743  0.7426
13763SOL    HW242731   1.629   4.003   7.745  0.9699 -0.0378  0.4997
13764SOL     OW42732   1.994   5.229   2.958 -0.3033  0.1701 -0.2538
13764SOL    HW142733   1.968   5.261   3.045 -0.4350 -0.8234  0.0812
13764SOL    HW242734   1.912   5.213   2.913 -0.2510 -0.3258 -0.1790
13765SOL     OW42735   6.478   1.754   4.100 -0.3874  0.8920 -0.0065
13765SOL    HW142736   6.481   1.684   4.035 -2.0523  1.5174 -0.8044
13765SOL    HW242737   6.570   1.766   4.126  0.0427 -0.8868 -0.5664
13766SOL     OW42738   1.422   4.572   2.130 -0.0920 -0.4749  0.2658
13766SOL    HW142739   1.448   4.646   2.075  1.1406 -3.2052 -3.1746
13766SOL    HW242740   1.330   4.556   2.108 -0.1739 -0.3983  0.5381
13767SOL     OW42741   0.510   0.847   1.996  0.2324  0.1854 -0.0583
13767SOL    HW142742   0.457   0.867   1.920  1.2835  0.3421 -0.7778
13767SOL    HW242743   0.454   0.794   2.052 -0.7733  0.6293 -0.6331
13768SOL     OW42744   5.313   1.792   3.681  0.3342 -0.0228  0.1379
13768SOL    HW142745   5.249   1.838   3.737  0.9446 -0.5313  1.2922
13768SOL    HW242746   5.337   1.856   3.614 -0.7666  0.4521  0.1780
13769SOL     OW42747   2.120   0.817   8.655  0.2252  0.2030  0.3026
13769SOL    HW142748   2.128   0.862   8.571  0.2668 -0.4936 -0.0787
13769SOL    HW242749   2.184   0.745   8.650  1.3609  1.0624  1.5472
13770SOL     OW42750   7.180   4.328   2.134 -0.0091  0.0300  0.0137
13770SOL    HW142751   7.156   4.248   2.181  0.2523 -0.1252 -0.1183
13770SOL    HW242752   7.160   4.310   2.042 -0.2112  0.2161  0.0199
13771SOL     OW42753   5.701   7.909   1.945  0.0848  0.4129  0.0795
13771SOL    HW142754   5.607   7.896   1.939  0.1126  0.6675 -1.1267
13771SOL    HW242755   5.715   7.946   2.032 -0.9904  0.9468  0.0392
13772SOL     OW42756   5.863   3.688   7.172 -0.1745 -0.5594 -0.4414
13772SOL    HW142757   5.785   3.707   7.119 -0.7730 -0.2183  0.5407
13772SOL    HW242758   5.935   3.688   7.109 -0.7561  0.6674 -1.1358
13773SOL     OW42759   3.950   0.209  10.651  0.2797 -1.4147 -0.1177
13773SOL    HW142760   4.006   0.273  10.608 -0.6902 -1.2681 -1.2337
13773SOL    HW242761   3.974   0.213  10.744  1.3307 -0.5955 -0.4135
13774SOL     OW42762   5.257   6.533  10.283  0.5385 -0.0046  0.1303
13774SOL    HW142763   5.175   6.512  10.238  0.6784  0.5159 -0.3680
13774SOL    HW242764   5.314   6.458  10.265  0.0448 -0.5723  0.8313
13775SOL     OW42765   7.650   4.762   9.103  0.1611 -0.4228 -0.5110
13775SOL    HW142766   7.666   4.808   9.185 -0.8636  1.1313 -1.1307
13775SOL    HW242767   7.699   4.811   9.038 -1.0186 -0.1147 -1.2001
13776SOL     OW42768   5.171   7.741  10.422 -0.1265 -0.1194 -0.1096
13776SOL    HW142769   5.152   7.683  10.495 -0.6027 -1.6219 -1.3845
13776SOL    HW242770   5.184   7.683  10.347  0.3392  1.3665 -1.2361
13777SOL     OW42771   5.365   3.415   8.166  0.0820 -0.4264  0.7316
13777SOL    HW142772   5.440   3.473   8.173  1.5237 -2.0609 -0.5066
13777SOL    HW242773   5.401   3.327   8.170 -1.7673 -1.2674  0.2452
13778SOL     OW42774   1.513   4.678  10.768  0.2220 -0.0939  0.3928
13778SOL    HW142775   1.558   4.594  10.769 -0.2586 -0.3810  2.1039
13778SOL    HW242776   1.569   4.736  10.717  1.2804 -1.0789  0.4113
13779SOL     OW42777   3.423   7.630   6.711  0.0239  0.1111 -0.1604
13779SOL    HW142778   3.367   7.704   6.737 -0.2197  0.8472 -2.5409
13779SOL    HW242779   3.361   7.562   6.683  0.2817  0.1899 -0.9353
13780SOL     OW42780   3.322   1.965  12.155  0.1986  0.1892 -0.0432
13780SOL    HW142781   3.268   2.041  12.135 -0.0030  0.4333  1.2972
13780SOL    HW242782   3.260   1.893  12.163  0.3619 -0.0687 -1.0614
13781SOL     OW42783   0.721   1.146   7.462  0.2478 -0.0527 -0.0739
13781SOL    HW142784   0.804   1.193   7.474  0.7525 -1.4803  3.1192
13781SOL    HW242785   0.743   1.055   7.480 -2.1770 -0.3271  2.0440
13782SOL     OW42786   2.673   3.654   6.511 -0.3156  0.5261  0.9103
13782SOL    HW142787   2.648   3.745   6.523 -2.4717 -0.0380  1.0356
13782SOL    HW242788   2.710   3.627   6.595 -1.2025  0.8330  1.4032
13783SOL     OW42789   6.336   7.974   0.552 -0.5180 -0.3107  0.1593
13783SOL    HW142790   6.377   7.889   0.566 -0.9394 -0.5119  0.1879
13783SOL    HW242791   6.294   7.966   0.467 -3.3315 -1.2804  1.5255
13784SOL     OW42792   0.839   5.031   1.480 -0.1523  0.6153 -0.0078
13784SOL    HW142793   0.827   5.112   1.529  0.1713  0.0998  0.9441
13784SOL    HW242794   0.855   4.964   1.547 -0.3377 -0.2217 -0.7805
13785SOL     OW42795   5.400   1.911   3.426  0.0508 -0.2032  0.0981
13785SOL    HW142796   5.423   1.829   3.382  0.6192 -1.1001  1.9581
13785SOL    HW242797   5.426   1.979   3.364  0.4638 -1.3973 -1.0964
13786SOL     OW42798   7.452   1.710  10.387  0.0768 -0.2270  0.5594
13786SOL    HW142799   7.466   1.720  10.293 -1.8105 -1.1272  0.1258
13786SOL    HW242800   7.383   1.644  10.394 -1.5668  1.5203  2.4361
13787SOL     OW42801   6.208   7.208   8.737 -0.0175  0.1984 -0.3461
13787SOL    HW142802   6.213   7.276   8.804  3.6727  2.0876 -2.2405
13787SOL    HW242803   6.187   7.255   8.656 -0.9772 -1.5171 -1.1530
13788SOL     OW42804   1.398   7.168   8.221  0.6851 -1.0069  0.1932
13788SOL    HW142805   1.391   7.112   8.144 -0.6932 -0.7863  0.1256
13788SOL    HW242806   1.362   7.252   8.193 -2.4002 -1.6704  1.7509
13789SOL     OW42807   5.522   0.183  12.000  0.2195  0.6519  0.4050
13789SOL    HW142808   5.555   0.099  12.032  0.1712  0.0049 -1.1494
13789SOL    HW242809   5.460   0.211  12.067 -0.0688 -0.7536  0.7739
13790SOL     OW42810   1.554   0.070   0.633 -0.2823 -0.0479  0.2069
13790SOL    HW142811   1.602   0.152   0.644 -1.1150  0.5616 -0.5727
13790SOL    HW242812   1.613   0.003   0.668  1.4682  0.5842 -1.3658
13791SOL     OW42813   7.833   4.998   2.903 -0.2947  0.6750  0.9431
13791SOL    HW142814   7.758   4.989   2.844  0.3255  1.1817  0.0597
13791SOL    HW242815   7.807   5.068   2.964 -0.5458  0.8368  0.6539
13792SOL     OW42816   2.801   4.007   9.130  0.0534  0.2931  0.6115
13792SOL    HW142817   2.793   4.019   9.224 -0.3769  0.4536  0.5526
13792SOL    HW242818   2.714   3.981   9.101 -0.1317  1.4641  0.0743
13793SOL     OW42819   3.581   2.511   1.337  0.0070 -0.8783  0.6809
13793SOL    HW142820   3.512   2.576   1.352 -0.1796 -0.5496 -1.2911
13793SOL    HW242821   3.662   2.562   1.338  0.2009 -1.1651  2.3576
13794SOL     OW42822   2.816   3.776   0.123 -0.3404  0.5814 -0.1717
13794SOL    HW142823   2.825   3.870   0.112  1.2479  0.7600  2.0879
13794SOL    HW242824   2.769   3.766   0.205 -1.2446 -0.6303 -0.8005
13795SOL     OW42825   7.017   3.384   1.415  0.0724  0.3812  0.8259
13795SOL    HW142826   6.983   3.396   1.326 -0.4091 -1.5951  0.7103
13795SOL    HW242827   7.111   3.366   1.402 -0.0151  0.0062  0.7129
13796SOL     OW42828   5.846   0.849  10.796  0.0470  0.3569  0.6179
13796SOL    HW142829   5.871   0.914  10.730  2.0857 -0.5133  0.4764
13796SOL    HW242830   5.928   0.822  10.837 -0.6616 -2.3819  0.4389
13797SOL     OW42831   1.605   4.752   3.550  0.3444 -0.4105  0.4712
13797SOL    HW142832   1.647   4.739   3.635  1.4961 -0.6123 -0.0999
13797SOL    HW242833   1.678   4.755   3.488 -0.5206 -1.3692 -0.6463
13798SOL     OW42834   0.362   2.161   9.041 -0.3147  0.0947  0.7719
13798SOL    HW142835   0.399   2.095   9.100 -1.7371 -1.8908 -0.4252
13798SOL    HW242836   0.268   2.145   9.043 -0.4406  0.0990 -1.7863
13799SOL     OW42837   2.913   5.830   2.998  0.1785  0.2940 -0.2212
13799SOL    HW142838   2.872   5.756   3.044 -0.6029  0.5844 -0.4359
13799SOL    HW242839   3.000   5.799   2.975 -0.2202 -0.6367 -0.5013
13800SOL     OW42840   3.873   1.287   3.639 -0.1170 -0.0522 -0.7504
13800SOL    HW142841   3.911   1.306   3.553  0.4351 -1.6483 -0.8976
13800SOL    HW242842   3.930   1.220   3.676 -1.5791 -0.9567 -0.0492
13801SOL     OW42843   5.202   0.947   1.296 -0.4765 -0.2475  0.0074
13801SOL    HW142844   5.133   0.952   1.230 -0.3984  1.4098  0.0016
13801SOL    HW242845   5.176   0.873   1.352 -0.7249 -1.4630 -1.6333
13802SOL     OW42846   5.808   1.180   5.410 -0.2694 -0.2981  0.3043
13802SOL    HW142847   5.783   1.091   5.385 -0.2072 -0.0943 -0.5007
13802SOL    HW242848   5.777   1.235   5.339 -0.3581  0.3392  0.8232
13803SOL     OW42849   1.037   2.900   8.571  0.1274  0.5152 -0.0122
13803SOL    HW142850   1.063   2.906   8.663 -3.1451  0.5444  1.0578
13803SOL    HW242851   1.040   2.990   8.539  1.4732  0.4793 -0.0362
13804SOL     OW42852   4.270   3.422   4.554  0.9883 -0.9460  0.1170
13804SOL    HW142853   4.278   3.351   4.490  0.7790 -0.4037 -0.5239
13804SOL    HW242854   4.355   3.423   4.599  0.6645 -2.2116  0.8010
13805SOL     OW42855   2.266   7.608  12.242 -0.1555 -0.2521  0.3552
13805SOL    HW142856   2.171   7.621  12.241 -0.2004 -0.5378  0.9118
13805SOL    HW242857   2.300   7.682  12.192 -0.7286 -0.7030 -0.7269
13806SOL     OW42858   7.178   3.583   5.440 -0.0660 -0.4030  0.2336
13806SOL    HW142859   7.262   3.628   5.443 -0.7826  1.1169 -0.7803
13806SOL    HW242860   7.191   3.511   5.377 -0.1126  1.2930 -1.8367
13807SOL     OW42861   1.710   2.865   2.639 -0.3728  0.2061  0.2356
13807SOL    HW142862   1.641   2.807   2.606 -1.5875  1.0414  1.2089
13807SOL    HW242863   1.666   2.948   2.654  1.4442  1.6194 -1.6563
13808SOL     OW42864   5.317   4.410   6.619 -0.7432  0.1360 -0.0851
13808SOL    HW142865   5.295   4.491   6.666  1.2320  0.2031  0.8119
13808SOL    HW242866   5.348   4.440   6.534 -2.0342  0.1558 -0.5764
13809SOL     OW42867   4.530   7.900   3.578 -0.8973 -0.2546  0.2603
13809SOL    HW142868   4.563   7.849   3.652 -0.5955  1.0123  1.0347
13809SOL    HW242869   4.450   7.941   3.610  0.2769  1.9224  0.6408
13810SOL     OW42870   6.000   5.262   7.566 -0.3242  0.4345 -0.3905
13810SOL    HW142871   5.974   5.203   7.636 -0.4508  1.4680  0.4517
13810SOL    HW242872   5.922   5.315   7.550  0.7914  2.7536  1.3264
13811SOL     OW42873   7.779   1.920   2.637 -0.0432  0.0146  0.5632
13811SOL    HW142874   7.819   1.967   2.711 -0.7677  1.9651 -0.2114
13811SOL    HW242875   7.685   1.925   2.653 -0.1337 -2.3668  1.1013
13812SOL     OW42876   2.778   1.311   6.466  0.3653 -0.2099 -0.7112
13812SOL    HW142877   2.686   1.296   6.443  0.5962 -0.3569 -1.5654
13812SOL    HW242878   2.782   1.292   6.560 -0.2432 -1.3310 -0.8919
13813SOL     OW42879   5.853   4.602   4.773 -0.2068 -0.9498  0.0268
13813SOL    HW142880   5.912   4.600   4.697 -0.9874  0.7288 -0.6752
13813SOL    HW242881   5.777   4.550   4.747 -1.5306  1.5120 -1.3430
13814SOL     OW42882   6.576   0.164   9.157  0.2697 -0.2169  0.2272
13814SOL    HW142883   6.632   0.136   9.230 -0.8276  1.3116  1.7313
13814SOL    HW242884   6.521   0.088   9.139  2.1022 -1.4311 -0.6605
13815SOL     OW42885   1.351   2.637  10.695  0.1919 -0.4947 -0.4388
13815SOL    HW142886   1.340   2.699  10.623 -0.3332 -0.3330 -0.2318
13815SOL    HW242887   1.285   2.569  10.679  1.3457 -1.4791 -1.1391
13816SOL     OW42888   7.851   2.117   4.461  0.2869  0.1760 -0.0909
13816SOL    HW142889   7.765   2.078   4.444  0.3627 -0.2261  0.4098
13816SOL    HW242890   7.863   2.109   4.555  1.0816 -0.2154 -0.2146
13817SOL     OW42891   0.692   1.667   5.774  0.7862 -0.5285  0.1880
13817SOL    HW142892   0.641   1.605   5.827  1.2267  0.3774  1.7175
13817SOL    HW242893   0.631   1.739   5.756  0.7777 -0.6197 -0.1583
13818SOL     OW42894   7.291   3.952   4.361 -0.4787  0.3789 -0.0226
13818SOL    HW142895   7.209   3.988   4.394 -0.4687  0.5928 -0.2275
13818SOL    HW242896   7.290   3.861   4.389 -1.4292  0.0027 -1.2033
13819SOL     OW42897   4.199   3.888   8.165  0.4730  0.2081  0.3192
13819SOL    HW142898   4.152   3.931   8.094 -1.4918 -0.5256  1.1185
13819SOL    HW242899   4.138   3.822   8.198  2.9256 -2.4623 -0.1015
13820SOL     OW42900   7.972   3.204   4.182  0.4556 -0.1662 -0.3356
13820SOL    HW142901   7.882   3.237   4.175  1.2675  2.1863 -0.4438
13820SOL    HW242902   7.978   3.172   4.272  0.0700  1.6468  0.3959
13821SOL     OW42903   2.675   4.786   5.180  0.0356 -0.4444 -0.1220
13821SOL    HW142904   2.713   4.752   5.261  1.9245 -0.8133 -1.0994
13821SOL    HW242905   2.598   4.836   5.208  0.7967 -0.3356  1.9116
13822SOL     OW42906   0.162   6.944   0.832 -0.3369 -0.1490 -0.2942
13822SOL    HW142907   0.113   7.003   0.775  0.8453 -0.2750 -1.4998
13822SOL    HW242908   0.096   6.904   0.888 -1.2438  1.8584  0.1649
13823SOL     OW42909   6.341   1.395   3.986 -0.2292  0.0889 -0.2426
13823SOL    HW142910   6.396   1.323   4.017  0.2239  0.2012 -0.7722
13823SOL    HW242911   6.325   1.448   4.064  3.5018  2.1228 -0.6171
13824SOL     OW42912   4.680   4.721   7.536 -0.0371 -0.3498  0.0520
13824SOL    HW142913   4.606   4.662   7.535 -2.1036  2.0771 -1.5281
13824SOL    HW242914   4.659   4.785   7.604 -0.2018  1.2459 -1.4462
13825SOL     OW42915   5.966   2.228   5.774 -0.4567 -0.7656 -0.2037
13825SOL    HW142916   5.985   2.135   5.760  0.0814 -0.6063 -0.5665
13825SOL    HW242917   6.043   2.274   5.740 -0.8719 -0.1688 -0.3650
13826SOL     OW42918   0.234   2.828   7.158  0.1841 -0.6467  0.1754
13826SOL    HW142919   0.303   2.880   7.200  2.0060 -2.5466 -0.3312
13826SOL    HW242920   0.181   2.893   7.112  0.7411  1.0299  1.7409
13827SOL     OW42921   5.425   2.375   1.685 -0.1759  0.6224 -0.4153
13827SOL    HW142922   5.362   2.445   1.698  0.0782  1.1821 -1.9867
13827SOL    HW242923   5.469   2.397   1.603  0.6562 -0.8211 -0.3926
13828SOL     OW42924   7.910   3.334   4.449 -0.1183 -0.4325 -0.4770
13828SOL    HW142925   7.851   3.345   4.523  1.7641  0.7009  0.9622
13828SOL    HW242926   7.973   3.406   4.457  0.7945 -0.9090 -2.5661
13829SOL     OW42927   5.207   3.118   8.654 -0.1455  0.1038  0.3539
13829SOL    HW142928   5.112   3.124   8.664 -0.0182  1.1647  1.0559
13829SOL    HW242929   5.225   3.165   8.572 -0.1170  0.9296  0.8273
13830SOL     OW42930   7.035   7.306   9.523  0.1390 -0.2502 -0.3480
13830SOL    HW142931   6.990   7.222   9.530 -0.1601 -0.0213  0.5992
13830SOL    HW242932   7.104   7.302   9.590  1.6426 -0.6396 -1.8387
13831SOL     OW42933   1.156   7.340   1.796 -0.3174  0.0571  0.2023
13831SOL    HW142934   1.191   7.286   1.866 -1.0568  0.3161  0.7923
13831SOL    HW242935   1.227   7.347   1.732  0.4307 -0.0433  1.0057
13832SOL     OW42936   1.493   1.592  11.547 -0.3310  0.3657  0.1667
13832SOL    HW142937   1.522   1.647  11.475  0.3913  0.5559  0.5847
13832SOL    HW242938   1.400   1.576  11.530 -0.0760  0.0449 -1.0339
13833SOL     OW42939   7.490   5.401  10.972  0.3015 -0.0510 -0.2859
13833SOL    HW142940   7.485   5.486  10.928 -0.8542  0.6392  1.1258
13833SOL    HW242941   7.472   5.419  11.064 -2.4480 -2.0973 -0.2796
13834SOL     OW42942   4.864   6.890   8.486  0.2639 -0.0394 -0.2875
13834SOL    HW142943   4.927   6.824   8.458  0.4085 -0.9382  1.9534
13834SOL    HW242944   4.889   6.911   8.576 -0.0838  2.7444 -0.7650
13835SOL     OW42945   2.722   0.925   9.349 -0.7886  0.2564 -0.2251
13835SOL    HW142946   2.798   0.961   9.303  1.7167 -3.0441  0.9202
13835SOL    HW242947   2.711   0.982   9.425  3.2325 -1.2152  1.7351
13836SOL     OW42948   0.237   2.261   2.806  0.0540 -0.3521  0.0206
13836SOL    HW142949   0.224   2.252   2.712  1.0863  0.3013 -0.1978
13836SOL    HW242950   0.168   2.322   2.834  0.2579  0.0998 -0.4538
13837SOL     OW42951   4.397   1.165   4.855  0.8760  0.0318  0.4453
13837SOL    HW142952   4.396   1.195   4.946  1.2381 -0.1634  0.5171
13837SOL    HW242953   4.332   1.095   4.852  0.7235  0.1693  0.5061
13838SOL     OW42954   6.416   1.257   5.648 -0.1731  0.6564 -0.2225
13838SOL    HW142955   6.462   1.250   5.565  0.9336 -0.5935  0.4532
13838SOL    HW242956   6.359   1.180   5.650  1.5275 -0.6511  1.1339
13839SOL     OW42957   6.213   2.324  12.152  0.0226 -0.1388  0.6347
13839SOL    HW142958   6.286   2.385  12.143 -0.6111  0.4099 -1.4668
13839SOL    HW242959   6.245   2.242  12.114 -0.1976 -0.1186  0.3996
13840SOL     OW42960   7.552   7.909  12.174  0.1015 -0.0622  0.0317
13840SOL    HW142961   7.634   7.898  12.223  0.1598 -2.8922 -0.5052
13840SOL    HW242962   7.525   7.999  12.192  2.3941  0.4011  1.6580
13841SOL     OW42963   6.866   1.795   7.602 -0.5516 -0.0938 -0.1730
13841SOL    HW142964   6.827   1.829   7.682 -2.4675 -0.6570 -0.8093
13841SOL    HW242965   6.792   1.763   7.551  0.8552 -2.3893 -0.9418
13842SOL     OW42966   5.424   5.278   0.922  0.4937  0.0168  0.0683
13842SOL    HW142967   5.357   5.247   0.983 -0.0172 -1.0143 -0.9867
13842SOL    HW242968   5.474   5.200   0.899 -0.8400 -0.1682 -2.6646
13843SOL     OW42969   3.593   2.013   4.044 -0.5608  0.5599 -0.5455
13843SOL    HW142970   3.553   2.083   4.095 -2.2321 -0.3767 -0.4832
13843SOL    HW242971   3.680   2.001   4.082 -0.5072  2.1357 -0.1411
13844SOL     OW42972   3.399   6.664   5.717  0.2023 -0.2541  0.0363
13844SOL    HW142973   3.322   6.712   5.747  0.1103 -0.7253  0.5651
13844SOL    HW242974   3.364   6.583   5.680  0.3289  0.2239 -1.2017
13845SOL     OW42975   7.450   6.083   1.720  0.2344 -0.0815  0.2608
13845SOL    HW142976   7.531   6.098   1.672  0.4332 -0.8404  0.3439
13845SOL    HW242977   7.450   6.150   1.789  0.0437  0.8876 -0.6479
13846SOL     OW42978   1.969   5.361   3.736 -0.2448 -0.0995  0.0631
13846SOL    HW142979   1.880   5.335   3.758  0.3685 -3.4975 -0.9825
13846SOL    HW242980   2.024   5.294   3.775  1.6496  0.2615 -1.8104
13847SOL     OW42981   3.318   4.704   8.382  0.5230  0.5406  0.3074
13847SOL    HW142982   3.281   4.681   8.467 -1.4343  1.5171 -0.2394
13847SOL    HW242983   3.294   4.631   8.325  0.1274  0.8038  0.1353
13848SOL     OW42984   7.128   7.297   7.589 -0.2293 -0.5050 -0.7382
13848SOL    HW142985   7.103   7.205   7.592 -2.2904 -0.0143 -1.6979
13848SOL    HW242986   7.130   7.319   7.496 -0.3149  0.5793 -0.4998
13849SOL     OW42987   6.264   7.323  10.070  0.0137 -0.3545  0.1351
13849SOL    HW142988   6.239   7.232  10.054 -1.3872  0.2974 -1.8121
13849SOL    HW242989   6.359   7.324  10.060 -0.1315 -1.2827 -1.9658
13850SOL     OW42990   7.584   4.242   0.774  0.1538  0.0279 -0.3801
13850SOL    HW142991   7.511   4.296   0.806  0.3611  0.4994 -0.6929
13850SOL    HW242992   7.661   4.278   0.818  0.0475 -1.3235  0.9915
13851SOL     OW42993   6.406   5.458   6.959  0.0836  0.2076 -0.0282
13851SOL    HW142994   6.464   5.388   6.990 -0.5793  0.1862  1.2535
13851SOL    HW242995   6.427   5.533   7.015 -0.2567  0.5739 -0.3856
13852SOL     OW42996   0.164   7.327  10.093 -0.0468  0.1864 -0.1082
13852SOL    HW142997   0.158   7.276  10.013  2.6510 -1.4166  0.5994
13852SOL    HW242998   0.092   7.294  10.148  0.6046 -1.6868 -0.3245
13853SOL     OW42999   0.227   5.701   2.426 -0.0507  0.6044 -0.2670
13853SOL    HW143000   0.192   5.768   2.484 -0.3774 -0.2858  0.5883
13853SOL    HW243001   0.267   5.750   2.354 -0.6680  1.6971  0.1131
13854SOL     OW43002   0.633   2.279   2.448  0.0449 -0.7801 -0.2385
13854SOL    HW143003   0.556   2.335   2.463 -0.6776 -1.3346 -1.6815
13854SOL    HW243004   0.606   2.220   2.378  1.6351 -1.3288 -0.4211
13855SOL     OW43005   3.440   2.349  10.005  0.0062  0.4732  0.5785
13855SOL    HW143006   3.354   2.309  10.021  0.2831  0.6005  2.6656
13855SOL    HW243007   3.427   2.442  10.025  0.2008  0.8456 -0.9216
13856SOL     OW43008   6.960   6.621   6.978  0.2058  0.0114  0.0954
13856SOL    HW143009   6.948   6.553   7.044  0.0282  1.4090  1.5553
13856SOL    HW243010   7.048   6.655   6.994  0.3821  0.0110 -0.7768
13857SOL     OW43011   3.552   3.188  11.676  0.2067  0.4515 -0.4598
13857SOL    HW143012   3.463   3.212  11.652 -0.2744  1.7936  2.2255
13857SOL    HW243013   3.542   3.140  11.759  1.9531  0.2865 -0.3075
13858SOL     OW43014   1.229   6.931   0.899 -0.1832  0.3361  0.1485
13858SOL    HW143015   1.311   6.910   0.942 -1.7868 -1.0585  2.7851
13858SOL    HW243016   1.210   6.854   0.844 -0.2336  0.1692  0.3973
13859SOL     OW43017   3.466   1.199   2.538 -0.0261  0.1671 -0.0851
13859SOL    HW143018   3.512   1.235   2.614 -1.1132 -0.1876  0.7758
13859SOL    HW243019   3.524   1.130   2.505  0.7159  0.7052  0.0622
13860SOL     OW43020   4.146   1.969   5.733 -0.1656  0.4083 -0.3050
13860SOL    HW143021   4.116   1.980   5.823 -0.6828 -3.2913  0.1388
13860SOL    HW243022   4.197   2.048   5.714 -3.1567  3.1083  1.8128
13861SOL     OW43023   7.962   6.691   3.722 -0.1423 -0.1910 -0.0125
13861SOL    HW143024   8.023   6.617   3.729 -1.0713 -1.4121 -3.0575
13861SOL    HW243025   7.887   6.665   3.776  0.8967  0.1256  1.6408
13862SOL     OW43026   3.808   0.890   2.825  0.2246  0.5940 -0.0405
13862SOL    HW143027   3.821   0.979   2.857  1.1662 -0.6516  3.5597
13862SOL    HW243028   3.883   0.875   2.767 -0.5106  2.3856 -1.5650
13863SOL     OW43029   1.731   0.354   9.884 -0.2910 -0.3208 -0.5057
13863SOL    HW143030   1.716   0.321   9.795 -0.8612 -0.5640 -0.3301
13863SOL    HW243031   1.702   0.282   9.940 -0.9735  0.2453 -0.1179
13864SOL     OW43032   7.570   3.749   9.032 -0.2268  0.2595 -0.0059
13864SOL    HW143033   7.516   3.672   9.044  1.9098 -1.4092 -0.4041
13864SOL    HW243034   7.657   3.722   9.062  0.4095  2.8163  0.6930
13865SOL     OW43035   4.669   2.161  10.431  0.2762  0.3951 -0.1916
13865SOL    HW143036   4.765   2.159  10.423  0.3300  0.6267  0.3204
13865SOL    HW243037   4.645   2.070  10.453  0.0544 -0.4192 -3.3840
13866SOL     OW43038   0.966   5.703   8.798  0.0078 -0.2856 -0.1922
13866SOL    HW143039   0.879   5.717   8.836  0.0215  1.1478 -0.6407
13866SOL    HW243040   1.025   5.697   8.873 -0.2105  0.7725  0.0742
13867SOL     OW43041   2.064   0.522   3.606  0.4367 -0.3052  0.2319
13867SOL    HW143042   2.128   0.465   3.564  0.6866  0.0084  0.1905
13867SOL    HW243043   2.110   0.560   3.681  0.1827 -0.3783  0.4291
13868SOL     OW43044   2.004   1.997  11.483 -0.1197  0.1617  0.7842
13868SOL    HW143045   2.059   1.929  11.443 -0.9568  0.1914 -0.4709
13868SOL    HW243046   1.922   1.953  11.504 -0.1019  0.4281  1.4295
13869SOL     OW43047   2.133   7.120   7.913  0.3852 -0.8199 -0.1276
13869SOL    HW143048   2.096   7.171   7.986  1.6227  0.4007 -0.2940
13869SOL    HW243049   2.128   7.029   7.942 -1.9337 -0.6394  0.1788
13870SOL     OW43050   0.506   5.188   1.338 -0.1117  0.0884  0.1856
13870SOL    HW143051   0.542   5.161   1.254 -1.7601 -0.6549 -0.3269
13870SOL    HW243052   0.512   5.109   1.393  0.4229  0.4020  0.5902
13871SOL     OW43053   4.345   7.751   3.822 -0.7093  0.2361 -0.7983
13871SOL    HW143054   4.288   7.687   3.865 -0.6828 -0.0100 -1.1264
13871SOL    HW243055   4.289   7.828   3.811 -0.2663  0.8686  1.0786
13872SOL     OW43056   4.943   1.219  10.657  0.1883 -0.2157 -0.3640
13872SOL    HW143057   5.009   1.288  10.663 -0.0291 -0.0028 -0.3745
13872SOL    HW243058   4.977   1.148  10.711  0.2822  0.0103 -0.1257
13873SOL     OW43059   7.905   0.318   8.040 -0.1418 -0.3579 -0.2776
13873SOL    HW143060   7.814   0.300   8.064 -0.3509  2.8589  2.0005
13873SOL    HW243061   7.950   0.332   8.124  2.4119 -1.5110 -1.3562
13874SOL     OW43062   7.567   2.002   1.564 -0.2261 -0.1418  0.5857
13874SOL    HW143063   7.524   1.917   1.553  0.6796 -0.5659  0.2287
13874SOL    HW243064   7.512   2.049   1.626 -0.8852 -0.8907  0.5792
13875SOL     OW43065   7.609   4.708   4.639 -0.0553 -0.5851 -0.1890
13875SOL    HW143066   7.561   4.677   4.563 -0.6324  2.0044 -0.9936
13875SOL    HW243067   7.567   4.792   4.661  2.9160  0.9395  0.1797
13876SOL     OW43068   1.568   2.229   1.767  0.5633 -0.4483  0.8249
13876SOL    HW143069   1.595   2.321   1.759  0.7861 -0.5831 -0.0741
13876SOL    HW243070   1.637   2.189   1.819  1.4667 -0.4947 -0.3500
13877SOL     OW43071   4.945   3.242  12.059  0.3828  0.2576  0.2698
13877SOL    HW143072   4.981   3.328  12.040  0.0571  0.4163  0.3689
13877SOL    HW243073   4.853   3.258  12.081  0.4165 -0.0698  0.6700
13878SOL     OW43074   6.152   3.960   0.749 -0.2578 -0.3425 -0.4291
13878SOL    HW143075   6.185   3.873   0.724 -0.1767 -0.4510  0.0384
13878SOL    HW243076   6.099   3.943   0.827  0.0714  0.0811 -0.1092
13879SOL     OW43077   6.247   5.164   8.339 -0.0199  0.1913 -0.0401
13879SOL    HW143078   6.261   5.095   8.274 -0.1945  1.6975 -1.7339
13879SOL    HW243079   6.155   5.190   8.328 -0.0054  0.6055  0.6986
13880SOL     OW43080   4.704   7.591   8.936  0.2989 -0.6306 -0.1782
13880SOL    HW143081   4.739   7.676   8.960  1.0189 -0.6752 -1.0552
13880SOL    HW243082   4.738   7.573   8.849 -2.5553 -0.3225 -1.4739
13881SOL     OW43083   3.668   1.330   7.187  0.1212  0.3914  0.2393
13881SOL    HW143084   3.733   1.399   7.199  0.2553  0.6511 -1.6954
13881SOL    HW243085   3.669   1.312   7.093 -1.5401 -0.6557  0.3838
13882SOL     OW43086   0.530   2.760   0.294  0.2415 -0.0904 -0.2218
13882SOL    HW143087   0.517   2.810   0.374 -0.4699  1.0555 -1.0235
13882SOL    HW243088   0.513   2.822   0.223 -1.2231 -1.5752 -1.2643
13883SOL     OW43089   3.583   6.076   0.846 -0.1084 -0.3517  0.2500
13883SOL    HW143090   3.503   6.117   0.878 -0.5188 -1.8955  1.2987
13883SOL    HW243091   3.651   6.141   0.860 -1.2381  1.2494 -1.2639
13884SOL     OW43092   1.948   3.587  10.459 -0.0417 -0.0085  0.2473
13884SOL    HW143093   1.952   3.578  10.554 -0.9638  0.0103  0.3015
13884SOL    HW243094   2.031   3.627  10.435 -0.3178  1.1767  1.1823
13885SOL     OW43095   1.549   2.383   8.626 -0.0075  0.2179 -0.2592
13885SOL    HW143096   1.531   2.462   8.575 -1.2765  0.2778  0.2404
13885SOL    HW243097   1.462   2.345   8.641  0.5215 -0.8164  0.2251
13886SOL     OW43098   0.438   2.488   2.078 -0.3883  0.2429  0.0587
13886SOL    HW143099   0.491   2.547   2.132 -1.4673  1.1350  0.1755
13886SOL    HW243100   0.501   2.428   2.039  0.3582 -0.9961  2.9761
13887SOL     OW43101   4.629   7.077   3.577 -0.5499 -0.5760  0.5622
13887SOL    HW143102   4.699   7.038   3.525 -1.1992  0.8707 -1.5328
13887SOL    HW243103   4.559   7.095   3.514 -2.0906 -0.2892  2.2599
13888SOL     OW43104   2.211   6.667   9.025 -0.6108  0.0279  0.4564
13888SOL    HW143105   2.205   6.657   8.930  1.0223  1.3886  0.1664
13888SOL    HW243106   2.120   6.680   9.053 -1.1143 -0.4148 -0.9031
13889SOL     OW43107   3.962   3.800   5.248 -0.3758 -0.0159  0.2087
13889SOL    HW143108   3.918   3.717   5.230  1.0669 -0.9030  0.5884
13889SOL    HW243109   4.047   3.775   5.284  0.3791  1.6183 -0.3151
13890SOL     OW43110   6.266   5.761   4.224 -0.4939  0.2840 -0.1874
13890SOL    HW143111   6.301   5.751   4.312  1.1240  1.1750 -0.6965
13890SOL    HW243112   6.234   5.674   4.201 -0.4653 -0.0741  1.0760
13891SOL     OW43113   0.633   7.605   5.721 -0.0699  0.2116  0.7725
13891SOL    HW143114   0.590   7.585   5.805 -0.6950  0.9891  0.6461
13891SOL    HW243115   0.561   7.621   5.661  0.3894  0.1419  0.1956
13892SOL     OW43116   0.583   7.451   7.916  0.1668  0.1360  0.1405
13892SOL    HW143117   0.585   7.530   7.862  0.2213  0.2784  0.3517
13892SOL    HW243118   0.562   7.380   7.854 -0.2897  0.3731  0.0244
13893SOL     OW43119   0.542   6.758  11.994 -0.5020 -0.6637 -0.0125
13893SOL    HW143120   0.516   6.850  11.991 -0.4429 -0.5309  2.2492
13893SOL    HW243121   0.605   6.748  11.923 -2.4588  0.3708 -2.0149
13894SOL     OW43122   7.553   5.221   8.558 -0.3397  0.4848 -0.5227
13894SOL    HW143123   7.461   5.210   8.581 -1.0163  1.3140 -2.6132
13894SOL    HW243124   7.589   5.132   8.559 -1.0299  0.1948  0.7047
13895SOL     OW43125   5.713   4.885  12.010 -0.1680  0.2636 -0.4599
13895SOL    HW143126   5.643   4.822  11.993  0.6864 -0.7010 -0.4929
13895SOL    HW243127   5.749   4.859  12.095 -0.7223  1.5971  0.2096
13896SOL     OW43128   2.708   0.229   2.186 -0.0974  0.1816 -0.2375
13896SOL    HW143129   2.614   0.212   2.198  0.2342 -0.0011  2.9263
13896SOL    HW243130   2.711   0.315   2.144 -1.7544  1.6705  2.4141
13897SOL     OW43131   0.867   4.107   0.539  0.5692 -0.0423 -0.6253
13897SOL    HW143132   0.961   4.119   0.524  0.5158  0.5520 -0.4987
13897SOL    HW243133   0.824   4.171   0.483  0.2844  0.4680  0.1595
13898SOL     OW43134   6.571   4.549   1.439  0.3021  0.1103  0.2692
13898SOL    HW143135   6.656   4.591   1.455  1.8298 -2.3197 -0.8167
13898SOL    HW243136   6.577   4.517   1.349 -1.2276 -1.2605  0.6094
13899SOL     OW43137   5.248   4.987   0.894 -0.7206  0.1198 -0.2352
13899SOL    HW143138   5.333   4.973   0.852 -0.9860 -0.6886 -0.5268
13899SOL    HW243139   5.189   5.011   0.822 -1.1180 -1.0070 -0.2957
13900SOL     OW43140   2.497   6.961   9.864 -0.0510  0.6007 -0.2896
13900SOL    HW143141   2.528   7.012   9.939  0.1041  1.0254 -0.6338
13900SOL    HW243142   2.521   6.871   9.884 -0.6435  0.5988  0.4974
13901SOL     OW43143   5.495   7.075   1.420 -0.0538 -0.4964  0.2469
13901SOL    HW143144   5.583   7.047   1.445 -0.3970 -0.3744  1.6740
13901SOL    HW243145   5.500   7.171   1.417  0.2001 -0.5292 -1.0759
13902SOL     OW43146   2.450   6.131  12.220 -0.6304  0.4461  0.0424
13902SOL    HW143147   2.382   6.164  12.161  0.0246 -1.2810 -1.8021
13902SOL    HW243148   2.496   6.209  12.249 -1.5968  1.4299 -0.9689
13903SOL     OW43149   2.002   1.715   4.164  0.3620 -0.2911  0.2653
13903SOL    HW143150   2.016   1.726   4.070 -0.0209 -2.3910 -0.1049
13903SOL    HW243151   1.959   1.629   4.172  2.4138 -1.2423  2.5024
13904SOL     OW43152   6.733   4.753   2.239 -0.2984  0.0019  0.0830
13904SOL    HW143153   6.765   4.681   2.292 -1.8266 -1.0524 -0.3469
13904SOL    HW243154   6.668   4.797   2.294 -2.1677 -1.3226 -0.9426
13905SOL     OW43155   2.533   6.309   9.610  0.1438  0.3585  0.1258
13905SOL    HW143156   2.464   6.302   9.676  0.1789  1.8037  0.3585
13905SOL    HW243157   2.614   6.295   9.657  0.1988  1.8171  0.5078
13906SOL     OW43158   4.932   1.907   0.798 -0.2727  0.3325 -0.1389
13906SOL    HW143159   4.977   1.846   0.740 -2.9342 -1.5832 -0.3484
13906SOL    HW243160   4.979   1.900   0.882 -0.0213 -1.3976 -0.3927
13907SOL     OW43161   6.489   3.596   3.307 -0.2406  0.1980 -0.1585
13907SOL    HW143162   6.398   3.588   3.336 -0.4962  0.8320 -0.7675
13907SOL    HW243163   6.519   3.505   3.299 -0.8738 -0.0206 -0.1263
13908SOL     OW43164   7.250   0.203  10.698 -0.4168  0.0270  0.2287
13908SOL    HW143165   7.295   0.168  10.775  0.1744  1.0058  0.3562
13908SOL    HW243166   7.305   0.177  10.625  1.1203  2.2554  0.4839
13909SOL     OW43167   0.430   6.475   7.833  0.2441  0.2355 -0.0757
13909SOL    HW143168   0.472   6.474   7.918 -0.6759 -0.3095  0.3978
13909SOL    HW243169   0.457   6.392   7.792  1.2357  0.8068 -0.6116
13910SOL     OW43170   0.711   2.764   3.777 -0.4836  0.6521  0.1842
13910SOL    HW143171   0.660   2.817   3.717  1.1820  2.0249 -0.0926
13910SOL    HW243172   0.742   2.690   3.723 -2.7022 -0.6384  0.5439
13911SOL     OW43173   4.729   3.066   5.526  0.4141 -0.8910 -0.3710
13911SOL    HW143174   4.781   3.108   5.595 -1.9194  1.1129  0.2684
13911SOL    HW243175   4.640   3.063   5.561 -0.3003 -2.5676 -2.1490
13912SOL     OW43176   7.629   5.427  12.300  0.0936 -0.0224  0.2117
13912SOL    HW143177   7.560   5.405  12.363 -1.5287  0.3206 -1.3737
13912SOL    HW243178   7.700   5.461  12.354 -0.7344 -0.8961  1.9589
13913SOL     OW43179   0.283   4.063  10.027 -0.1915 -0.1252 -0.1816
13913SOL    HW143180   0.224   4.085   9.955 -0.1534  0.8648  0.0683
13913SOL    HW243181   0.253   4.118  10.100  0.7057  0.0127  0.1018
13914SOL     OW43182   1.953   7.746  10.686 -0.0506 -0.0108  0.3449
13914SOL    HW143183   1.939   7.802  10.610  3.4126  1.8426  0.8699
13914SOL    HW243184   1.995   7.668  10.651  0.8289  0.4973  0.2571
13915SOL     OW43185   2.097   7.885   7.805 -0.1418 -0.3584 -0.1132
13915SOL    HW143186   2.028   7.903   7.869  0.4379 -1.6745  0.9521
13915SOL    HW243187   2.149   7.816   7.846  1.1720 -0.1497 -1.3586
13916SOL     OW43188   1.154   1.970   3.671 -0.2421  0.1760 -0.2918
13916SOL    HW143189   1.147   2.065   3.673 -0.3239  0.1673 -0.1810
13916SOL    HW243190   1.184   1.950   3.582  1.0105  0.3857  0.0642
13917SOL     OW43191   7.172   7.949   6.302  0.3605  0.5427  0.1288
13917SOL    HW143192   7.241   7.921   6.361  0.2054  0.5088  0.2936
13917SOL    HW243193   7.143   8.033   6.337 -1.2905 -0.5040  1.4460
13918SOL     OW43194   1.356   2.501   1.766 -0.0678 -0.1074  0.4227
13918SOL    HW143195   1.438   2.550   1.770  0.7756 -1.5194  0.9446
13918SOL    HW243196   1.376   2.416   1.802 -1.5873 -0.7642 -0.1616
13919SOL     OW43197   6.244   3.095   3.109  0.5715  0.1615 -0.3869
13919SOL    HW143198   6.270   3.126   3.196  0.9572 -1.0304 -0.0611
13919SOL    HW243199   6.233   3.175   3.058 -0.8732  0.9640  1.0822
13920SOL     OW43200   5.064   0.316   2.135  0.4040 -0.3073 -0.0763
13920SOL    HW143201   5.009   0.318   2.213 -1.1131 -0.2614 -1.1075
13920SOL    HW243202   5.086   0.408   2.119 -0.6850 -0.1285 -0.6340
13921SOL     OW43203   2.137   7.963   4.173 -0.1902  0.2218 -0.0318
13921SOL    HW143204   2.227   7.972   4.205 -0.5641  0.8080  0.8761
13921SOL    HW243205   2.082   7.989   4.247 -1.1054  0.2213 -0.6967
13922SOL     OW43206   5.591   5.385   7.306  0.4426 -0.0245  0.4168
13922SOL    HW143207   5.536   5.446   7.355  0.9966 -0.1991  1.2840
13922SOL    HW243208   5.534   5.311   7.286  0.4254 -0.3180  1.5291
13923SOL     OW43209   0.083   5.212   5.744  0.2490 -0.3266 -0.1711
13923SOL    HW143210   0.123   5.214   5.830  0.9349 -1.8108 -0.4274
13923SOL    HW243211   0.020   5.285   5.745  0.9665  0.3123  1.1967
13924SOL     OW43212   2.329   1.523   2.708  0.0501  0.2278 -0.4010
13924SOL    HW143213   2.337   1.588   2.638  0.1449 -0.1641 -0.7577
13924SOL    HW243214   2.237   1.525   2.733  0.1998  1.0390  0.1154
13925SOL     OW43215   6.434   2.756   3.401 -0.1106  0.4066  0.3229
13925SOL    HW143216   6.470   2.842   3.377  0.0177  0.4202  0.5661
13925SOL    HW243217   6.343   2.760   3.373 -0.4091  1.0298  1.3354
13926SOL     OW43218   5.450   0.008   4.335 -0.1206  0.6017 -0.7577
13926SOL    HW143219   5.378   0.056   4.375 -0.1330 -0.0920  0.0906
13926SOL    HW243220   5.412  -0.030   4.255 -1.5500 -1.9479  0.9596
13927SOL     OW43221   5.221   2.163   4.855 -0.0426 -0.2191 -0.4043
13927SOL    HW143222   5.197   2.089   4.910  1.4235 -0.1390  0.3845
13927SOL    HW243223   5.303   2.137   4.814 -0.2206  0.4263 -1.2090
13928SOL     OW43224   5.408   4.342   7.454  0.4048 -0.1214 -0.1551
13928SOL    HW143225   5.384   4.421   7.405  0.8603  0.0937 -0.0381
13928SOL    HW243226   5.353   4.273   7.416  0.3712  0.1487 -0.6077
13929SOL     OW43227   5.854   1.902   4.607 -0.3245  0.0845  0.0082
13929SOL    HW143228   5.770   1.904   4.652  0.1311  2.8282  0.8957
13929SOL    HW243229   5.904   1.834   4.653 -0.8791  0.8259  1.7706
13930SOL     OW43230   4.116   7.316   6.741 -0.1996 -0.4805  0.8456
13930SOL    HW143231   4.035   7.347   6.782 -0.1114 -0.6309  1.1389
13930SOL    HW243232   4.096   7.312   6.647 -0.4403 -0.2444  0.8878
13931SOL     OW43233   6.918   4.645   1.214 -0.3110  0.0209 -0.0451
13931SOL    HW143234   6.905   4.731   1.253  0.4603 -0.0427  0.3793
13931SOL    HW243235   6.840   4.631   1.160 -1.5794 -0.0414  1.7285
13932SOL     OW43236   5.910   6.589   4.810 -0.2585 -0.0342  0.4571
13932SOL    HW143237   5.830   6.537   4.803  0.4854 -1.1813  0.3061
13932SOL    HW243238   5.903   6.652   4.738 -0.4325 -0.9621 -0.3576
13933SOL     OW43239   3.225   6.570   8.500 -0.3345  0.4722 -0.0936
13933SOL    HW143240   3.175   6.490   8.484 -0.7126  0.9605 -1.5019
13933SOL    HW243241   3.290   6.572   8.429  2.5975 -0.7674  2.3390
13934SOL     OW43242   4.812   6.211   0.923  0.5712 -0.3457  0.2006
13934SOL    HW143243   4.782   6.123   0.900 -0.1975 -0.4410  1.4753
13934SOL    HW243244   4.735   6.267   0.910  0.8445  0.0181  0.1149
13935SOL     OW43245   3.808   4.082   9.389  0.3175 -0.1420 -0.3357
13935SOL    HW143246   3.797   3.988   9.376 -0.2595 -0.2392  0.8109
13935SOL    HW243247   3.719   4.117   9.394  0.5241  0.3644 -0.0901
13936SOL     OW43248   7.909   7.737   7.069  0.1608  0.1386  0.0636
13936SOL    HW143249   7.867   7.753   7.153  0.3633  2.3789 -0.1995
13936SOL    HW243250   7.853   7.673   7.026 -0.7255  0.0347  1.3123
13937SOL     OW43251   7.066   4.755   7.535  0.0374  0.5880 -0.1929
13937SOL    HW143252   7.099   4.821   7.475 -0.2843  0.5309 -0.4357
13937SOL    HW243253   7.036   4.804   7.611 -2.6189  1.0174 -1.4116
13938SOL     OW43254   5.192   4.588  11.940  0.6264 -0.7609 -0.2187
13938SOL    HW143255   5.132   4.514  11.947 -0.6365  0.3494  1.0229
13938SOL    HW243256   5.231   4.579  11.853 -0.8799 -1.8473 -0.8115
13939SOL     OW43257   3.403   0.063  10.478 -0.3514 -0.2792 -0.1702
13939SOL    HW143258   3.385   0.024  10.392 -1.4296 -1.5857  0.6137
13939SOL    HW243259   3.423  -0.012  10.534  1.4050  0.6504  0.4980
13940SOL     OW43260   5.966   2.065  10.646  0.2425  0.2049 -0.2598
13940SOL    HW143261   5.984   2.084  10.739 -0.0829 -0.5304 -0.0355
13940SOL    HW243262   5.870   2.060  10.642  0.2840 -0.4158 -0.4977
13941SOL     OW43263   3.279   2.962   2.761 -0.0701 -0.2711  0.8941
13941SOL    HW143264   3.188   2.985   2.744  0.1760  0.7966  0.9338
13941SOL    HW243265   3.299   3.003   2.845  0.0777 -1.6035  1.5405
13942SOL     OW43266   0.801   6.113  11.587 -0.7585 -0.0297  0.4801
13942SOL    HW143267   0.739   6.043  11.567 -0.3770 -1.0592  2.6073
13942SOL    HW243268   0.885   6.081  11.555 -0.8663  0.2443 -0.0978
13943SOL     OW43269   7.424   2.192   8.117 -0.4108  0.1612 -0.1218
13943SOL    HW143270   7.466   2.231   8.040 -0.0119 -1.8455 -0.9919
13943SOL    HW243271   7.334   2.224   8.114 -0.2034  0.7005 -0.9917
13944SOL     OW43272   4.274   0.031   4.374  0.0756  0.3471  0.3212
13944SOL    HW143273   4.224  -0.044   4.344  0.0785  0.6067 -0.3577
13944SOL    HW243274   4.213   0.082   4.427  0.0881 -0.1494  0.8200
13945SOL     OW43275   0.270   1.514   1.273  0.3461 -0.1027  0.3151
13945SOL    HW143276   0.184   1.555   1.273 -0.2713 -1.1587 -2.2326
13945SOL    HW243277   0.270   1.458   1.350 -1.5398 -0.5818  0.0204
13946SOL     OW43278   6.659   7.009   5.107 -0.2570  0.4843  1.0864
13946SOL    HW143279   6.701   7.086   5.069 -1.1206  0.0809 -0.8036
13946SOL    HW243280   6.731   6.952   5.132  0.3701  0.5826 -0.4119
13947SOL     OW43281   5.845   2.084   2.136  0.4845  0.0659 -0.2780
13947SOL    HW143282   5.924   2.139   2.139  0.3456  0.2229  0.6271
13947SOL    HW243283   5.858   2.018   2.204 -0.0622 -0.0634 -0.2916
13948SOL     OW43284   1.796   0.320  10.529 -0.0440  0.0961  0.4339
13948SOL    HW143285   1.783   0.315  10.434  2.7237  1.2958 -0.0901
13948SOL    HW243286   1.798   0.228  10.557  3.1963 -0.5413 -1.3982
13949SOL     OW43287   1.616   1.167   2.413 -0.5324 -0.2536  0.1978
13949SOL    HW143288   1.562   1.093   2.386  1.5083 -2.0103  0.7072
13949SOL    HW243289   1.703   1.130   2.425  1.0872  2.6437 -1.5936
13950SOL     OW43290   7.107   3.691   2.779 -0.3752 -0.2799 -0.0678
13950SOL    HW143291   7.040   3.758   2.790 -0.3725 -0.4979  1.6378
13950SOL    HW243292   7.183   3.724   2.828  1.1029  0.3140 -2.5529
13951SOL     OW43293   6.067   4.326   7.647 -0.0006  0.4249  0.2246
13951SOL    HW143294   5.978   4.312   7.679  0.4513 -2.1623  0.5999
13951SOL    HW243295   6.059   4.318   7.552 -0.2327  0.6505  0.2231
13952SOL     OW43296   3.685   2.952  10.155  0.0455 -0.2010 -0.1965
13952SOL    HW143297   3.728   2.867  10.168  1.1584  0.3586 -0.1280
13952SOL    HW243298   3.739   2.997  10.090 -0.1670  0.6903  0.2265
13953SOL     OW43299   6.570   1.987   7.414  0.2375  0.2254 -0.0100
13953SOL    HW143300   6.614   1.903   7.432  0.8367  0.1378 -1.6227
13953SOL    HW243301   6.567   2.031   7.498  0.1328 -1.3147  0.8413
13954SOL     OW43302   3.757   6.383   0.590  0.1783 -0.2491 -0.2456
13954SOL    HW143303   3.734   6.327   0.516 -2.3487 -1.9991  1.6575
13954SOL    HW243304   3.706   6.463   0.577 -0.2295 -0.5373 -0.4397
13955SOL     OW43305   3.116   6.259   0.790 -0.4381  0.5995  0.4770
13955SOL    HW143306   3.137   6.352   0.805  0.5473  0.5897 -0.7239
13955SOL    HW243307   3.021   6.255   0.804 -0.2294  1.3421  2.5997
13956SOL     OW43308   1.777   6.224   9.808 -0.2978  0.2672  0.2097
13956SOL    HW143309   1.857   6.248   9.761 -0.2958  1.6163  0.8619
13956SOL    HW243310   1.710   6.219   9.740 -0.6550  3.7848  0.1139
13957SOL     OW43311   5.729   5.590   4.244 -0.2074  0.4919 -0.0070
13957SOL    HW143312   5.778   5.520   4.201 -0.6037  1.2308 -1.7298
13957SOL    HW243313   5.665   5.618   4.179 -1.5580  0.9400  1.4663
13958SOL     OW43314   7.188   4.948   3.408 -0.4004  0.4840 -0.5136
13958SOL    HW143315   7.145   4.864   3.424  1.5320 -0.2707  1.3265
13958SOL    HW243316   7.239   4.935   3.328 -0.8332  0.2129 -0.7448
13959SOL     OW43317   4.327   1.447  11.601 -0.1493  0.5103 -0.0043
13959SOL    HW143318   4.236   1.443  11.573  0.0791 -0.2674 -0.6880
13959SOL    HW243319   4.351   1.539  11.590 -0.5142  0.5055 -0.9817
13960SOL     OW43320   0.552   2.063   2.598 -0.8665  0.1715  0.3895
13960SOL    HW143321   0.588   2.140   2.554 -0.7616 -0.8545 -1.4060
13960SOL    HW243322   0.602   2.057   2.680  0.8830  0.5764 -0.6020
13961SOL     OW43323   3.545   5.455   9.508  0.0262 -0.1274  0.6256
13961SOL    HW143324   3.596   5.387   9.464 -2.0858 -1.7315  0.4505
13961SOL    HW243325   3.601   5.533   9.506  1.0751 -0.8061 -2.5814
13962SOL     OW43326   4.195   6.668  10.030  0.4550 -0.3978 -0.3138
13962SOL    HW143327   4.105   6.687  10.058  0.1852 -1.0682 -0.7040
13962SOL    HW243328   4.196   6.694   9.937  0.6696 -0.3868 -0.3074
13963SOL     OW43329   1.531   5.846  11.224  0.5131 -0.2756  0.4590
13963SOL    HW143330   1.435   5.842  11.228  0.5055 -1.6143 -0.4196
13963SOL    HW243331   1.550   5.935  11.196 -0.4540  0.1385  1.0575
13964SOL     OW43332   3.291   3.027   1.435 -0.1018 -0.2945  0.1241
13964SOL    HW143333   3.309   2.934   1.416  0.1290 -0.0590 -0.8717
13964SOL    HW243334   3.376   3.062   1.461  0.4982  0.2856 -2.3468
13965SOL     OW43335   7.564   1.154   8.749  0.2695  0.0194 -0.0701
13965SOL    HW143336   7.513   1.133   8.671  2.1509 -0.0485 -1.3663
13965SOL    HW243337   7.586   1.247   8.738  0.8801 -0.0931  0.1443
13966SOL     OW43338   1.507   3.478   8.927 -0.0221  0.4167 -0.1751
13966SOL    HW143339   1.455   3.480   9.007 -1.3615 -0.7404 -0.9833
13966SOL    HW243340   1.551   3.563   8.925 -0.2531  0.6215  1.5691
13967SOL     OW43341   2.389   3.222   8.346 -0.2143 -0.2411 -0.9581
13967SOL    HW143342   2.415   3.218   8.254  1.0728  0.1074 -0.6337
13967SOL    HW243343   2.400   3.132   8.378  2.1177  0.1622 -0.4657
13968SOL     OW43344   7.632   7.371   5.128 -0.3111 -0.5440 -0.3312
13968SOL    HW143345   7.587   7.440   5.176 -2.1508 -0.2338 -2.3587
13968SOL    HW243346   7.649   7.303   5.194 -0.6178  0.7977  1.1971
13969SOL     OW43347   4.600   0.700   1.416 -0.4159 -0.0317 -0.6130
13969SOL    HW143348   4.562   0.776   1.372 -0.2040  0.2946 -0.2434
13969SOL    HW243349   4.534   0.674   1.480  0.1647  0.8536  0.3884
13970SOL     OW43350   6.674   4.524   9.443  0.3641 -0.1872 -0.3628
13970SOL    HW143351   6.684   4.617   9.424  0.8074 -0.3724 -1.0915
13970SOL    HW243352   6.742   4.481   9.390  0.4738 -0.8823  0.3238
13971SOL     OW43353   1.062   0.489   3.021  0.0340 -0.3171 -0.2938
13971SOL    HW143354   1.115   0.557   3.063 -0.6333 -1.3637  2.4962
13971SOL    HW243355   0.989   0.536   2.980 -0.9517  0.7026  2.4067
13972SOL     OW43356   3.219   1.766   5.765 -0.0675 -0.2990 -0.7874
13972SOL    HW143357   3.186   1.693   5.712 -1.7687 -1.1554  1.2832
13972SOL    HW243358   3.244   1.725   5.848 -0.4245  1.3684  0.1798
13973SOL     OW43359   0.881   4.900   4.645  0.1003  0.8302 -0.1132
13973SOL    HW143360   0.889   4.929   4.736 -0.7295  1.1584 -0.1347
13973SOL    HW243361   0.788   4.878   4.635 -0.0801  1.9910 -1.2230
13974SOL     OW43362   6.989   7.136   5.806  0.0572  0.2474 -0.6936
13974SOL    HW143363   6.985   7.071   5.876  0.1142  1.0612  0.0884
13974SOL    HW243364   6.905   7.128   5.761 -1.1216  1.4675  1.1280
13975SOL     OW43365   3.740   6.461   7.009 -0.2427 -0.4413 -0.1528
13975SOL    HW143366   3.710   6.381   6.966 -0.6237 -0.1965 -0.3466
13975SOL    HW243367   3.770   6.432   7.095 -0.4212 -0.7835 -0.2041
13976SOL     OW43368   3.732   3.124  10.427  0.1861  0.2899 -0.2463
13976SOL    HW143369   3.693   3.081  10.350 -0.1219  0.3381 -0.1198
13976SOL    HW243370   3.746   3.214  10.400  1.4224 -0.0261 -0.7257
13977SOL     OW43371   3.673   3.915   0.884  0.4952  0.4782 -0.5034
13977SOL    HW143372   3.717   3.994   0.853  0.4710  1.7719  2.3696
13977SOL    HW243373   3.643   3.938   0.972 -0.9957 -2.2202 -0.1983
13978SOL     OW43374   5.115   1.535   0.561 -0.4560  0.1511 -0.1387
13978SOL    HW143375   5.112   1.449   0.519  2.4709  0.2621 -0.7648
13978SOL    HW243376   5.205   1.544   0.593 -1.1244  2.3168  1.4073
13979SOL     OW43377   6.317   5.127  12.336 -0.0166  0.1877  0.2341
13979SOL    HW143378   6.328   5.090  12.424  0.6461  2.1152  1.0093
13979SOL    HW243379   6.404   5.125  12.297 -0.1294  0.2265 -0.0248
13980SOL     OW43380   2.461   7.589  11.268 -0.3529  0.1369 -0.5248
13980SOL    HW143381   2.463   7.661  11.330 -1.5924 -0.2104 -0.0503
13980SOL    HW243382   2.553   7.567  11.254  0.0264  1.5310 -0.3720
13981SOL     OW43383   0.724   0.551   8.667 -0.2626  0.2163  0.6250
13981SOL    HW143384   0.674   0.625   8.702 -0.0776  0.3315  0.6481
13981SOL    HW243385   0.814   0.582   8.665 -0.1576 -0.0750  0.8126
13982SOL     OW43386   1.634   4.703   7.504 -0.3452 -0.4764 -0.1759
13982SOL    HW143387   1.575   4.778   7.496  0.6457  0.4383  0.6392
13982SOL    HW243388   1.583   4.628   7.475 -2.2050  0.1334  1.3091
13983SOL     OW43389   6.772   0.158   3.108 -0.8239 -0.0570 -0.1104
13983SOL    HW143390   6.737   0.169   3.197 -0.4138 -0.0394  0.0525
13983SOL    HW243391   6.716   0.091   3.068 -1.6615  0.6799 -0.1976
13984SOL     OW43392   0.651   6.559   2.387  0.6285  0.0539  0.2658
13984SOL    HW143393   0.652   6.651   2.414 -0.4936 -0.2775  1.5999
13984SOL    HW243394   0.598   6.557   2.308 -0.1305  0.4496  0.7541
13985SOL     OW43395   2.283   2.951  11.642 -0.1243 -0.3938 -0.0595
13985SOL    HW143396   2.322   2.867  11.666 -1.5750 -1.0060  0.2610
13985SOL    HW243397   2.356   3.012  11.639  1.3362 -2.0957 -2.4417
13986SOL     OW43398   5.363   5.861   2.354  0.2945 -0.5341  0.9060
13986SOL    HW143399   5.283   5.902   2.387  0.2737 -0.4706  0.7778
13986SOL    HW243400   5.363   5.774   2.393 -0.8296 -1.2589 -0.6014
13987SOL     OW43401   0.147   6.972   0.009  0.0860 -0.2700  0.0121
13987SOL    HW143402   0.059   6.946   0.038 -0.1034 -1.1775 -1.2615
13987SOL    HW243403   0.132   7.020  -0.072  0.7819 -0.9499 -0.5343
13988SOL     OW43404   4.846   2.674   8.767 -0.4285 -0.4648 -0.2168
13988SOL    HW143405   4.807   2.600   8.813 -0.1981 -0.9377 -0.7670
13988SOL    HW243406   4.783   2.695   8.698 -0.7678  0.2352  0.2977
13989SOL     OW43407   0.722   3.539   7.972  0.2056 -0.0450 -0.2845
13989SOL    HW143408   0.723   3.450   7.935 -0.2855  0.5704 -1.8860
13989SOL    HW243409   0.649   3.582   7.927  0.0992  1.0245  0.8652
13990SOL     OW43410   5.229   1.534   0.258 -0.1769 -0.0652  0.2781
13990SOL    HW143411   5.324   1.532   0.247 -0.1145 -0.4420  0.8353
13990SOL    HW243412   5.216   1.526   0.352 -0.7503  0.5606  0.2635
13991SOL     OW43413   0.787   3.635   1.778  0.3166  0.0223 -0.1019
13991SOL    HW143414   0.720   3.633   1.709  1.4812 -2.9257 -1.3329
13991SOL    HW243415   0.757   3.570   1.841  1.2190 -0.1788  0.1324
13992SOL     OW43416   5.041   7.676   8.208 -0.5909  0.0759  0.4823
13992SOL    HW143417   4.980   7.656   8.136  1.4555  0.8126 -1.5882
13992SOL    HW243418   5.114   7.615   8.194  0.8155  1.6830  0.5894
13993SOL     OW43419   4.768   6.142   4.890  0.5582  0.8674  0.5740
13993SOL    HW143420   4.781   6.199   4.966 -0.3211  3.5609 -1.1618
13993SOL    HW243421   4.675   6.118   4.893  0.5860  0.7438  0.4766
13994SOL     OW43422   0.024   4.293   1.325  0.0164  0.4521 -0.5948
13994SOL    HW143423   0.092   4.361   1.323 -0.4761  0.9592 -0.4337
13994SOL    HW243424   0.026   4.261   1.415  0.4212  0.0731 -0.7372
13995SOL     OW43425   2.005   2.428   9.677 -0.4207 -0.3238 -0.2395
13995SOL    HW143426   2.076   2.368   9.655  0.2056  0.1632  0.4060
13995SOL    HW243427   1.970   2.394   9.759  1.2591  1.2664  1.2387
13996SOL     OW43428   6.496   2.810  10.639  0.0217  0.0318  0.2972
13996SOL    HW143429   6.432   2.777  10.576 -0.3170  1.0433  0.0921
13996SOL    HW243430   6.468   2.773  10.723  0.3576 -1.1590 -0.0889
13997SOL     OW43431   7.105   7.298   7.293 -0.1362 -0.1732 -0.0430
13997SOL    HW143432   7.025   7.300   7.240  0.9449 -0.0967 -1.7652
13997SOL    HW243433   7.174   7.277   7.230  1.0595 -1.3168  1.5920
13998SOL     OW43434   7.318   3.761   2.362 -0.1034 -0.3412  0.1008
13998SOL    HW143435   7.223   3.762   2.372 -0.2593  0.0515 -1.3152
13998SOL    HW243436   7.344   3.675   2.397 -1.1817 -1.1999 -1.1198
13999SOL     OW43437   7.519   7.734   8.053  0.1671  0.1695  0.2619
13999SOL    HW143438   7.604   7.691   8.047 -0.3475 -1.0862  1.4128
13999SOL    HW243439   7.475   7.714   7.970  0.4417 -0.3858  0.2532
14000SOL     OW43440   4.934   1.389   0.972  0.5924  0.4057  0.2166
14000SOL    HW143441   4.862   1.331   0.997  0.0763  0.2892 -1.4563
14000SOL    HW243442   5.009   1.330   0.961  0.7164  0.4044  1.0175
14001SOL     OW43443   5.909   0.509   6.483  0.1691  0.2952 -0.6195
14001SOL    HW143444   5.888   0.436   6.425  0.6057  0.0674 -0.4961
14001SOL    HW243445   6.001   0.497   6.504 -0.0292  0.2773  0.2666
14002SOL     OW43446   2.045   4.989   9.171  0.2803 -0.2760  0.1870
14002SOL    HW143447   1.972   4.952   9.122  0.8844  0.7868 -1.6107
14002SOL    HW243448   2.048   4.938   9.252 -2.6321 -0.1424  0.4872
14003SOL     OW43449   7.700   5.113   4.366  0.5477  0.1254  0.9338
14003SOL    HW143450   7.647   5.151   4.296  0.9530  0.9649  1.0747
14003SOL    HW243451   7.775   5.073   4.322 -1.4948 -3.6385  0.4006
14004SOL     OW43452   5.609   4.558   8.210 -0.3798  0.5832 -0.0784
14004SOL    HW143453   5.689   4.545   8.262 -0.0259  0.6855 -0.5975
14004SOL    HW243454   5.548   4.493   8.246 -0.1608  0.6910  0.5095
14005SOL     OW43455   7.261   0.134   8.263  0.6661  0.5834  0.2955
14005SOL    HW143456   7.264   0.146   8.168 -0.6106 -2.3411 -0.2350
14005SOL    HW243457   7.347   0.164   8.293  0.5545  3.0284 -1.5038
14006SOL     OW43458   1.608   5.636   9.687  1.0930 -0.0894  0.1187
14006SOL    HW143459   1.526   5.596   9.658  1.7082 -0.8248 -0.6599
14006SOL    HW243460   1.593   5.730   9.678  0.2694 -0.2105  0.1822
14007SOL     OW43461   4.823   1.459   1.280  0.6312 -0.1681  0.3976
14007SOL    HW143462   4.794   1.421   1.197  1.7369 -1.6656  0.6554
14007SOL    HW243463   4.775   1.542   1.286  0.1273 -0.2640 -1.4733
14008SOL     OW43464   7.185   7.652  11.831  0.6656  0.3568  0.2677
14008SOL    HW143465   7.125   7.621  11.764 -0.9059  0.8943  1.3574
14008SOL    HW243466   7.271   7.650  11.790 -0.1450 -0.0528 -1.4847
14009SOL     OW43467   0.354   7.776  11.824  0.1055  0.3751 -0.1729
14009SOL    HW143468   0.417   7.721  11.871  0.7150 -0.2782 -1.6833
14009SOL    HW243469   0.392   7.864  11.827  2.0714 -0.2795 -2.5268
14010SOL     OW43470   2.447   6.128  10.253  0.1494 -0.1719 -0.4328
14010SOL    HW143471   2.368   6.139  10.305 -0.9191 -1.1238 -1.7605
14010SOL    HW243472   2.491   6.053  10.292  0.3028  0.2294  0.1815
14011SOL     OW43473   1.183   0.917  12.306  0.5082 -0.4963 -0.1504
14011SOL    HW143474   1.149   0.828  12.311  0.1587 -0.2957  2.5126
14011SOL    HW243475   1.195   0.944  12.397  0.0469  2.4045 -0.8337
14012SOL     OW43476   5.690   2.852   9.354 -0.4221  0.4595  0.2967
14012SOL    HW143477   5.742   2.834   9.432  0.3666  0.0063 -0.3205
14012SOL    HW243478   5.737   2.922   9.309 -0.5103  0.2614 -0.1092
14013SOL     OW43479   1.031   7.237   3.671  0.2208 -0.3309  0.0119
14013SOL    HW143480   0.996   7.319   3.709  3.1436  1.4566 -0.8580
14013SOL    HW243481   1.037   7.255   3.578  1.5230 -1.2790 -0.1049
14014SOL     OW43482   0.383   5.921   2.944 -0.2417 -0.4085  0.4504
14014SOL    HW143483   0.370   5.998   2.999 -1.6268  0.1902 -0.6560
14014SOL    HW243484   0.330   5.852   2.985  1.5567 -1.0466  1.8483
14015SOL     OW43485   2.211   1.566   7.284  0.0566 -0.4686  0.2076
14015SOL    HW143486   2.158   1.497   7.325  0.3841  0.1777  1.7805
14015SOL    HW243487   2.300   1.549   7.316 -0.1332  1.6902  2.0783
14016SOL     OW43488   5.192   4.239   9.615  0.2764  0.2563 -0.3259
14016SOL    HW143489   5.237   4.312   9.658 -1.0163  1.0700 -0.2896
14016SOL    HW243490   5.099   4.260   9.624 -0.1325 -1.4917 -0.1808
14017SOL     OW43491   7.363   1.493   8.108 -0.2455 -0.3842 -0.1336
14017SOL    HW143492   7.383   1.464   8.019  0.7674  0.2102 -0.1224
14017SOL    HW243493   7.448   1.492   8.153 -0.3537  1.3442  0.2021
14018SOL     OW43494   4.968   2.271   3.851 -0.4309  0.7720  0.0584
14018SOL    HW143495   4.952   2.347   3.795  1.3275  1.5582  0.5593
14018SOL    HW243496   5.042   2.296   3.906 -1.0526 -0.5993  1.6037
14019SOL     OW43497   5.050   6.395  12.180 -0.7464  0.0471  0.2214
14019SOL    HW143498   4.998   6.424  12.105  0.2653 -1.2235 -1.0518
14019SOL    HW243499   5.008   6.314  12.209  0.0408 -0.5990 -0.3617
14020SOL     OW43500   5.993   0.724   2.174  0.2078 -0.1125  0.1834
14020SOL    HW143501   6.055   0.726   2.101  1.7726  1.1224  1.4682
14020SOL    HW243502   5.916   0.679   2.140  0.4123  1.4381 -2.5837
14021SOL     OW43503   5.948   0.408   2.487 -0.4139 -0.2528 -0.7238
14021SOL    HW143504   5.962   0.410   2.582 -0.7333 -0.2569 -0.6761
14021SOL    HW243505   5.979   0.494   2.457  2.0488 -1.1546 -0.9630
14022SOL     OW43506   4.332   5.180   9.731  0.2357 -0.6270 -0.0836
14022SOL    HW143507   4.314   5.123   9.806  1.1819 -1.5042 -0.5061
14022SOL    HW243508   4.424   5.164   9.710  0.4504  0.8793 -0.3777
14023SOL     OW43509   0.675   1.098   7.194 -0.0857  0.4868 -0.2836
14023SOL    HW143510   0.743   1.032   7.180  1.9867  2.5443 -0.5404
14023SOL    HW243511   0.675   1.113   7.289  0.7114  1.3166 -0.3978
14024SOL     OW43512   3.048   3.701   1.862  0.0997 -0.0843 -0.1313
14024SOL    HW143513   3.058   3.626   1.804  1.5080  0.2826 -0.3960
14024SOL    HW243514   3.129   3.704   1.912 -0.7616  0.0749  1.3283
14025SOL     OW43515   7.151   2.497   2.711 -0.3631 -0.6452  0.1190
14025SOL    HW143516   7.149   2.459   2.623  2.2148 -0.3741 -0.1332
14025SOL    HW243517   7.099   2.577   2.704 -1.4785 -1.3977 -0.7054
14026SOL     OW43518   2.545   3.116  11.662 -0.3947  0.1389 -0.0212
14026SOL    HW143519   2.586   3.042  11.616  0.5349  0.9444 -0.5126
14026SOL    HW243520   2.616   3.154  11.714 -1.1502 -0.0242  1.1619
14027SOL     OW43521   7.644   6.859   5.626  0.2265  0.1214  0.2326
14027SOL    HW143522   7.574   6.888   5.568  0.9622  1.3422 -0.0947
14027SOL    HW243523   7.720   6.848   5.569  0.7594  0.5692  0.8325
14028SOL     OW43524   4.785   3.600  12.078 -0.0710  0.3642 -0.1214
14028SOL    HW143525   4.867   3.636  12.112  0.0184  1.0468 -1.0101
14028SOL    HW243526   4.778   3.636  11.990 -1.5392  0.6421  0.0863
14029SOL     OW43527   5.437   1.808  10.035 -0.2492  0.2745  0.3586
14029SOL    HW143528   5.353   1.813   9.989  0.9651 -0.0855 -2.0302
14029SOL    HW243529   5.415   1.769  10.120 -2.4291 -0.2064 -0.3599
14030SOL     OW43530   1.705   1.057  11.586  0.3972 -0.4648 -0.1738
14030SOL    HW143531   1.615   1.054  11.619  1.0045 -1.4127  1.5074
14030SOL    HW243532   1.700   1.114  11.509 -1.7930 -1.1765 -0.6343
14031SOL     OW43533   2.283   0.954  11.038 -0.5540 -0.0644 -0.1361
14031SOL    HW143534   2.375   0.961  11.011 -0.3130  0.6220  0.8461
14031SOL    HW243535   2.287   0.924  11.128 -1.3143 -0.4365 -0.2232
14032SOL     OW43536   2.212   1.048   5.164  0.0051  0.4672 -0.2600
14032SOL    HW143537   2.162   1.108   5.108 -1.8245 -2.1113 -1.5816
14032SOL    HW243538   2.169   1.054   5.249  0.5997  1.8462 -0.0290
14033SOL     OW43539   3.175   4.891   3.724 -0.3887 -0.7732  0.5942
14033SOL    HW143540   3.181   4.955   3.795  0.3368 -0.3088  0.1268
14033SOL    HW243541   3.262   4.890   3.685 -0.8367 -0.8428 -0.4382
14034SOL     OW43542   4.977   2.211   5.488 -0.1436 -0.2945  0.0604
14034SOL    HW143543   5.047   2.146   5.492  0.5585  0.4998  2.0456
14034SOL    HW243544   4.946   2.208   5.397  2.6634 -0.4611 -0.9962
14035SOL     OW43545   2.503   3.008   9.347  0.5035 -0.2271  0.0940
14035SOL    HW143546   2.540   2.955   9.418  0.8150 -0.8281 -0.4979
14035SOL    HW243547   2.473   2.944   9.282 -1.0673  0.2730  0.2944
14036SOL     OW43548   5.089   0.064  12.400 -0.1671  0.5361  0.4417
14036SOL    HW143549   4.996   0.047  12.386 -0.7624  1.6999  2.4971
14036SOL    HW243550   5.130   0.046  12.316 -1.8429 -2.4897  0.1191
14037SOL     OW43551   4.400   6.581  11.378  0.5019  0.4054 -0.2330
14037SOL    HW143552   4.387   6.659  11.324 -0.3668  0.8386  0.5637
14037SOL    HW243553   4.329   6.522  11.353  0.0545  0.6347  0.4636
14038SOL     OW43554   2.207   6.538   3.446  0.9010 -0.2296  0.4539
14038SOL    HW143555   2.239   6.543   3.356 -1.6714  3.0542 -0.4447
14038SOL    HW243556   2.136   6.474   3.442 -0.1786  0.9595 -0.2866
14039SOL     OW43557   0.282   0.271   6.188 -0.3720 -0.1269 -0.0500
14039SOL    HW143558   0.294   0.183   6.151 -2.3191 -0.8178  0.8512
14039SOL    HW243559   0.210   0.308   6.137  0.4807  1.0105 -0.4676
14040SOL     OW43560   4.475   0.746   8.153 -0.4160  0.5915  0.1724
14040SOL    HW143561   4.463   0.657   8.122 -1.7323  1.3351 -1.6315
14040SOL    HW243562   4.544   0.782   8.098 -0.3372  0.8859  0.4575
14041SOL     OW43563   2.973   1.407   9.260 -0.4044  0.6377  0.6888
14041SOL    HW143564   2.999   1.321   9.226 -0.4860  1.3346 -1.2511
14041SOL    HW243565   2.927   1.448   9.187  0.2895  2.6386  1.3287
14042SOL     OW43566   6.772   4.571  10.250  0.1572 -0.6290  0.4130
14042SOL    HW143567   6.713   4.498  10.269 -0.1986 -0.2023  0.9607
14042SOL    HW243568   6.814   4.590  10.333  4.1203 -3.5083 -0.6500
14043SOL     OW43569   1.614   0.271   6.912 -0.2516 -0.6402 -0.1266
14043SOL    HW143570   1.633   0.347   6.968  0.6920 -1.7945  1.1708
14043SOL    HW243571   1.519   0.262   6.916 -0.5576  1.2895 -1.4566
14044SOL     OW43572   7.203   2.422   6.668  0.4953 -0.0902  0.0740
14044SOL    HW143573   7.246   2.356   6.723  0.3169  0.5799  1.0378
14044SOL    HW243574   7.238   2.406   6.580  2.3506  0.0963  0.7197
14045SOL     OW43575   4.470   3.419   0.893  0.5193 -0.2186  0.0886
14045SOL    HW143576   4.426   3.349   0.844  2.0149 -1.2265  0.1315
14045SOL    HW243577   4.563   3.403   0.878  0.9028  1.4934  0.5069
14046SOL     OW43578   1.826   5.112  10.611 -0.1213 -0.1080  0.2678
14046SOL    HW143579   1.921   5.105  10.605  0.0520  0.1924  2.0024
14046SOL    HW243580   1.810   5.206  10.623 -0.6530 -0.1393 -0.1743
14047SOL     OW43581   4.668   2.628   9.509 -0.1399 -0.3668  0.0240
14047SOL    HW143582   4.584   2.607   9.467  0.6658  0.5092 -2.1833
14047SOL    HW243583   4.668   2.723   9.516 -0.9631 -0.4743  3.8355
14048SOL     OW43584   6.014   2.723   2.295  0.2751  0.9891 -0.1789
14048SOL    HW143585   5.918   2.720   2.294  0.2568  1.1656 -1.9183
14048SOL    HW243586   6.035   2.800   2.348 -0.5383  1.0041  0.1418
14049SOL     OW43587   0.665   2.465  10.620 -0.1359  0.3147 -0.0554
14049SOL    HW143588   0.637   2.547  10.660  1.1522  1.0961 -0.6733
14049SOL    HW243589   0.651   2.478  10.526 -3.0352 -1.4543  0.0332
14050SOL     OW43590   5.235   2.151   1.065  0.3135  0.1961 -0.1432
14050SOL    HW143591   5.142   2.129   1.063  0.9530 -2.9022 -0.9187
14050SOL    HW243592   5.269   2.118   0.982  2.5973 -1.5639  1.3742
14051SOL     OW43593   5.599   4.240  10.500  0.1578 -0.0915  1.0154
14051SOL    HW143594   5.509   4.270  10.496  0.1712  0.1816  2.2041
14051SOL    HW243595   5.652   4.320  10.495  0.4056 -0.3248 -0.7967
14052SOL     OW43596   0.795   0.332   3.110 -0.4535  0.0943  0.0941
14052SOL    HW143597   0.809   0.338   3.015  2.3517 -3.1243  0.0870
14052SOL    HW243598   0.849   0.402   3.147 -0.3091  0.3826 -0.6443
14053SOL     OW43599   3.971   0.465  10.935 -0.0182 -0.6672 -0.4015
14053SOL    HW143600   3.975   0.372  10.914 -1.1539 -0.4722 -1.5593
14053SOL    HW243601   3.924   0.505  10.862  1.7595  1.0585 -0.7161
14054SOL     OW43602   0.651   5.652  10.865  0.5098 -0.1846 -0.1809
14054SOL    HW143603   0.670   5.721  10.928  1.6706  0.7469 -1.4808
14054SOL    HW243604   0.722   5.589  10.877  0.4804 -0.2301 -0.2448
14055SOL     OW43605   7.177   7.829   1.174  0.3325  0.0249 -0.1174
14055SOL    HW143606   7.178   7.776   1.254 -2.1845  0.3178  0.1808
14055SOL    HW243607   7.166   7.765   1.103 -1.1801 -0.0090  0.1193
14056SOL     OW43608   5.892   5.430   3.221  0.5765 -0.0963  0.5016
14056SOL    HW143609   5.843   5.426   3.139  1.3486 -0.2316  0.0327
14056SOL    HW243610   5.861   5.356   3.272  0.6890 -0.5040 -0.0159
14057SOL     OW43611   3.755   3.848   7.030 -0.4515 -0.2923  0.0191
14057SOL    HW143612   3.740   3.838   6.936  0.3588 -1.8472  0.0280
14057SOL    HW243613   3.719   3.935   7.051 -0.6017  0.0987 -1.7162
14058SOL     OW43614   1.252   3.180  11.962  0.2070  0.9209  0.2667
14058SOL    HW143615   1.260   3.198  11.869 -1.3159 -0.6337 -0.2150
14058SOL    HW243616   1.293   3.093  11.973 -0.8700  0.4610  0.7640
14059SOL     OW43617   5.097   5.467   1.277 -0.8494  0.4456 -0.0830
14059SOL    HW143618   5.037   5.414   1.225 -1.2903  0.3213  0.5406
14059SOL    HW243619   5.184   5.439   1.250 -1.0705  0.6819 -1.0560
14060SOL     OW43620   6.674   4.098   1.024 -0.3421  0.0475  0.4416
14060SOL    HW143621   6.585   4.098   1.061 -1.1682  0.9992 -1.4041
14060SOL    HW243622   6.677   4.177   0.970  1.5469 -0.1328  0.2259
14061SOL     OW43623   1.927   3.605   7.181 -0.0368 -0.4796 -0.6906
14061SOL    HW143624   1.897   3.516   7.163 -0.2467 -0.5159 -0.1841
14061SOL    HW243625   1.883   3.659   7.115 -0.7607 -0.6133 -0.3256
14062SOL     OW43626   0.232   5.174   1.640  0.3321  0.0841  0.1705
14062SOL    HW143627   0.164   5.115   1.673  1.0750 -0.9363 -0.0801
14062SOL    HW243628   0.200   5.201   1.554 -0.2345  0.4395  0.4818
14063SOL     OW43629   2.555   4.887   2.890  0.5289 -0.0714  0.2269
14063SOL    HW143630   2.460   4.880   2.887  0.5420 -0.5176  0.8701
14063SOL    HW243631   2.587   4.811   2.841  0.5480  0.7930 -1.1443
14064SOL     OW43632   2.754   0.249   4.514 -0.3785 -0.2067  0.0604
14064SOL    HW143633   2.838   0.208   4.492 -0.3488  0.7870 -1.8587
14064SOL    HW243634   2.778   0.333   4.552 -0.4812  0.2950 -0.9544
14065SOL     OW43635   6.365   3.629   5.422  0.0738 -0.1831  0.1745
14065SOL    HW143636   6.305   3.689   5.378  0.2391 -0.5695 -0.5931
14065SOL    HW243637   6.414   3.587   5.351  1.3861  0.2541  0.7892
14066SOL     OW43638   5.171   2.423   4.891 -0.3714  0.1907  0.0750
14066SOL    HW143639   5.076   2.423   4.900 -0.3396  1.1750  0.5593
14066SOL    HW243640   5.196   2.332   4.907 -1.1601  0.0933  0.8638
14067SOL     OW43641   2.227   3.962   9.118 -0.0535  0.1033  0.7710
14067SOL    HW143642   2.293   3.932   9.056 -0.2107 -1.6371  1.3871
14067SOL    HW243643   2.143   3.942   9.076 -0.1635 -1.3920  1.6336
14068SOL     OW43644   1.617   2.065   5.490  0.5669  0.2163 -0.2813
14068SOL    HW143645   1.578   2.044   5.405  0.0625  1.2439 -0.3143
14068SOL    HW243646   1.659   1.983   5.518 -0.2689 -0.4660 -0.9704
14069SOL     OW43647   3.468   0.906   3.170 -0.2113  0.4730  0.2108
14069SOL    HW143648   3.463   0.998   3.196 -1.8172  0.1799  1.0458
14069SOL    HW243649   3.397   0.895   3.107 -0.2232 -0.2630  0.3504
14070SOL     OW43650   6.701   4.912  10.841 -0.0611 -0.4067 -0.3837
14070SOL    HW143651   6.693   5.002  10.811  0.0103 -0.5998 -1.0011
14070SOL    HW243652   6.646   4.908  10.920 -0.8383 -0.0666 -0.8887
14071SOL     OW43653   3.510   1.391   5.147  0.2987  0.3867 -0.5078
14071SOL    HW143654   3.475   1.397   5.236  3.5771 -1.6673  1.1056
14071SOL    HW243655   3.557   1.474   5.134  2.6348 -0.5792  1.1482
14072SOL     OW43656   0.802   1.742   5.476 -0.0334 -0.3697  0.2190
14072SOL    HW143657   0.707   1.756   5.481 -0.1011 -0.9149  0.6201
14072SOL    HW243658   0.832   1.805   5.411 -0.7403 -0.5191 -0.2723
14073SOL     OW43659   6.920   3.659   1.757 -0.1813  0.4656  0.0747
14073SOL    HW143660   6.939   3.747   1.789 -0.3191 -0.0548  1.6697
14073SOL    HW243661   7.003   3.628   1.719  0.4240  0.5478  1.3050
14074SOL     OW43662   7.984   4.938  10.750 -0.4361 -0.5311  0.6275
14074SOL    HW143663   7.993   4.920  10.657  0.9419  0.3349  0.5530
14074SOL    HW243664   7.925   5.014  10.755 -0.9292 -0.9024  0.5086
14075SOL     OW43665   5.416   7.566  11.659  0.6386 -0.1916 -0.3568
14075SOL    HW143666   5.449   7.606  11.579  0.1216 -0.5217 -0.7401
14075SOL    HW243667   5.408   7.639  11.721 -0.5625  0.3584 -1.1366
14076SOL     OW43668   3.425   5.766  10.735 -0.0313 -0.2581 -0.3141
14076SOL    HW143669   3.436   5.674  10.757  1.7153 -0.1256 -0.5514
14076SOL    HW243670   3.409   5.767  10.640 -0.7143 -0.3452 -0.2067
14077SOL     OW43671   3.193   2.236   7.545 -0.2580 -0.0415 -0.5383
14077SOL    HW143672   3.246   2.173   7.495  0.2136  0.2136 -0.3693
14077SOL    HW243673   3.226   2.229   7.635 -0.9700 -0.3590 -0.2981
14078SOL     OW43674   6.676   4.485   5.428 -0.2473  0.1362  0.3023
14078SOL    HW143675   6.698   4.532   5.347 -0.4181 -1.4382 -0.7038
14078SOL    HW243676   6.580   4.484   5.430 -0.2783 -1.3841 -0.4727
14079SOL     OW43677   3.710   7.123   0.755  0.0475  0.4248 -0.1271
14079SOL    HW143678   3.799   7.098   0.729 -0.0774  0.6276 -0.7729
14079SOL    HW243679   3.674   7.165   0.677  0.0654  2.1464  0.7546
14080SOL     OW43680   4.121   7.060   6.485  0.4009 -0.4063  0.3323
14080SOL    HW143681   4.085   7.130   6.539  2.0835 -1.3161  2.8255
14080SOL    HW243682   4.184   7.016   6.542  0.5029 -3.0255 -1.6221
14081SOL     OW43683   7.012   0.784   3.491  0.1050 -0.2593 -0.2842
14081SOL    HW143684   6.990   0.872   3.519 -0.3708  0.0418 -1.5257
14081SOL    HW243685   6.944   0.728   3.528  1.0800 -0.3059  1.5262
14082SOL     OW43686   4.976   3.675  11.436 -0.1060  0.4706  0.1749
14082SOL    HW143687   4.957   3.749  11.378 -0.5879  0.6470  0.5572
14082SOL    HW243688   5.029   3.617  11.382 -0.3976  0.7161 -0.3931
14083SOL     OW43689   5.044   3.784   2.264  0.0953  0.2659  0.2447
14083SOL    HW143690   5.106   3.719   2.231  0.1146  0.8645 -0.9411
14083SOL    HW243691   4.979   3.732   2.313 -0.3783 -0.7733 -1.4004
14084SOL     OW43692   3.485   2.316   5.544  0.0449 -0.4312 -0.6648
14084SOL    HW143693   3.492   2.351   5.456  3.0873  1.3712  0.1196
14084SOL    HW243694   3.407   2.357   5.581  0.2288  0.9134 -1.7073
14085SOL     OW43695   4.674   2.409   3.054 -0.0279  0.1289  0.0611
14085SOL    HW143696   4.660   2.503   3.063 -0.5634  0.1594 -0.9493
14085SOL    HW243697   4.638   2.387   2.968 -1.4707 -1.2906  0.9647
14086SOL     OW43698   0.867   5.110  11.455 -0.1769 -0.0923 -1.0314
14086SOL    HW143699   0.940   5.171  11.452  0.2226 -0.4167  0.7612
14086SOL    HW243700   0.794   5.157  11.414 -0.2270  2.1250  1.3746
14087SOL     OW43701   5.035   0.757   8.657  0.2398 -0.2658  0.3824
14087SOL    HW143702   4.959   0.727   8.608  0.1235  0.1700  0.2877
14087SOL    HW243703   5.097   0.684   8.653  0.1811 -0.2838 -0.3020
14088SOL     OW43704   3.153   5.306  12.107  0.5866  0.0658  0.2836
14088SOL    HW143705   3.084   5.344  12.052  1.1034  0.1777 -0.2968
14088SOL    HW243706   3.192   5.382  12.150  2.8861  0.5032 -2.3164
14089SOL     OW43707   3.894   7.061   6.080  0.2422 -0.3717  0.1075
14089SOL    HW143708   3.892   7.084   5.988  0.4673  0.2228  0.2456
14089SOL    HW243709   3.883   6.966   6.082 -1.9365 -0.1962 -0.4269
14090SOL     OW43710   7.834   1.991   4.927 -0.3142  0.1462 -0.2221
14090SOL    HW143711   7.890   1.986   4.850 -0.7802 -0.9301 -0.5012
14090SOL    HW243712   7.851   1.910   4.975 -2.0181 -0.4758 -0.5897
14091SOL     OW43713   2.571   5.060   0.568  0.4355 -0.1592 -0.4303
14091SOL    HW143714   2.492   5.112   0.582 -1.1486 -2.2264 -1.1248
14091SOL    HW243715   2.607   5.047   0.656 -0.9557 -0.5612  0.1110
14092SOL     OW43716   5.741   4.046   0.878 -0.0787 -0.5734 -0.0184
14092SOL    HW143717   5.647   4.033   0.884  0.0671 -1.9938 -0.4437
14092SOL    HW243718   5.760   4.044   0.784  0.3905 -0.3533  0.0673
14093SOL     OW43719   5.322   4.558   3.109 -0.2754  0.2577 -0.1973
14093SOL    HW143720   5.336   4.502   3.186  0.1207  1.2283  0.4610
14093SOL    HW243721   5.227   4.563   3.100 -0.3241 -1.0773 -0.7057
14094SOL     OW43722   6.933   2.556   2.192  0.6142  0.6237  0.0065
14094SOL    HW143723   6.876   2.548   2.268  0.8275 -0.0434  0.1007
14094SOL    HW243724   6.953   2.650   2.187 -0.5250  0.8804 -0.0657
14095SOL     OW43725   7.072   0.665  10.090  0.2080  0.0451 -0.6259
14095SOL    HW143726   7.160   0.683  10.058 -0.6163  0.5808 -2.7810
14095SOL    HW243727   7.049   0.742  10.142  0.2187  1.0099 -1.9701
14096SOL     OW43728   7.167   5.963   6.314 -0.2820  0.4440  0.0931
14096SOL    HW143729   7.123   6.033   6.364 -3.7387 -1.3442 -0.1820
14096SOL    HW243730   7.136   5.974   6.225 -3.0039 -2.7929  0.4676
14097SOL     OW43731   0.925   6.271  10.629  0.0058  0.1875 -0.4224
14097SOL    HW143732   0.902   6.186  10.666 -0.3279  0.3986 -0.1378
14097SOL    HW243733   0.910   6.260  10.535 -2.3786  0.6320 -0.1540
14098SOL     OW43734   5.567   3.790   9.829  0.1464 -0.2314 -0.5923
14098SOL    HW143735   5.596   3.714   9.879  0.1823  0.2135  0.0812
14098SOL    HW243736   5.603   3.776   9.741 -0.0596 -1.1062 -0.5483
14099SOL     OW43737   3.638   2.013   7.497  0.6094 -0.7193 -0.1926
14099SOL    HW143738   3.714   2.012   7.439  1.1154  1.8959  0.2920
14099SOL    HW243739   3.674   2.030   7.584 -0.4345 -0.8924  0.2889
14100SOL     OW43740   1.516   3.433   6.935  0.0436  0.3255  0.1184
14100SOL    HW143741   1.426   3.414   6.960  0.6363  0.8654  2.8922
14100SOL    HW243742   1.556   3.347   6.922 -0.4901  0.0437  0.3219
14101SOL     OW43743   7.381   2.174  11.456  0.3469  0.1520  0.2698
14101SOL    HW143744   7.297   2.206  11.491 -0.6369 -0.8519 -1.0638
14101SOL    HW243745   7.447   2.228  11.499 -0.9842  1.0367  1.2956
14102SOL     OW43746   4.417   5.910  10.794  0.5289  0.4631  0.6693
14102SOL    HW143747   4.322   5.922  10.800  0.0061 -2.4794 -0.3996
14102SOL    HW243748   4.443   5.967  10.722 -0.8740 -0.5903 -0.7208
14103SOL     OW43749   1.826   2.860   1.667 -0.1933 -0.3909  0.0064
14103SOL    HW143750   1.915   2.895   1.670  0.7774 -2.7211  0.4196
14103SOL    HW243751   1.832   2.775   1.709 -2.2420 -1.4372 -1.6113
14104SOL     OW43752   3.438   5.022  11.724  0.5401  0.5430 -0.0150
14104SOL    HW143753   3.517   5.053  11.770 -0.8808  2.5260  1.2542
14104SOL    HW243754   3.419   4.937  11.763  1.2362  0.7059  0.7145
14105SOL     OW43755   1.030   7.571   1.845 -0.4404 -0.4046  0.9821
14105SOL    HW143756   1.011   7.623   1.767 -0.7906  0.7769  1.8167
14105SOL    HW243757   1.072   7.492   1.812 -1.0479 -0.1666 -0.4380
14106SOL     OW43758   1.953   0.180   4.833  0.0383 -0.9482  0.0095
14106SOL    HW143759   1.896   0.210   4.903  0.6728 -2.2559  1.1277
14106SOL    HW243760   1.975   0.090   4.856  2.3434 -0.5797 -0.4865
14107SOL     OW43761   1.648   4.071   6.141 -0.5052 -0.1972 -0.1904
14107SOL    HW143762   1.644   3.976   6.132  0.9353 -0.1396 -2.0209
14107SOL    HW243763   1.728   4.088   6.190  0.4032  0.0927 -1.6945
14108SOL     OW43764   5.743   7.262  11.816 -0.0479 -0.6335 -0.0278
14108SOL    HW143765   5.747   7.227  11.905  2.1006  0.9374  0.5701
14108SOL    HW243766   5.824   7.312  11.806 -0.7993  0.2440 -2.4630
14109SOL     OW43767   6.098   2.536   4.581 -0.0667 -0.0344  0.1731
14109SOL    HW143768   6.069   2.626   4.596 -0.2444 -0.0463 -0.0711
14109SOL    HW243769   6.103   2.529   4.485  0.0284 -0.2570  0.1942
14110SOL     OW43770   4.752   3.728   5.167  0.2709 -0.4593 -0.4527
14110SOL    HW143771   4.765   3.795   5.099  2.0712 -0.4604 -0.1740
14110SOL    HW243772   4.661   3.737   5.193  0.3744  1.6692 -0.6628
14111SOL     OW43773   0.839   7.507   5.542  0.1627 -0.3013  0.2972
14111SOL    HW143774   0.818   7.539   5.454  0.5349 -1.4166 -0.2062
14111SOL    HW243775   0.768   7.541   5.596  0.1101  0.6891 -0.3578
14112SOL     OW43776   7.866   5.848   2.940 -0.2337 -0.3925  0.0165
14112SOL    HW143777   7.780   5.840   2.898  0.9670 -0.1309 -2.6699
14112SOL    HW243778   7.859   5.926   2.994 -1.6877 -0.3710 -0.1630
14113SOL     OW43779   6.180   5.405   2.242  0.1397  0.4746  0.7735
14113SOL    HW143780   6.094   5.377   2.210  0.5283 -0.5772  0.5894
14113SOL    HW243781   6.236   5.406   2.164  0.5014  0.2891  1.0270
14114SOL     OW43782   0.679   1.501   4.470  0.4009  0.1105  0.1878
14114SOL    HW143783   0.651   1.548   4.391 -1.4279 -0.3791  0.4999
14114SOL    HW243784   0.646   1.555   4.542  0.9269 -0.1188  0.6022
14115SOL     OW43785   7.127   2.219  11.556 -0.2336 -0.7581 -0.2468
14115SOL    HW143786   7.046   2.250  11.596  0.6083  0.0374  0.9157
14115SOL    HW243787   7.140   2.131  11.594  0.4815 -0.0700  1.2046
14116SOL     OW43788   2.929   3.889  11.430  0.0034 -0.1261  0.7319
14116SOL    HW143789   2.851   3.891  11.375  0.2677  0.1408  0.3625
14116SOL    HW243790   2.897   3.864  11.517 -0.3670 -0.9459  0.3687
14117SOL     OW43791   7.337   6.567   8.310 -0.0051 -0.0704 -0.0649
14117SOL    HW143792   7.257   6.532   8.349  0.0934 -0.1534  0.0608
14117SOL    HW243793   7.323   6.557   8.215  0.5992 -1.7493 -0.0135
14118SOL     OW43794   4.229   2.544  10.191 -0.3066 -0.6925 -0.0215
14118SOL    HW143795   4.260   2.543  10.100 -1.3018  0.6655 -0.4036
14118SOL    HW243796   4.286   2.606  10.235  0.4857 -1.7065  0.4309
14119SOL     OW43797   5.403   3.267   5.055 -0.2885  0.1354 -0.4091
14119SOL    HW143798   5.385   3.235   4.966  0.4463 -0.9958 -0.1710
14119SOL    HW243799   5.328   3.322   5.076 -1.2488 -0.8505 -1.1356
14120SOL     OW43800   2.588   0.645   8.551  0.5226 -0.0031 -0.0251
14120SOL    HW143801   2.612   0.562   8.508 -0.7759  0.0369 -0.8628
14120SOL    HW243802   2.589   0.709   8.480  0.2596  0.4505  0.3795
14121SOL     OW43803   6.756   6.604   3.671  0.1702 -0.6504  0.0897
14121SOL    HW143804   6.702   6.617   3.593 -0.2609 -1.0528  0.3166
14121SOL    HW243805   6.786   6.514   3.664 -0.4950 -0.9331  0.7667
14122SOL     OW43806   2.026   4.535   4.876 -0.1457  0.2375 -0.0126
14122SOL    HW143807   1.986   4.494   4.800  1.0060 -0.5785 -0.1916
14122SOL    HW243808   1.966   4.515   4.948 -0.9526  0.5378 -0.5856
14123SOL     OW43809   7.129   4.498   3.297 -0.3939  0.1224 -0.6840
14123SOL    HW143810   7.037   4.491   3.272 -1.0535  2.3116  0.8019
14123SOL    HW243811   7.128   4.544   3.381  2.0738  0.3894 -0.7134
14124SOL     OW43812   0.094   3.768  10.729  0.6658  1.2970 -0.3088
14124SOL    HW143813   0.076   3.749  10.637  0.9072  1.3020 -0.3578
14124SOL    HW243814   0.030   3.716  10.777 -0.7226  2.7113 -0.5203
14125SOL     OW43815   6.136   1.576   5.526  0.2058 -0.1960  0.0033
14125SOL    HW143816   6.087   1.498   5.552  1.0285 -0.6880  0.1155
14125SOL    HW243817   6.226   1.545   5.512  0.8266  0.9137  1.1957
14126SOL     OW43818   7.009   4.488   6.453 -0.4306  0.0630  0.5711
14126SOL    HW143819   7.087   4.520   6.409 -0.2035 -1.2764 -0.0489
14126SOL    HW243820   6.944   4.477   6.383 -1.1263  0.9697  1.0489
14127SOL     OW43821   2.401   5.519   5.154  0.3426  0.0355  0.0430
14127SOL    HW143822   2.354   5.600   5.173  2.1107  1.2216 -0.4856
14127SOL    HW243823   2.373   5.495   5.066  2.3137  1.9585 -1.1809
14128SOL     OW43824   1.715   5.002   6.594  0.2054 -0.0330 -0.4226
14128SOL    HW143825   1.669   5.073   6.550 -0.4799 -0.4715 -0.4361
14128SOL    HW243826   1.806   5.011   6.566  0.1409  0.8715 -0.3740
14129SOL     OW43827   5.204   6.938   6.353  0.2346 -0.3471  0.0072
14129SOL    HW143828   5.298   6.946   6.339  0.3126  0.7804  1.0186
14129SOL    HW243829   5.175   6.877   6.285  1.6477 -0.5423 -0.4593
14130SOL     OW43830   4.961   4.954   1.320 -0.1409 -0.1749 -0.0584
14130SOL    HW143831   5.027   5.017   1.349 -0.9504 -0.0547  1.6823
14130SOL    HW243832   4.936   4.983   1.233  2.2098 -0.3462 -0.8712
14131SOL     OW43833   1.350   0.368   7.282  0.2100 -0.0856 -0.1459
14131SOL    HW143834   1.259   0.392   7.300  0.1392 -0.1130 -0.4508
14131SOL    HW243835   1.349   0.272   7.281  0.4003 -0.0977  0.6197
14132SOL     OW43836   4.985   2.732   7.444 -0.0932 -0.1908 -0.0177
14132SOL    HW143837   4.964   2.796   7.376  2.7707 -0.7816 -1.6174
14132SOL    HW243838   5.049   2.776   7.499 -0.4441 -0.6332  0.7524
14133SOL     OW43839   5.750   4.136   5.741 -0.1211  0.1431 -0.1059
14133SOL    HW143840   5.780   4.048   5.717 -0.6105 -0.2328  0.6098
14133SOL    HW243841   5.769   4.190   5.664  1.4605 -0.2762 -0.0508
14134SOL     OW43842   1.795   7.568   2.537 -0.0422  0.1762 -0.1471
14134SOL    HW143843   1.885   7.595   2.519  0.2445 -0.6713 -0.0132
14134SOL    HW243844   1.743   7.613   2.470  0.5519  0.1794 -0.6135
14135SOL     OW43845   7.273   7.800  10.954  1.1971 -0.3872  0.4725
14135SOL    HW143846   7.298   7.887  10.923 -2.6450  0.5151 -0.6340
14135SOL    HW243847   7.285   7.744  10.878 -0.1024  0.0614 -0.0895
14136SOL     OW43848   6.735   5.224   0.845 -0.2308  0.1447 -0.1973
14136SOL    HW143849   6.681   5.155   0.882  1.0806 -1.0860 -0.5007
14136SOL    HW243850   6.676   5.299   0.837 -2.2040 -1.4436 -1.5754
14137SOL     OW43851   4.603   7.693   2.929 -0.0763  0.0725  0.9412
14137SOL    HW143852   4.590   7.723   2.840  1.3256 -1.9002 -0.0062
14137SOL    HW243853   4.677   7.632   2.923  1.0552  0.9980  3.6899
14138SOL     OW43854   4.096   0.628   3.701 -0.5092 -0.2282 -0.2118
14138SOL    HW143855   4.134   0.708   3.737 -0.6768 -0.3667  0.2842
14138SOL    HW243856   4.172   0.572   3.683 -0.4468 -0.4200  0.5712
14139SOL     OW43857   4.975   5.726  10.852  0.0785 -0.2162  0.5054
14139SOL    HW143858   5.045   5.693  10.910  0.8097  0.5775  0.0897
14139SOL    HW243859   4.977   5.821  10.863 -1.3136 -0.2083  0.8932
14140SOL     OW43860   7.948   4.932   1.195  0.1873 -0.0852  0.8935
14140SOL    HW143861   7.867   4.940   1.145  0.6677 -0.5740  0.0108
14140SOL    HW243862   8.014   4.976   1.141  0.7041 -0.5441  1.1366
14141SOL     OW43863   5.577   3.694   9.414  0.1014  0.0829 -0.3615
14141SOL    HW143864   5.549   3.603   9.420 -0.0055  0.1358 -0.0718
14141SOL    HW243865   5.583   3.711   9.319 -0.3793 -0.0699 -0.4198
14142SOL     OW43866   1.543   0.725   1.291 -0.1567 -0.0961  0.0933
14142SOL    HW143867   1.562   0.713   1.384 -1.2973 -2.0471  0.1461
14142SOL    HW243868   1.481   0.655   1.270  2.3353 -1.6607 -2.8477
14143SOL     OW43869   0.298   7.363  10.966 -0.2027 -0.7522 -0.0242
14143SOL    HW143870   0.387   7.331  10.977 -0.2392 -0.1594  2.8544
14143SOL    HW243871   0.302   7.455  10.992 -1.8134 -0.9877  1.2279
14144SOL     OW43872   5.400   5.819  10.068 -0.0114  0.5955 -0.1769
14144SOL    HW143873   5.489   5.823  10.104  0.2602  3.5330 -0.9190
14144SOL    HW243874   5.405   5.751  10.000  1.5988  0.4992 -0.0051
14145SOL     OW43875   0.819   4.832   2.411  0.2765 -0.5997  0.6039
14145SOL    HW143876   0.838   4.741   2.436  0.7621 -0.7317 -0.2126
14145SOL    HW243877   0.757   4.862   2.478  0.5052 -1.3638  1.1824
14146SOL     OW43878   4.769   7.789   6.019  0.0602  0.0318  0.2860
14146SOL    HW143879   4.773   7.882   6.040  2.9205  0.3154 -1.0556
14146SOL    HW243880   4.725   7.785   5.934  2.7699  0.6431 -1.2866
14147SOL     OW43881   4.011   5.706  11.355  0.0816  0.4199 -0.0725
14147SOL    HW143882   4.080   5.772  11.351  0.8933 -0.4038 -0.1291
14147SOL    HW243883   3.940   5.742  11.303  0.8269  0.8855 -0.7944
14148SOL     OW43884   5.658   1.289   9.879  0.2207 -0.2584 -0.4117
14148SOL    HW143885   5.669   1.202   9.917 -2.9781 -0.9841 -0.7981
14148SOL    HW243886   5.620   1.341   9.950  0.3236  0.2529 -0.7254
14149SOL     OW43887   1.779   6.285  12.280 -0.5034 -0.5628  0.4165
14149SOL    HW143888   1.783   6.260  12.372 -0.3436 -1.0272  0.2901
14149SOL    HW243889   1.868   6.270  12.247 -0.2174  0.8722  0.4989
14150SOL     OW43890   6.334   6.052   0.272 -0.1259 -0.0564  0.2060
14150SOL    HW143891   6.373   5.995   0.206 -1.3048  0.2913 -0.8182
14150SOL    HW243892   6.341   6.140   0.234 -1.8107  0.0200  0.0359
14151SOL     OW43893   6.437   1.880  11.327  0.1993  0.0050 -0.5347
14151SOL    HW143894   6.414   1.866  11.419  0.7316  1.2972 -0.1879
14151SOL    HW243895   6.382   1.953  11.299  1.3161  0.7988 -0.7137
14152SOL     OW43896   1.448   3.897  11.691  0.7347 -0.3787 -0.4620
14152SOL    HW143897   1.432   3.958  11.619  0.8248 -0.7901 -0.8376
14152SOL    HW243898   1.362   3.881  11.729  0.8848  1.0631  0.5349
14153SOL     OW43899   5.959   6.309  10.871  0.0348 -0.2306  0.5733
14153SOL    HW143900   6.040   6.259  10.870  0.1381 -0.0779 -0.5390
14153SOL    HW243901   5.897   6.254  10.821  0.5500  1.3141 -1.9483
14154SOL     OW43902   7.873   4.262   3.610  0.1834  0.1062 -0.0113
14154SOL    HW143903   7.872   4.351   3.644  1.5701 -0.0945  0.6594
14154SOL    HW243904   7.829   4.210   3.677  1.3027 -0.0163  0.6543
14155SOL     OW43905   6.375   0.892   0.373  0.1523 -0.5392 -0.4578
14155SOL    HW143906   6.407   0.959   0.313 -1.4054  0.5987 -0.0897
14155SOL    HW243907   6.450   0.872   0.429  1.2798 -0.7358 -1.9776
14156SOL     OW43908   3.092   6.857   4.526 -0.3677  0.3616  0.3554
14156SOL    HW143909   3.053   6.938   4.493  0.8036 -0.4733 -3.6182
14156SOL    HW243910   3.184   6.879   4.541 -0.4134  0.1533  0.9898
14157SOL     OW43911   7.932   4.393   5.788 -0.1658  0.1445  0.1489
14157SOL    HW143912   7.954   4.399   5.695 -2.8838  0.4592 -0.5403
14157SOL    HW243913   7.951   4.480   5.823 -1.3439  0.7702 -0.6900
14158SOL     OW43914   3.085   6.843   2.441  0.5773 -0.0405 -0.3646
14158SOL    HW143915   3.165   6.880   2.478  1.4212 -2.0210 -0.0874
14158SOL    HW243916   3.101   6.839   2.347  0.4242  0.3939 -0.4130
14159SOL     OW43917   5.761   6.074   3.581 -0.6065  0.5364  0.7465
14159SOL    HW143918   5.667   6.092   3.586 -0.5623  1.0034  0.0119
14159SOL    HW243919   5.767   5.980   3.564 -1.0125  0.8756 -1.5061
14160SOL     OW43920   7.610   3.549  11.961  0.3065  0.0241 -1.0752
14160SOL    HW143921   7.591   3.547  12.055 -1.0805  0.2238 -1.3282
14160SOL    HW243922   7.705   3.540  11.955  0.3664 -0.4316  0.3264
14161SOL     OW43923   5.528   6.978   8.036  0.1961  0.5977 -0.3638
14161SOL    HW143924   5.597   6.967   8.101  0.4714  0.5843 -0.6533
14161SOL    HW243925   5.524   6.894   7.991 -0.6482  0.2936  0.2631
14162SOL     OW43926   2.277   4.002  10.533  0.2511 -0.1016 -0.0931
14162SOL    HW143927   2.336   3.975  10.462  1.4342  0.4849  0.6414
14162SOL    HW243928   2.309   4.088  10.560 -0.6840  0.0403  0.6234
14163SOL     OW43929   4.456   1.741   9.201  0.0955  0.1427 -0.6621
14163SOL    HW143930   4.433   1.648   9.207  0.0171  0.0671 -1.8469
14163SOL    HW243931   4.453   1.760   9.107  0.5718  1.2321 -0.4681
14164SOL     OW43932   1.883   5.670   7.173  0.0618 -0.4538  0.0979
14164SOL    HW143933   1.859   5.678   7.081 -1.5980 -1.1980  0.4214
14164SOL    HW243934   1.872   5.577   7.193 -0.3566 -0.1848  1.2302
14165SOL     OW43935   3.008   5.297   5.563 -0.1002 -0.3324  0.0948
14165SOL    HW143936   2.980   5.224   5.508 -0.7075 -0.0715  0.0503
14165SOL    HW243937   3.071   5.258   5.625  1.7054 -0.3664 -1.6485
14166SOL     OW43938   7.452   5.497   1.391  0.2504 -0.4932 -0.1474
14166SOL    HW143939   7.487   5.586   1.392  0.9546 -0.7320 -1.3880
14166SOL    HW243940   7.503   5.452   1.325  0.7064 -2.1687  1.2647
14167SOL     OW43941   1.469   6.125   4.998 -0.1782 -0.2842  0.7923
14167SOL    HW143942   1.380   6.112   5.029 -1.4938 -0.8754 -2.7318
14167SOL    HW243943   1.514   6.043   5.017 -0.9772 -0.7003  0.9242
14168SOL     OW43944   1.478   3.525  10.134 -0.2712  0.6659  0.1970
14168SOL    HW143945   1.547   3.550  10.072 -1.7019  1.1700 -1.2575
14168SOL    HW243946   1.456   3.435  10.110 -2.1618  1.4835 -1.3982
14169SOL     OW43947   4.265   7.046   2.963  0.0982  0.0832 -0.5673
14169SOL    HW143948   4.351   7.007   2.948 -0.7998 -2.4737  0.4224
14169SOL    HW243949   4.203   6.981   2.932 -1.5192  1.3451 -0.1112
14170SOL     OW43950   6.683   4.473   3.613  0.8256 -0.4070 -0.5406
14170SOL    HW143951   6.753   4.458   3.676 -0.9986 -1.0331  1.4436
14170SOL    HW243952   6.651   4.561   3.632 -1.2254 -1.4199  1.0562
14171SOL     OW43953   4.778   3.080   4.177  0.1585  0.5217 -0.3194
14171SOL    HW143954   4.792   3.082   4.083 -1.3255  2.2526 -0.5643
14171SOL    HW243955   4.703   3.022   4.189  1.7499 -1.5864  0.0984
14172SOL     OW43956   5.356   3.249  10.718 -0.1890 -0.1776 -0.3197
14172SOL    HW143957   5.285   3.292  10.766 -0.7269 -1.2558 -0.1225
14172SOL    HW243958   5.382   3.175  10.773  1.6502  0.6321 -0.0030
14173SOL     OW43959   2.285   6.122   5.542 -0.6504 -0.1666 -0.1340
14173SOL    HW143960   2.326   6.039   5.517  0.8693  0.6841 -0.6327
14173SOL    HW243961   2.219   6.138   5.475 -0.3686 -0.5803 -0.5189
14174SOL     OW43962   2.481   7.293   2.366  0.0183  0.7292  0.3595
14174SOL    HW143963   2.501   7.203   2.340 -0.8676  0.8677 -0.8610
14174SOL    HW243964   2.469   7.288   2.461  2.7440  0.0985  0.7659
14175SOL     OW43965   7.683   2.843   9.405 -0.2941  0.1336  0.0364
14175SOL    HW143966   7.712   2.852   9.496 -1.2499 -2.3634  0.6730
14175SOL    HW243967   7.740   2.776   9.368  0.9148  1.9850 -1.6798
14176SOL     OW43968   7.913   6.166   7.380 -0.2639 -0.2514 -0.3173
14176SOL    HW143969   7.818   6.158   7.369 -0.2472 -2.1028  0.5628
14176SOL    HW243970   7.941   6.217   7.304 -1.9413  0.3174 -0.6140
14177SOL     OW43971   3.011   0.069   7.898  0.6030  0.2067  0.5507
14177SOL    HW143972   3.029   0.089   7.990 -0.0725  2.4982  0.2517
14177SOL    HW243973   2.959  -0.011   7.900  1.5533 -0.4081  2.0779
14178SOL     OW43974   4.065   2.459   7.289  0.0381  0.0742  0.1823
14178SOL    HW143975   3.970   2.450   7.287 -0.2789  2.7337 -0.2635
14178SOL    HW243976   4.086   2.475   7.381  0.1148 -0.8871  0.3375
14179SOL     OW43977   0.255   6.657   3.302 -0.1771  0.3059 -0.8569
14179SOL    HW143978   0.194   6.674   3.374  2.1330 -0.0155  1.3209
14179SOL    HW243979   0.311   6.735   3.300  1.1146 -0.5981 -0.8451
14180SOL     OW43980   0.829   5.762   7.159 -0.3783  0.7220  0.6817
14180SOL    HW143981   0.876   5.713   7.226  0.1308 -0.9904 -0.8766
14180SOL    HW243982   0.739   5.729   7.164 -0.0277 -0.4463 -0.3911
14181SOL     OW43983   5.672   1.343   0.153  0.4120  0.1085 -0.0142
14181SOL    HW143984   5.589   1.300   0.130 -0.4863  1.6996  0.1537
14181SOL    HW243985   5.706   1.292   0.226 -0.4151 -0.5631 -0.0817
14182SOL     OW43986   0.444   4.804   6.480 -0.2917  0.2632 -0.5992
14182SOL    HW143987   0.526   4.779   6.436  0.7802  0.9146  0.9396
14182SOL    HW243988   0.390   4.841   6.410  0.2088 -1.3188 -1.8911
14183SOL     OW43989   2.604   4.164   7.151 -0.3418  0.0950 -0.0908
14183SOL    HW143990   2.630   4.114   7.228  2.3427  0.3818 -0.7319
14183SOL    HW243991   2.548   4.104   7.101 -1.0708 -0.5277  1.4226
14184SOL     OW43992   2.634   3.745   0.333  0.1280 -0.2019 -0.2926
14184SOL    HW143993   2.628   3.704   0.419 -1.1112 -0.4559 -0.4802
14184SOL    HW243994   2.591   3.830   0.344 -0.9980 -0.6625 -0.8860
14185SOL     OW43995   2.555   5.433   7.552 -0.3771 -0.3187  0.5192
14185SOL    HW143996   2.590   5.391   7.473  0.0292 -0.8182  0.9628
14185SOL    HW243997   2.577   5.373   7.623 -2.2010 -0.6763  0.8108
14186SOL     OW43998   1.494   0.877   9.193 -0.2119 -0.0436  0.0412
14186SOL    HW143999   1.460   0.907   9.109 -1.5364 -3.1191 -0.6883
14186SOL    HW244000   1.446   0.928   9.258 -1.2079  0.4797 -1.0607
14187SOL     OW44001   5.259   0.115   4.489  0.4653  0.7544  0.2780
14187SOL    HW144002   5.233   0.138   4.578 -0.3698  1.9211 -0.2429
14187SOL    HW244003   5.193   0.157   4.433  0.4913 -0.6517 -0.8617
14188SOL     OW44004   6.068   3.832   2.446 -0.6546  0.1071 -0.6154
14188SOL    HW144005   6.122   3.784   2.384 -0.8532 -1.9481  0.7066
14188SOL    HW244006   6.130   3.859   2.515 -0.4934  2.0726 -1.4566
14189SOL     OW44007   3.090   4.477  11.358 -0.0296  0.2489 -0.4390
14189SOL    HW144008   3.049   4.412  11.415  1.3842 -0.6771 -0.4250
14189SOL    HW244009   3.020   4.540  11.340 -1.1269 -0.6445  0.4795
14190SOL     OW44010   5.309   0.151   3.193  0.1615 -0.0032  0.5614
14190SOL    HW144011   5.316   0.058   3.174  0.6793  0.5452 -2.4306
14190SOL    HW244012   5.398   0.178   3.218  0.1531 -0.1561  0.7641
14191SOL     OW44013   6.449   2.307   5.220 -0.0934 -0.5005  0.2427
14191SOL    HW144014   6.457   2.402   5.233 -0.9380 -0.3561 -0.2212
14191SOL    HW244015   6.448   2.296   5.125 -0.5523 -0.9270  0.2951
14192SOL     OW44016   5.321   2.580   6.319 -0.2678  0.3198 -0.1811
14192SOL    HW144017   5.313   2.676   6.324 -0.6535  0.5038 -2.7942
14192SOL    HW244018   5.263   2.555   6.247 -0.1936 -1.9079  0.4599
14193SOL     OW44019   0.916   2.715   9.706 -0.3651 -0.4210 -0.2202
14193SOL    HW144020   0.863   2.731   9.784  0.1490 -0.9817  0.2615
14193SOL    HW244021   0.883   2.631   9.672 -0.7016 -0.0958 -0.7116
14194SOL     OW44022   4.440   2.642   3.787  0.4670  0.6738  0.1962
14194SOL    HW144023   4.454   2.704   3.715 -1.5413  0.7282 -0.1927
14194SOL    HW244024   4.374   2.683   3.842 -1.1763 -1.2083 -0.2543
14195SOL     OW44025   4.532   2.113   0.317 -0.7337 -0.6421  0.0136
14195SOL    HW144026   4.502   2.022   0.324 -0.2086 -0.8261 -0.0275
14195SOL    HW244027   4.604   2.109   0.253  1.1848 -0.6984  2.0560
14196SOL     OW44028   2.941   5.560  11.262 -0.0438  0.0124  0.4669
14196SOL    HW144029   2.999   5.588  11.333 -1.7277  0.7020  1.6206
14196SOL    HW244030   2.923   5.468  11.279 -0.2161  0.1027  0.7730
14197SOL     OW44031   2.679   1.907   8.061 -0.1774  0.3301  0.4260
14197SOL    HW144032   2.747   1.850   8.025  0.3558  0.7141  0.8107
14197SOL    HW244033   2.623   1.928   7.986 -0.7161 -1.1423  0.3884
14198SOL     OW44034   4.022   5.465   2.149  0.2838  0.0624  0.0966
14198SOL    HW144035   4.071   5.388   2.120  0.6203 -0.1490  1.1815
14198SOL    HW244036   4.052   5.536   2.092 -0.8493 -0.8125 -1.6716
14199SOL     OW44037   5.798   0.540  10.779 -0.8636 -0.4424 -0.0475
14199SOL    HW144038   5.806   0.634  10.763 -2.7865 -0.0582  0.9993
14199SOL    HW244039   5.863   0.522  10.847 -1.1688  0.3559  0.4790
14200SOL     OW44040   0.546   5.683   2.609  0.1970  0.1687 -0.0223
14200SOL    HW144041   0.638   5.669   2.587  0.5950 -0.1769  1.7150
14200SOL    HW244042   0.548   5.732   2.691 -1.1770  0.2845 -0.0291
14201SOL     OW44043   1.708   6.555  12.233 -0.0511  0.0417 -0.1244
14201SOL    HW144044   1.729   6.464  12.214  1.5193  0.3459  0.0077
14201SOL    HW244045   1.780   6.586  12.288  1.0879  2.2087 -2.6087
14202SOL     OW44046   4.477   7.091   0.457  0.6518 -0.2281 -0.0748
14202SOL    HW144047   4.461   7.169   0.510  0.9736  0.6136 -1.1824
14202SOL    HW244048   4.394   7.074   0.413 -0.6249 -2.7969  2.9766
14203SOL     OW44049   6.860   2.701  10.327 -0.5586 -0.0374 -0.7836
14203SOL    HW144050   6.805   2.684  10.250 -0.4941 -0.0274 -0.8319
14203SOL    HW244051   6.803   2.684  10.402 -0.8575  0.7196 -0.8364
14204SOL     OW44052   1.368   4.091   1.689 -0.1848  0.2136  0.6043
14204SOL    HW144053   1.357   4.097   1.594  0.3232 -1.6216  0.3991
14204SOL    HW244054   1.280   4.071   1.721 -0.6688  2.2994  0.7136
14205SOL     OW44055   4.299   7.336  11.280  0.2286  0.2210 -0.2201
14205SOL    HW144056   4.316   7.358  11.188 -1.2960  1.5225 -0.2409
14205SOL    HW244057   4.204   7.328  11.285  0.2810  0.3655  1.2844
14206SOL     OW44058   6.974   0.541   5.728 -0.3503 -0.6828  0.8374
14206SOL    HW144059   7.003   0.561   5.817  2.2139  3.1673 -0.6003
14206SOL    HW244060   6.896   0.594   5.715  2.3937  3.4536 -0.6964
14207SOL     OW44061   0.231   4.540   1.307  0.4666  0.2550  0.0680
14207SOL    HW144062   0.316   4.582   1.321  1.7097 -2.2121  0.4921
14207SOL    HW244063   0.228   4.522   1.214  0.7130 -0.2151  0.1468
14208SOL     OW44064   0.127   3.741   7.643 -0.0466 -0.0266  0.5381
14208SOL    HW144065   0.202   3.763   7.588 -1.8087 -0.4868 -2.2623
14208SOL    HW244066   0.111   3.648   7.624 -0.5381 -0.2766  2.1013
14209SOL     OW44067   7.002   0.924   0.924 -0.3201  0.4617  0.1773
14209SOL    HW144068   7.053   1.004   0.938  0.0453  0.2540  0.0380
14209SOL    HW244069   7.042   0.860   0.981  1.3567 -0.4732 -1.9045
14210SOL     OW44070   7.829   5.938  12.062  0.1213 -0.3493  0.2653
14210SOL    HW144071   7.845   5.883  11.985 -0.0610 -0.6977  0.4755
14210SOL    HW244072   7.846   5.881  12.137  0.1277 -0.0617  0.4869
14211SOL     OW44073   6.801   3.296   6.772 -0.2497  0.2948 -0.1240
14211SOL    HW144074   6.828   3.336   6.855  0.6899  2.4994 -1.4160
14211SOL    HW244075   6.706   3.307   6.771 -0.0789  2.0342 -0.1658
14212SOL     OW44076   2.884   2.377   3.421  0.4359  0.3432  0.1853
14212SOL    HW144077   2.830   2.365   3.343  1.7783 -1.5299 -0.5243
14212SOL    HW244078   2.897   2.472   3.427 -2.4601  0.8471  0.1472
14213SOL     OW44079   7.451   5.876   6.014  0.2289  0.3136  0.2294
14213SOL    HW144080   7.541   5.894   6.042  1.6418 -3.4082 -1.2150
14213SOL    HW244081   7.411   5.833   6.089  1.0237 -1.4611 -0.2960
14214SOL     OW44082   1.793   2.154  12.226  0.0404  0.2500  0.7799
14214SOL    HW144083   1.782   2.063  12.201 -0.6726 -0.1414  2.3606
14214SOL    HW244084   1.877   2.180  12.188  0.2760 -1.0738  0.3447
14215SOL     OW44085   0.225   2.462   5.044 -0.0335 -0.7462  0.2203
14215SOL    HW144086   0.143   2.465   4.995 -0.4502 -1.7513  0.8348
14215SOL    HW244087   0.293   2.463   4.977 -0.5573 -0.4420 -0.3133
14216SOL     OW44088   6.830   2.075   3.406 -0.1015  0.2038 -0.1730
14216SOL    HW144089   6.829   2.122   3.322  0.2779  1.9843  0.7685
14216SOL    HW244090   6.745   2.093   3.445 -1.0856 -2.2998 -0.9962
14217SOL     OW44091   0.957   3.612   2.283 -0.2972 -0.5955  0.7394
14217SOL    HW144092   0.885   3.667   2.252  1.5705  2.2985  1.1342
14217SOL    HW244093   1.017   3.606   2.209 -0.0701 -1.3961  0.9780
14218SOL     OW44094   4.974   7.689   9.628  0.0001  0.1671  0.4047
14218SOL    HW144095   5.062   7.663   9.656  0.0882  0.2289  0.1868
14218SOL    HW244096   4.977   7.683   9.533  0.4342  2.2170  0.2379
14219SOL     OW44097   2.335   0.289   4.737 -0.3377 -0.0856  0.7045
14219SOL    HW144098   2.395   0.215   4.725 -0.2449 -0.0842  1.1527
14219SOL    HW244099   2.390   0.367   4.725 -0.6183 -0.0699 -0.7122
14220SOL     OW44100   7.084   0.018   2.153 -0.0170 -0.5911  0.2392
14220SOL    HW144101   7.158   0.026   2.213  0.3621 -2.0459  0.0142
14220SOL    HW244102   7.122   0.033   2.067 -0.5254  1.3078  0.3054
14221SOL     OW44103   5.958   7.076   9.344 -0.4154  0.8062 -0.2255
14221SOL    HW144104   5.965   6.980   9.338  2.2080  0.9731 -0.8135
14221SOL    HW244105   5.973   7.095   9.437 -2.1057  0.6353  0.1238
14222SOL     OW44106   3.310   1.262   1.925 -0.1033  0.7655  0.3243
14222SOL    HW144107   3.297   1.168   1.918  1.2851  0.5690  0.0319
14222SOL    HW244108   3.331   1.277   2.018  0.5152  0.6511  0.2100
14223SOL     OW44109   0.352   4.220   2.580  0.2043 -0.2286 -0.6972
14223SOL    HW144110   0.358   4.307   2.619 -0.0750  0.0181 -1.1915
14223SOL    HW244111   0.307   4.234   2.497 -0.7439 -0.9795 -0.3338
14224SOL     OW44112   2.526   0.181  10.857 -0.4423 -0.1389 -0.3171
14224SOL    HW144113   2.467   0.255  10.868  1.7744  1.6862  0.0507
14224SOL    HW244114   2.497   0.117  10.922 -0.4330  1.7987  1.6853
14225SOL     OW44115   6.419   3.047  11.104  0.2526  0.5245  0.4482
14225SOL    HW144116   6.390   3.082  11.020 -0.4022  0.6759  0.7252
14225SOL    HW244117   6.499   2.999  11.084 -0.7410 -0.8047 -0.5330
14226SOL     OW44118   5.283   1.553   3.567  0.0287 -0.1739  0.6233
14226SOL    HW144119   5.304   1.621   3.631  0.8446  0.0185  0.1712
14226SOL    HW244120   5.188   1.547   3.568 -0.0545  0.9668  0.6846
14227SOL     OW44121   6.009   7.024  11.709  0.1404  0.2680 -0.1987
14227SOL    HW144122   6.043   7.087  11.645  3.7221  0.7426  1.8964
14227SOL    HW244123   6.042   6.939  11.678 -3.0268 -0.4921 -1.9403
14228SOL     OW44124   7.904   4.708   7.779  0.3959  0.1041  0.3038
14228SOL    HW144125   7.824   4.751   7.747  0.3068 -0.5338 -0.3560
14228SOL    HW244126   7.876   4.657   7.855  0.4227  0.8678  0.8357
14229SOL     OW44127   0.811   5.867  12.196  0.3980 -0.8094 -0.1350
14229SOL    HW144128   0.895   5.883  12.239  0.1727  1.6390 -0.4498
14229SOL    HW244129   0.819   5.911  12.111 -0.6538 -1.9268 -0.8487
14230SOL     OW44130   5.325   3.956   1.927  0.1345 -0.2595  0.8248
14230SOL    HW144131   5.388   3.972   1.856 -0.8928  0.4744  0.0581
14230SOL    HW244132   5.281   3.875   1.901 -0.5497  0.2424  0.3701
14231SOL     OW44133   1.975   2.359   7.147  0.3733  0.5323  0.0363
14231SOL    HW144134   1.992   2.444   7.188  1.0060  1.2380 -1.5835
14231SOL    HW244135   2.019   2.365   7.062  0.5221 -1.4798 -0.0616
14232SOL     OW44136   1.814   6.110   2.832 -0.6806 -0.2985 -0.5547
14232SOL    HW144137   1.783   6.023   2.856 -0.7238  0.0661  0.7913
14232SOL    HW244138   1.743   6.169   2.857 -0.3064  0.2007 -0.6475
14233SOL     OW44139   5.398   1.097   5.767 -0.1280 -0.1288  0.5584
14233SOL    HW144140   5.312   1.056   5.775  0.1021 -0.7216  0.1128
14233SOL    HW244141   5.398   1.135   5.679  0.6936 -1.6813 -0.1635
14234SOL     OW44142   3.806   2.669   3.161 -1.0716  0.1581 -0.3932
14234SOL    HW144143   3.720   2.637   3.187 -0.2006 -1.0317  1.1562
14234SOL    HW244144   3.856   2.591   3.140 -0.7437  0.9002 -2.7329
14235SOL     OW44145   2.564   4.350   0.837  0.2363  0.0559 -0.3632
14235SOL    HW144146   2.534   4.269   0.879 -1.9739  1.5764  1.2312
14235SOL    HW244147   2.654   4.332   0.811  1.6965 -1.2920  4.6152
14236SOL     OW44148   7.102   1.077  11.714 -1.1254  0.6042  0.3181
14236SOL    HW144149   7.116   0.985  11.737 -2.7752  0.4013  0.6500
14236SOL    HW244150   7.184   1.104  11.673 -1.3403 -1.6831 -1.9202
14237SOL     OW44151   5.201   7.867   6.206 -0.1413  0.5792 -0.4828
14237SOL    HW144152   5.147   7.807   6.257 -0.3680  0.5750 -0.7222
14237SOL    HW244153   5.284   7.820   6.193 -1.1503 -0.7775 -2.7933
14238SOL     OW44154   3.601   2.353   6.195  0.2077 -0.1318  0.0895
14238SOL    HW144155   3.684   2.349   6.243  0.0680  1.6192  0.5751
14238SOL    HW244156   3.536   2.323   6.258  0.1996  0.8182  0.5593
14239SOL     OW44157   7.170   6.478   8.845 -0.0822 -0.2542  0.5374
14239SOL    HW144158   7.211   6.554   8.886 -2.0230  0.9552  0.3602
14239SOL    HW244159   7.095   6.514   8.798 -2.2594 -2.4441  2.0555
14240SOL     OW44160   5.614   6.287   8.856 -0.4834  0.6763 -0.0410
14240SOL    HW144161   5.568   6.214   8.898  0.0332  0.6250  0.4483
14240SOL    HW244162   5.547   6.354   8.844 -1.0745 -0.0603 -0.9495
14241SOL     OW44163   4.401   5.391   8.568 -0.0215  0.1641 -0.4300
14241SOL    HW144164   4.405   5.359   8.478  0.5980  0.2827 -0.4508
14241SOL    HW244165   4.491   5.385   8.599 -0.2598 -0.0171  0.2347
14242SOL     OW44166   5.322   2.341   3.079 -0.5267 -0.1105 -1.0267
14242SOL    HW144167   5.383   2.409   3.108  0.5748 -0.6336 -2.0845
14242SOL    HW244168   5.303   2.291   3.158  0.2429  0.1862 -0.6422
14243SOL     OW44169   0.510   6.950  10.068  0.2937  0.2329 -0.5125
14243SOL    HW144170   0.458   7.031  10.076 -0.0385  0.1154 -1.4218
14243SOL    HW244171   0.575   6.970  10.000 -0.1976 -0.4744 -1.1969
14244SOL     OW44172   4.145   0.227   7.452 -1.0595  0.3903 -0.5763
14244SOL    HW144173   4.118   0.137   7.434  2.7061 -0.8124 -0.9055
14244SOL    HW244174   4.106   0.279   7.382 -0.7816 -1.4753 -2.1658
14245SOL     OW44175   6.481   5.865   7.769  0.0823  0.4438 -0.7731
14245SOL    HW144176   6.553   5.854   7.831  3.5907  0.9288 -4.3333
14245SOL    HW244177   6.450   5.776   7.752  2.9858 -0.4233 -2.2713
14246SOL     OW44178   2.868   1.426   0.409  0.1784  0.1524 -0.1360
14246SOL    HW144179   2.949   1.402   0.364  0.1500  0.6623 -0.4622
14246SOL    HW244180   2.877   1.520   0.427  0.1515 -0.0255  0.8475
14247SOL     OW44181   0.814   1.254   1.545  0.0079  0.3941  0.0066
14247SOL    HW144182   0.828   1.234   1.637 -2.3639  1.9255  0.7638
14247SOL    HW244183   0.765   1.180   1.511  0.6176 -0.0286  0.0349
14248SOL     OW44184   6.894   4.865   0.932 -0.1029 -0.1068  0.5297
14248SOL    HW144185   6.917   4.912   0.852 -0.1655  0.2579  0.7218
14248SOL    HW244186   6.969   4.808   0.949  1.4207  2.1486  1.9765
14249SOL     OW44187   2.760   7.855  10.777  0.1940 -0.3824 -0.2514
14249SOL    HW144188   2.761   7.951  10.784 -1.7328 -0.2232 -1.4887
14249SOL    HW244189   2.679   7.835  10.730  0.6810 -2.6226 -0.2475
14250SOL     OW44190   4.621   3.448  10.053 -0.0265 -0.6321  0.4869
14250SOL    HW144191   4.608   3.499   9.972 -1.6131 -0.7336  0.6423
14250SOL    HW244192   4.689   3.384  10.031 -0.0581 -0.3124 -0.5946
14251SOL     OW44193   6.933   0.743   3.064  0.7413  0.0292 -0.1333
14251SOL    HW144194   6.857   0.688   3.083  0.9622 -0.5952 -1.0024
14251SOL    HW244195   6.896   0.826   3.036  0.3236 -0.5982 -1.5671
14252SOL     OW44196   3.517   7.005   0.935  0.6120  0.2592 -0.1080
14252SOL    HW144197   3.498   7.070   1.002  0.2002 -0.3356  0.3656
14252SOL    HW244198   3.591   7.041   0.886  1.1538  0.5372  0.8915
14253SOL     OW44199   5.159   0.433   4.120 -0.2050  0.1305  0.1121
14253SOL    HW144200   5.182   0.353   4.072 -0.1513  0.5962 -0.6485
14253SOL    HW244201   5.069   0.451   4.094 -0.4154  0.0038  0.7342
14254SOL     OW44202   4.409   0.614   2.609 -0.5239  0.0864 -0.2276
14254SOL    HW144203   4.501   0.605   2.635 -0.1748  0.1017 -1.3942
14254SOL    HW244204   4.409   0.599   2.514 -1.8566 -0.7800 -0.1184
14255SOL     OW44205   6.545   1.601  11.798 -0.0349 -0.2826 -1.0278
14255SOL    HW144206   6.612   1.669  11.809 -1.1007  0.5362  0.8184
14255SOL    HW244207   6.557   1.570  11.708  1.6908  1.0262 -1.3086
14256SOL     OW44208   1.564   2.789   1.122  0.8066  0.1669  0.1968
14256SOL    HW144209   1.635   2.733   1.089 -0.1788  1.0218 -3.9383
14256SOL    HW244210   1.603   2.876   1.127  0.5752  0.3058 -0.2959
14257SOL     OW44211   7.739   7.307  10.414 -0.5616 -0.2716  0.2399
14257SOL    HW144212   7.713   7.311  10.506 -2.0702 -0.4546 -0.1565
14257SOL    HW244213   7.750   7.399  10.388  1.1571 -0.2476  0.9187
14258SOL     OW44214   3.374   7.278   5.441 -0.2745  0.0741  0.2380
14258SOL    HW144215   3.296   7.225   5.457 -0.8464  0.8221 -0.0064
14258SOL    HW244216   3.343   7.368   5.442  0.4346  0.3542 -0.6867
14259SOL     OW44217   6.106   0.667  12.411  0.7523  0.2800  0.0618
14259SOL    HW144218   6.169   0.598  12.430  0.5275 -0.3396 -1.3849
14259SOL    HW244219   6.078   0.697  12.498  1.4566 -0.8654  0.7167
14260SOL     OW44220   1.475   7.115  12.339 -0.1044  0.4087 -0.1270
14260SOL    HW144221   1.454   7.199  12.297  0.2164  0.9647  0.8047
14260SOL    HW244222   1.550   7.082  12.290  1.0273  1.6251  0.7269
14261SOL     OW44223   1.172   4.261   4.394 -0.0112  0.4456 -0.3778
14261SOL    HW144224   1.222   4.255   4.313  0.1371  2.5591 -0.5147
14261SOL    HW244225   1.182   4.353   4.421 -1.1878  0.1248  1.2938
14262SOL     OW44226   5.763   2.222  12.239 -0.4910  0.0783  0.0397
14262SOL    HW144227   5.815   2.169  12.179  0.1227  0.3959  0.2930
14262SOL    HW244228   5.683   2.171  12.253 -0.1800 -0.4782 -0.2200
14263SOL     OW44229   0.790   5.067  10.143  0.1328 -0.0557 -0.3431
14263SOL    HW144230   0.723   5.000  10.133 -0.6888  0.7170 -0.1920
14263SOL    HW244231   0.744   5.141  10.183  0.9051  0.7585 -0.9094
14264SOL     OW44232   0.303   7.314   5.832  0.0605 -0.1302 -0.3718
14264SOL    HW144233   0.213   7.287   5.812 -0.4261  0.5280  0.7759
14264SOL    HW244234   0.310   7.401   5.794 -0.2988  0.4178  0.7564
14265SOL     OW44235   2.540   2.285   9.619  0.6484  0.0615 -0.3858
14265SOL    HW144236   2.548   2.309   9.711 -0.7150 -0.6361 -0.0561
14265SOL    HW244237   2.630   2.268   9.590  1.0135 -0.5978  1.0655
14266SOL     OW44238   7.288   3.870   1.780  0.0010 -0.3647  0.3178
14266SOL    HW144239   7.368   3.831   1.745  0.1157 -0.5615  0.7829
14266SOL    HW244240   7.258   3.807   1.846 -1.1029 -0.7934 -0.5574
14267SOL     OW44241   1.547   0.866  12.474 -0.7001  0.6149 -0.6553
14267SOL    HW144242   1.483   0.864  12.544  0.9998 -1.2872  1.0096
14267SOL    HW244243   1.542   0.778  12.435  0.9125  0.3676 -0.3850
14268SOL     OW44244   5.998   7.052   3.699  0.1267 -0.4355 -0.4629
14268SOL    HW144245   5.969   7.110   3.629 -0.5039 -1.4191 -1.0565
14268SOL    HW244246   6.070   7.098   3.742  0.1967  0.3958 -1.4520
14269SOL     OW44247   1.542   6.457  11.425 -0.1098  0.6044 -0.2869
14269SOL    HW144248   1.585   6.457  11.340 -0.1892  2.3959 -0.3584
14269SOL    HW244249   1.613   6.437  11.487 -0.2229 -1.6377 -0.7871
14270SOL     OW44250   7.141   0.807   5.669 -0.3075 -0.5901 -0.4813
14270SOL    HW144251   7.149   0.819   5.764 -1.6458 -2.2354 -0.0994
14270SOL    HW244252   7.046   0.806   5.653 -0.0995 -0.0243 -1.8905
14271SOL     OW44253   6.651   7.845   9.787 -0.5572  0.0976 -0.1362
14271SOL    HW144254   6.674   7.923   9.736 -1.7676 -0.4269 -1.5705
14271SOL    HW244255   6.714   7.779   9.758 -1.2275 -0.1924 -0.9802
14272SOL     OW44256   4.892   3.566  10.740  0.2842  0.8280  0.4048
14272SOL    HW144257   4.889   3.653  10.778  1.3208  0.0111  2.5257
14272SOL    HW244258   4.800   3.539  10.732 -0.2614  3.0992 -2.9804
14273SOL     OW44259   0.676   5.619   0.062  0.3238  0.1517 -0.2287
14273SOL    HW144260   0.752   5.642   0.115 -0.1981 -0.0421  0.6295
14273SOL    HW244261   0.633   5.703   0.043 -0.3020  0.1139  0.9336
14274SOL     OW44262   7.543   1.547   3.707  0.1371 -0.0261 -0.2403
14274SOL    HW144263   7.570   1.582   3.792 -0.3655 -0.5393  0.1413
14274SOL    HW244264   7.528   1.625   3.652  1.7492  0.2847 -0.2831
14275SOL     OW44265   7.166   1.485   6.205 -0.2219  0.2371 -0.3988
14275SOL    HW144266   7.191   1.577   6.201 -0.3592  0.2476 -1.1011
14275SOL    HW244267   7.109   1.472   6.129  0.7992 -0.7194 -1.0239
14276SOL     OW44268   3.237   7.222  11.008  0.0219 -0.3461  1.0048
14276SOL    HW144269   3.321   7.235  10.963  0.5570  0.3427  2.1612
14276SOL    HW244270   3.220   7.128  10.999  1.4353 -0.6898  1.6087
14277SOL     OW44271   4.012   1.531  10.747 -0.1664 -0.5376 -0.1764
14277SOL    HW144272   3.944   1.547  10.812  0.0132 -1.4400  0.2563
14277SOL    HW244273   3.966   1.487  10.675 -0.8894  2.6477 -1.8656
14278SOL     OW44274   6.073   6.397   5.650  0.0757  0.1075 -0.0183
14278SOL    HW144275   5.994   6.368   5.696 -0.9733  0.4537 -1.5214
14278SOL    HW244276   6.091   6.327   5.588  1.3100 -0.2197  0.6749
14279SOL     OW44277   5.232   3.964   6.904  0.0819  1.0830 -0.1706
14279SOL    HW144278   5.211   4.036   6.845  2.1775  1.9276  0.0053
14279SOL    HW244279   5.256   3.892   6.846 -2.0850  0.4311 -0.3480
14280SOL     OW44280   5.572   6.113   4.830  0.3990  0.0761  0.4262
14280SOL    HW144281   5.490   6.155   4.858  0.4376  0.8295 -0.4964
14280SOL    HW244282   5.546   6.024   4.807 -0.3800  0.5537 -0.7065
14281SOL     OW44283   2.401   5.821   8.541  0.1823  0.1976 -0.1349
14281SOL    HW144284   2.418   5.873   8.620 -0.5527  0.5240 -0.1895
14281SOL    HW244285   2.346   5.749   8.571 -1.9951  1.5474 -0.7223
14282SOL     OW44286   3.809   1.101   7.631  0.2795  0.3628  0.0056
14282SOL    HW144287   3.797   1.170   7.566 -1.8268 -0.5273 -0.6176
14282SOL    HW244288   3.812   1.147   7.715 -1.5652  1.2144 -0.3550
14283SOL     OW44289   7.542   0.362   6.965  0.0040  0.4674  0.0972
14283SOL    HW144290   7.562   0.454   6.946  0.9696  0.3440  0.4347
14283SOL    HW244291   7.583   0.346   7.050 -1.0454 -0.0024  0.5265
14284SOL     OW44292   0.336   7.183   8.068  0.2709  0.3142 -0.0680
14284SOL    HW144293   0.362   7.177   8.160 -0.1949 -1.8348 -0.0380
14284SOL    HW244294   0.242   7.168   8.069  0.2363  0.4607 -0.8975
14285SOL     OW44295   2.134   7.443   8.461  0.0118  0.5070 -0.2559
14285SOL    HW144296   2.169   7.386   8.530 -0.4456  1.9368  1.2344
14285SOL    HW244297   2.206   7.502   8.440 -0.4445  1.3338  0.4399
14286SOL     OW44298   0.790   3.530   3.303 -0.8746 -0.1622  0.7010
14286SOL    HW144299   0.821   3.560   3.389  1.0450 -0.1765  0.0524
14286SOL    HW244300   0.809   3.603   3.244  2.2871 -1.8190 -0.5728
14287SOL     OW44301   7.868   3.136   5.840  0.2948  0.4577  0.2120
14287SOL    HW144302   7.829   3.076   5.904 -0.4762 -1.2988 -1.7770
14287SOL    HW244303   7.808   3.134   5.766  1.2664  2.2441 -0.6836
14288SOL     OW44304   6.808   2.766   3.040  0.5093 -0.5515  0.0757
14288SOL    HW144305   6.775   2.855   3.040  1.4242 -0.2040 -0.2362
14288SOL    HW244306   6.896   2.772   3.079  0.7347 -1.2443 -0.2937
14289SOL     OW44307   3.505   4.262  12.457 -0.8955  0.5293  0.2992
14289SOL    HW144308   3.475   4.178  12.492 -0.4018  0.2034 -0.0544
14289SOL    HW244309   3.431   4.321  12.472 -1.8384 -0.3160 -0.7770
14290SOL     OW44310   3.906   0.858   3.904 -0.1980  0.3203  0.3574
14290SOL    HW144311   3.924   0.937   3.853 -0.4797  0.7173  0.8589
14290SOL    HW244312   3.993   0.821   3.923 -0.1172 -0.3364 -1.1595
14291SOL     OW44313   0.664   7.261   5.533  0.3758  0.7252 -0.4303
14291SOL    HW144314   0.679   7.341   5.585 -2.3843  2.1688 -1.6103
14291SOL    HW244315   0.642   7.294   5.446 -0.3848 -1.3841 -1.0771
14292SOL     OW44316   3.019   0.128   9.995  0.1413 -0.2597 -0.7774
14292SOL    HW144317   2.985   0.066  10.058 -0.9049 -1.3426 -2.3359
14292SOL    HW244318   2.981   0.212  10.020  0.7937 -0.3975  0.7649
14293SOL     OW44319   7.466   3.641   2.117  0.3480  0.0065  0.1966
14293SOL    HW144320   7.425   3.624   2.202 -0.9774  2.6287  0.1730
14293SOL    HW244321   7.458   3.736   2.105  1.6155 -0.1299 -2.3224
14294SOL     OW44322   6.563   4.891   2.440  0.1471 -0.1633  0.4778
14294SOL    HW144323   6.580   4.981   2.413 -1.7833 -0.1624 -0.9790
14294SOL    HW244324   6.505   4.899   2.516 -1.4834 -0.1049 -0.7126
14295SOL     OW44325   5.708   0.535   2.241  0.7737  0.6741 -0.5174
14295SOL    HW144326   5.614   0.522   2.242  0.5412  2.2099 -0.3834
14295SOL    HW244327   5.732   0.529   2.148  0.9647 -2.1123 -0.3810
14296SOL     OW44328   6.285   3.905   2.598  0.3459  0.2177  0.1938
14296SOL    HW144329   6.297   3.886   2.691  0.7981  0.3854  0.1729
14296SOL    HW244330   6.372   3.930   2.567  0.0113  1.1248 -0.0497
14297SOL     OW44331   7.018   4.434  11.657 -0.5084  0.1547 -0.1600
14297SOL    HW144332   6.934   4.436  11.610 -0.3008 -2.3887 -0.7730
14297SOL    HW244333   6.997   4.399  11.743  0.0070 -1.5624 -0.6860
14298SOL     OW44334   2.060   5.207   8.193  0.0280  0.2729  0.0755
14298SOL    HW144335   2.148   5.244   8.185  1.2429 -2.3294  0.3698
14298SOL    HW244336   2.053   5.182   8.285 -0.2678 -1.2349 -0.3319
14299SOL     OW44337   1.695   6.737   6.674  0.1474 -0.5584 -0.0816
14299SOL    HW144338   1.753   6.685   6.728  1.5567 -0.6282 -1.5946
14299SOL    HW244339   1.727   6.827   6.683  1.7104 -0.8109 -2.2709
14300SOL     OW44340   6.782   7.372   1.013 -0.2170  0.5052  0.2778
14300SOL    HW144341   6.841   7.448   1.017  1.5739 -0.8376  0.6661
14300SOL    HW244342   6.705   7.399   1.063  1.5031  1.1819  2.7702
14301SOL     OW44343   1.510   0.867  10.895  0.1771  0.1715 -0.5340
14301SOL    HW144344   1.595   0.846  10.858 -0.7533 -2.4227 -1.4264
14301SOL    HW244345   1.477   0.784  10.929  0.0613  1.9441  4.4659
14302SOL     OW44346   3.684   3.471   7.808 -0.1767  0.4685  0.1982
14302SOL    HW144347   3.600   3.433   7.831 -0.5363  1.5196  0.7232
14302SOL    HW244348   3.668   3.566   7.808  1.1154  0.7181  0.8494
14303SOL     OW44349   2.185   2.733   1.851 -0.0299  0.2272  0.2304
14303SOL    HW144350   2.117   2.717   1.786 -1.1972  1.8830  0.9934
14303SOL    HW244351   2.238   2.652   1.851 -2.1216 -1.2108 -0.1794
14304SOL     OW44352   1.531   0.194   8.082  0.3446 -0.0591  0.0761
14304SOL    HW144353   1.592   0.182   8.009 -0.4280 -0.0744 -0.5867
14304SOL    HW244354   1.540   0.286   8.106  1.2947 -0.2779  0.6071
14305SOL     OW44355   0.305   6.370   0.158  0.1263 -0.1781  0.3221
14305SOL    HW144356   0.365   6.305   0.122  0.7533  1.0794 -0.9937
14305SOL    HW244357   0.320   6.367   0.252  2.0759 -0.0852  0.0502
14306SOL     OW44358   1.352   2.829  10.477 -0.1211  0.2181  0.1725
14306SOL    HW144359   1.293   2.774  10.426  1.5492 -2.0799  0.5878
14306SOL    HW244360   1.440   2.809  10.443  0.8920 -0.1765  2.7605
14307SOL     OW44361   4.263   1.286   7.152  0.5725  0.0893  0.2094
14307SOL    HW144362   4.315   1.244   7.220  1.0497  1.3209  0.6324
14307SOL    HW244363   4.208   1.349   7.198 -0.3566 -0.2561 -0.3767
14308SOL     OW44364   7.893   0.403  12.050 -0.3767  0.7097 -0.3144
14308SOL    HW144365   7.853   0.458  12.118  2.8306  2.7307  0.1512
14308SOL    HW244366   7.972   0.368  12.091  0.2586 -0.2207 -2.2124
14309SOL     OW44367   4.540   2.866   4.477 -0.0935  0.3034  0.4457
14309SOL    HW144368   4.579   2.800   4.534 -1.0620 -0.7439 -0.0493
14309SOL    HW244369   4.445   2.851   4.485 -0.3042  1.2468 -0.1401
14310SOL     OW44370   0.545   1.788   6.729  0.0579  0.3150  0.8004
14310SOL    HW144371   0.596   1.707   6.726 -1.1076 -0.4173 -0.1841
14310SOL    HW244372   0.508   1.795   6.641 -1.3271  0.9510  1.4197
14311SOL     OW44373   7.837   5.923   7.083  0.1913 -0.2357  0.4170
14311SOL    HW144374   7.815   5.831   7.097  0.9776 -0.1719  2.3722
14311SOL    HW244375   7.932   5.923   7.067  0.3743  0.3030  1.4231
14312SOL     OW44376   5.062   6.889   9.856 -0.0278  0.1655 -0.1827
14312SOL    HW144377   4.999   6.950   9.894 -0.1438 -0.1955  0.2012
14312SOL    HW244378   5.009   6.819   9.818  0.0594  0.7114 -1.3777
14313SOL     OW44379   4.709   7.480   9.475 -0.0428 -0.5824  0.3652
14313SOL    HW144380   4.667   7.445   9.397  1.1556 -2.6712  0.5706
14313SOL    HW244381   4.786   7.527   9.443  0.2235 -1.0925  0.2445
14314SOL     OW44382   2.187   7.641   1.758 -0.0902 -0.4242 -0.0634
14314SOL    HW144383   2.126   7.572   1.785  1.1707 -1.1164  1.1535
14314SOL    HW244384   2.241   7.599   1.690 -0.8161  0.1355 -1.0184
14315SOL     OW44385   3.743   1.316   9.060 -0.1444 -0.0536  0.1181
14315SOL    HW144386   3.720   1.406   9.079 -0.5838  0.0265 -0.7166
14315SOL    HW244387   3.712   1.302   8.970  1.7442 -0.4010 -0.5369
14316SOL     OW44388   1.256   1.975  11.647 -0.1781  0.1396 -0.1111
14316SOL    HW144389   1.233   2.063  11.676  1.0718 -0.2254  2.2382
14316SOL    HW244390   1.351   1.968  11.663  0.2604 -0.8335 -2.5595
14317SOL     OW44391   4.899   7.573   1.427  0.1370 -0.0097 -0.5089
14317SOL    HW144392   4.863   7.561   1.515  2.2010  0.1165  0.3949
14317SOL    HW244393   4.876   7.663   1.404 -0.0969  0.0791  0.0587
14318SOL     OW44394   6.408   6.734   3.416  0.2620 -0.0047  0.6148
14318SOL    HW144395   6.454   6.651   3.425  1.7318  0.8625  1.5312
14318SOL    HW244396   6.435   6.767   3.331 -0.6088 -0.6197  0.0923
14319SOL     OW44397   4.981   1.623   6.803  0.1995  0.1773  0.0151
14319SOL    HW144398   4.936   1.675   6.736  2.8447  0.9664 -1.2665
14319SOL    HW244399   5.061   1.672   6.822  0.0447 -0.5518  3.0778
14320SOL     OW44400   3.263   6.824   4.090 -0.1973  0.0277  0.5546
14320SOL    HW144401   3.185   6.879   4.102 -1.0152 -0.8270 -0.6367
14320SOL    HW244402   3.248   6.779   4.007  1.0195 -1.0798  0.9097
14321SOL     OW44403   2.433   7.119   1.489  0.0550 -0.6861  0.5022
14321SOL    HW144404   2.478   7.096   1.570  2.4134  0.3300 -0.4240
14321SOL    HW244405   2.467   7.206   1.466 -0.3694 -1.0227 -1.6578
14322SOL     OW44406   2.819   1.590   2.835  0.9192  0.5816  0.2065
14322SOL    HW144407   2.897   1.642   2.814  0.2658  1.6581  0.4037
14322SOL    HW244408   2.779   1.572   2.750  0.8455  0.8736  0.1790
14323SOL     OW44409   5.628   5.195   2.408  0.3300  0.0593 -0.0376
14323SOL    HW144410   5.621   5.112   2.362 -0.3642 -0.3716  0.8202
14323SOL    HW244411   5.619   5.261   2.339 -0.8023 -0.5651 -0.5132
14324SOL     OW44412   0.848   6.945   8.093 -0.1635  0.4907  0.4294
14324SOL    HW144413   0.902   7.023   8.109 -0.2898  0.8769 -0.9040
14324SOL    HW244414   0.826   6.950   8.000  0.8962 -1.8367  0.0026
14325SOL     OW44415   3.442   0.203  11.806 -0.8398  0.2805  0.0013
14325SOL    HW144416   3.505   0.261  11.763 -0.3904 -0.3797 -0.2492
14325SOL    HW244417   3.478   0.115  11.793 -0.7829  0.0359  1.5666
14326SOL     OW44418   5.663   4.525   5.679  0.2415 -0.0325 -0.0038
14326SOL    HW144419   5.573   4.525   5.646  0.2357  0.5372 -0.0086
14326SOL    HW244420   5.667   4.454   5.742  0.3793 -1.4729 -1.5756
14327SOL     OW44421   5.064   2.608  10.011  0.3659 -0.2192 -0.0913
14327SOL    HW144422   5.027   2.622   9.924  1.0715 -0.8068 -0.4955
14327SOL    HW244423   4.988   2.595  10.068 -0.0806 -0.3498 -0.7157
14328SOL     OW44424   4.089   2.961   7.936 -0.2124  0.3855  0.3866
14328SOL    HW144425   4.143   3.039   7.948 -0.5598  0.7981 -0.6261
14328SOL    HW244426   4.007   2.981   7.981 -2.3210  2.7655 -3.8603
14329SOL     OW44427   2.667   7.812   7.074 -0.3175 -0.1928 -0.6520
14329SOL    HW144428   2.694   7.873   7.005 -1.1184  1.1333  0.1707
14329SOL    HW244429   2.573   7.824   7.082 -0.1001  0.4839  1.3887
14330SOL     OW44430   2.727   7.499   8.429 -0.6431  0.2112  0.1037
14330SOL    HW144431   2.781   7.509   8.507 -0.5797  0.0066  0.0867
14330SOL    HW244432   2.682   7.583   8.420 -0.2417  0.4289  0.0535
14331SOL     OW44433   5.994   5.255   8.313  0.3598  0.2709 -0.1483
14331SOL    HW144434   5.960   5.250   8.224 -0.2144  2.8093 -0.1657
14331SOL    HW244435   5.917   5.248   8.369  0.5279  0.2159  0.0804
14332SOL     OW44436   5.107   7.541   6.099 -0.5094 -0.1361 -0.1414
14332SOL    HW144437   5.050   7.591   6.040  1.9654  1.6109 -1.2592
14332SOL    HW244438   5.099   7.585   6.183 -0.0970  0.7447 -0.5468
14333SOL     OW44439   6.284   6.778   3.004 -0.1281 -0.1262 -0.4880
14333SOL    HW144440   6.222   6.711   3.032 -2.1363  1.8899  0.2157
14333SOL    HW244441   6.272   6.785   2.909 -2.2378  1.2842 -0.1953
14334SOL     OW44442   2.913   0.876  12.025  0.3933  0.1720 -0.3217
14334SOL    HW144443   2.945   0.839  11.943  0.4708 -0.2067 -0.1263
14334SOL    HW244444   2.974   0.946  12.046 -0.2185  0.9542 -1.1124
14335SOL     OW44445   2.364   3.834  10.923 -0.1103  0.3669  0.6740
14335SOL    HW144446   2.354   3.748  10.964 -2.5931  0.9578  1.4537
14335SOL    HW244447   2.440   3.824  10.866  0.4197 -1.9701  1.6706
14336SOL     OW44448   7.631   0.228   9.216 -0.4526 -0.0709  0.1057
14336SOL    HW144449   7.544   0.214   9.179 -0.8046 -0.8454  1.1675
14336SOL    HW244450   7.625   0.191   9.304 -0.2194  3.3522  1.7082
14337SOL     OW44451   0.408   0.779   4.550 -0.9405 -0.0992 -0.7992
14337SOL    HW144452   0.449   0.856   4.509  1.0805 -0.4385  0.4773
14337SOL    HW244453   0.357   0.739   4.479 -1.0510  1.7066 -1.8063
14338SOL     OW44454   0.673   0.735   5.384  0.2072  0.2143 -0.4373
14338SOL    HW144455   0.651   0.743   5.476  1.5678 -0.8913  0.0260
14338SOL    HW244456   0.658   0.643   5.363  1.0632  0.1816 -0.9824
14339SOL     OW44457   5.881   0.790  10.341 -0.4351  0.0689  0.1789
14339SOL    HW144458   5.955   0.832  10.383 -1.9289  0.8659  2.2117
14339SOL    HW244459   5.863   0.844  10.264  1.7125 -0.8015 -1.0188
14340SOL     OW44460   7.627   5.217  10.137 -0.2880 -0.2226 -0.4143
14340SOL    HW144461   7.579   5.207  10.055 -0.5117 -0.1982 -0.2850
14340SOL    HW244462   7.701   5.157  10.128 -0.4012 -0.3407 -0.5667
14341SOL     OW44463   2.712   6.463   2.961 -0.1369  0.4332 -0.1176
14341SOL    HW144464   2.778   6.421   3.016 -1.2305 -0.9209  0.2198
14341SOL    HW244465   2.663   6.519   3.020  0.8343  1.6302 -0.4163
14342SOL     OW44466   0.989   7.982   3.318  0.0160 -0.2503 -0.0069
14342SOL    HW144467   1.070   8.034   3.317  0.2811 -0.6723 -0.7968
14342SOL    HW244468   1.005   7.914   3.383  1.0309 -1.4561 -1.4490
14343SOL     OW44469   5.638   5.190  12.062  0.1643 -0.7223  0.4223
14343SOL    HW144470   5.543   5.182  12.057  0.1369 -0.0024 -0.6437
14343SOL    HW244471   5.671   5.102  12.043 -0.2866 -1.0527  1.1371
14344SOL     OW44472   2.107   4.589   1.143 -0.4633  0.6001  0.0019
14344SOL    HW144473   2.060   4.512   1.175  0.1617 -0.1809 -0.9323
14344SOL    HW244474   2.039   4.656   1.135 -1.5077 -0.5888 -1.6092
14345SOL     OW44475   4.724   6.663   7.055 -0.2135  0.3183 -0.3820
14345SOL    HW144476   4.637   6.700   7.070 -0.1958  0.8436 -1.4253
14345SOL    HW244477   4.771   6.732   7.007  1.0395  0.3463  0.8275
14346SOL     OW44478   3.278   6.203   1.220  0.2255 -0.0993  0.1613
14346SOL    HW144479   3.321   6.120   1.239 -1.9883 -1.0605  1.2930
14346SOL    HW244480   3.293   6.217   1.126  1.1693 -1.4201  0.0884
14347SOL     OW44481   2.351   7.844   0.190  0.0474 -0.5580  0.2382
14347SOL    HW144482   2.322   7.877   0.105 -1.5755 -1.3977  0.4340
14347SOL    HW244483   2.329   7.751   0.189  1.1347 -0.8539  1.1224
14348SOL     OW44484   5.621   2.233  11.199  0.2614  0.1587 -0.0755
14348SOL    HW144485   5.625   2.216  11.294 -1.2688 -1.2653 -0.2115
14348SOL    HW244486   5.581   2.319  11.192  2.6442  1.4240  0.5594
14349SOL     OW44487   4.695   0.614   5.782 -0.1157  0.2546  0.1035
14349SOL    HW144488   4.648   0.591   5.862 -0.6287  1.5116  0.1824
14349SOL    HW244489   4.650   0.691   5.749  0.6058  0.2404 -0.9616
14350SOL     OW44490   0.232   7.096   6.092 -0.0440 -0.6115  0.0581
14350SOL    HW144491   0.210   7.189   6.090  2.1782 -0.0052  1.2540
14350SOL    HW244492   0.222   7.067   6.001 -3.5278  0.0098  0.0887
14351SOL     OW44493   1.435   2.135   7.481  0.3697 -0.3547 -1.1020
14351SOL    HW144494   1.443   2.055   7.534 -0.4068 -0.1611 -0.6644
14351SOL    HW244495   1.425   2.205   7.546 -0.7900 -0.1388 -1.4818
14352SOL     OW44496   0.966   1.089   0.724 -0.3165  0.0775  0.1559
14352SOL    HW144497   0.896   1.101   0.659  0.0331 -0.8461 -0.4024
14352SOL    HW244498   1.045   1.076   0.672  0.2359  0.7866  0.7876
14353SOL     OW44499   1.373   3.214   8.886 -0.1773 -0.0579  0.0834
14353SOL    HW144500   1.423   3.147   8.931 -1.0097  0.7886  2.4155
14353SOL    HW244501   1.427   3.293   8.894 -0.9596  0.4151  0.9103
14354SOL     OW44502   1.925   1.144   0.414 -0.2831 -0.0129 -0.5108
14354SOL    HW144503   2.009   1.101   0.398  0.1467  0.8600 -0.6093
14354SOL    HW244504   1.922   1.157   0.509  0.1794  0.9385 -0.6233
14355SOL     OW44505   0.521   3.644   7.215 -0.0080 -0.4053  0.9388
14355SOL    HW144506   0.481   3.720   7.172  1.8501  0.4581  0.6118
14355SOL    HW244507   0.615   3.652   7.195  0.3764 -2.2243  1.7887
14356SOL     OW44508   2.832   6.692  11.377 -0.2357 -0.1752 -0.6501
14356SOL    HW144509   2.783   6.774  11.369 -0.2266 -0.2702 -1.7595
14356SOL    HW244510   2.809   6.641  11.300  0.3734 -0.8939 -0.3781
14357SOL     OW44511   2.646   6.651   9.290  0.1243 -0.5350 -0.3095
14357SOL    HW144512   2.594   6.620   9.364  0.3131 -1.1624 -0.4323
14357SOL    HW244513   2.737   6.645   9.319  0.1408  0.3971 -0.1567
14358SOL     OW44514   3.594   3.402   1.113  0.3726  0.0962  0.0229
14358SOL    HW144515   3.547   3.364   1.187 -0.7578  1.1198 -0.1521
14358SOL    HW244516   3.529   3.454   1.067  1.3184  0.3189 -1.1058
14359SOL     OW44517   5.123   5.633  11.821  0.0179 -0.5324 -0.5144
14359SOL    HW144518   5.179   5.709  11.805  0.9529 -0.6399  1.8072
14359SOL    HW244519   5.103   5.599  11.734  1.1624  1.2381 -1.5334
14360SOL     OW44520   3.126   6.595   2.032 -0.0579  0.7439  0.1243
14360SOL    HW144521   3.205   6.544   2.053 -0.1575 -0.4589 -2.1992
14360SOL    HW244522   3.054   6.545   2.071  0.1329  0.8054  0.5641
14361SOL     OW44523   7.834   1.293   6.972  0.1517 -0.2319  0.2016
14361SOL    HW144524   7.807   1.299   7.064 -2.1995 -1.0325 -0.3763
14361SOL    HW244525   7.855   1.201   6.959  1.0923 -0.0098  0.0558
14362SOL     OW44526   4.838   4.867  12.415 -0.0054  0.0395 -0.1471
14362SOL    HW144527   4.802   4.779  12.424 -0.4761  0.0028 -1.9746
14362SOL    HW244528   4.932   4.853  12.401 -0.0785 -0.1893 -0.4264
14363SOL     OW44529   5.483   3.393   9.559  0.2051 -0.3478 -0.4386
14363SOL    HW144530   5.407   3.377   9.504  0.0553 -1.8189  0.1666
14363SOL    HW244531   5.542   3.320   9.541  0.0947 -0.9425  1.4102
14364SOL     OW44532   2.930   2.725   3.452 -0.4227 -0.2794  0.7665
14364SOL    HW144533   2.949   2.751   3.542 -1.0113  1.7808  0.3628
14364SOL    HW244534   2.987   2.780   3.398 -0.4983 -1.0562 -0.1286
14365SOL     OW44535   1.826   4.864   7.029  0.0553  0.1920  0.5880
14365SOL    HW144536   1.905   4.828   6.990 -0.3330 -1.3221  1.1381
14365SOL    HW244537   1.755   4.834   6.973 -0.2442  0.4650  0.8143
14366SOL     OW44538   4.482   0.279   2.530  0.2066  0.0113 -0.4752
14366SOL    HW144539   4.482   0.298   2.624  0.0232 -1.3043 -0.1795
14366SOL    HW244540   4.426   0.202   2.522  2.3256 -1.5534 -1.2758
14367SOL     OW44541   5.299   7.806   7.449 -0.2503  0.1148 -0.0350
14367SOL    HW144542   5.245   7.731   7.472 -0.2050  0.5094  1.5100
14367SOL    HW244543   5.353   7.776   7.376 -1.8325 -0.5922 -0.9598
14368SOL     OW44544   7.174   7.818   9.493  0.2567  0.1784 -0.0244
14368SOL    HW144545   7.132   7.879   9.552 -0.0760  1.0134 -1.0902
14368SOL    HW244546   7.102   7.780   9.442  0.3994 -1.5090  0.9682
14369SOL     OW44547   2.742   5.671   7.542 -0.1021 -0.1798  0.0291
14369SOL    HW144548   2.709   5.704   7.458 -1.8545 -0.6309  0.4940
14369SOL    HW244549   2.677   5.607   7.569  0.5229 -0.1705  1.6569
14370SOL     OW44550   7.520   4.261   6.005 -0.2694  0.1030  0.2259
14370SOL    HW144551   7.479   4.253   5.919 -1.0344 -0.9724  0.6641
14370SOL    HW244552   7.448   4.282   6.065  0.2348  0.7388  0.6219
14371SOL     OW44553   5.979   6.503   8.066 -0.1835 -0.2173  0.4763
14371SOL    HW144554   5.967   6.597   8.075  0.5341 -0.2080  1.5640
14371SOL    HW244555   5.927   6.479   7.990 -0.6800  0.9938  0.4140
14372SOL     OW44556   0.554   0.040  10.064  0.4382  0.2097  0.7910
14372SOL    HW144557   0.625   0.002  10.012  1.8871  2.4587  1.0203
14372SOL    HW244558   0.498   0.084  10.000 -0.0684 -0.4802  0.7471
14373SOL     OW44559   1.222   5.557   3.088  0.6534  0.1102 -0.3462
14373SOL    HW144560   1.151   5.504   3.125  0.7277  1.7939  2.4213
14373SOL    HW244561   1.301   5.523   3.130  1.1784 -0.0077 -1.4027
14374SOL     OW44562   3.663   1.593   9.014 -0.3417  0.1886  0.1871
14374SOL    HW144563   3.591   1.605   9.076 -0.4101  1.7273 -0.1308
14374SOL    HW244564   3.621   1.597   8.927  0.0240  0.4109  0.0161
14375SOL     OW44565   3.209   6.990  11.299 -0.4286 -0.0413 -0.2343
14375SOL    HW144566   3.296   6.960  11.274 -0.8512 -0.3740 -1.4076
14375SOL    HW244567   3.202   7.077  11.260 -0.7471 -0.1655 -0.4593
14376SOL     OW44568   3.385   7.509   8.072 -0.8502  0.2627 -0.1563
14376SOL    HW144569   3.433   7.430   8.049 -0.4789  0.5947 -0.5389
14376SOL    HW244570   3.296   7.479   8.089 -0.5791 -0.3153  0.2605
14377SOL     OW44571   5.813   1.182   4.262  0.2236 -0.3701  0.3871
14377SOL    HW144572   5.829   1.272   4.291 -0.0679 -0.5341  1.0788
14377SOL    HW244573   5.901   1.148   4.242  0.3612 -0.0223  0.3836
14378SOL     OW44574   0.415   2.263   7.450  0.4906  0.3427 -0.5098
14378SOL    HW144575   0.357   2.339   7.462  1.6088  0.9305  1.7734
14378SOL    HW244576   0.502   2.301   7.435  0.9595 -0.4673  0.0462
14379SOL     OW44577   7.204   4.440  11.317  0.0655  0.3288 -0.5524
14379SOL    HW144578   7.198   4.536  11.315 -1.1108  0.3396  1.3498
14379SOL    HW244579   7.243   4.417  11.232  1.8375  2.5687 -0.4515
14380SOL     OW44580   2.406   6.359   3.518 -0.0611  0.0442 -0.3172
14380SOL    HW144581   2.463   6.401   3.454  0.5421  0.7591  0.6693
14380SOL    HW244582   2.322   6.404   3.508  0.0885  0.2966 -0.4578
14381SOL     OW44583   1.506   3.097   0.765 -0.1494  0.8952 -0.7488
14381SOL    HW144584   1.555   3.145   0.831  0.1917  0.8249 -0.9506
14381SOL    HW244585   1.418   3.136   0.767 -0.5325  0.0171  0.6679
14382SOL     OW44586   6.738   7.025   5.744 -0.0758  0.6540 -0.2555
14382SOL    HW144587   6.724   6.988   5.657 -1.7866 -0.5850  0.4922
14382SOL    HW244588   6.670   7.091   5.754  0.7708  1.5447 -0.2282
14383SOL     OW44589   0.051   0.621  11.695  0.1909 -0.1208  0.3810
14383SOL    HW144590  -0.028   0.585  11.737  0.4300 -0.8318  0.2322
14383SOL    HW244591   0.027   0.710  11.671 -0.3693 -0.1285  0.8875
14384SOL     OW44592   7.789   6.596   7.902 -0.4382  0.9274 -0.1696
14384SOL    HW144593   7.828   6.512   7.878  2.2133  2.1951 -0.6128
14384SOL    HW244594   7.766   6.586   7.994  1.7895  0.3535  0.3794
14385SOL     OW44595   3.902   1.907   5.384 -0.0394 -0.2719  0.2898
14385SOL    HW144596   3.845   1.974   5.346 -0.7795  0.5081  2.5521
14385SOL    HW244597   3.884   1.912   5.478  2.9363 -0.8273  0.9846
14386SOL     OW44598   3.416   2.555  12.331 -0.6104 -0.3202 -0.3562
14386SOL    HW144599   3.396   2.534  12.240 -1.1870  0.9689 -0.5437
14386SOL    HW244600   3.435   2.648  12.331 -2.0793  0.0329  1.0558
14387SOL     OW44601   1.671   4.633  10.309  0.8040 -0.1207  0.0870
14387SOL    HW144602   1.704   4.571  10.375  2.0204  1.5558  1.1461
14387SOL    HW244603   1.731   4.708  10.315 -0.7998  1.3068 -0.9070
14388SOL     OW44604   2.249   6.557   6.871 -0.1235  0.7834  0.0165
14388SOL    HW144605   2.235   6.561   6.777 -0.0669  0.8385  0.0107
14388SOL    HW244606   2.174   6.605   6.908 -1.2337 -0.9293  0.0895
14389SOL     OW44607   1.117   3.809   8.276  0.4959  0.8419 -0.1053
14389SOL    HW144608   1.111   3.807   8.372  0.0999  4.8889  0.1148
14389SOL    HW244609   1.210   3.817   8.258  0.5852 -0.0999 -0.0910
14390SOL     OW44610   6.692   2.587   9.538  0.1570  0.0698  0.2855
14390SOL    HW144611   6.669   2.588   9.445 -0.3576 -0.9595  0.3874
14390SOL    HW244612   6.608   2.577   9.583  0.3891  0.7222  0.8751
14391SOL     OW44613   7.089   7.004  10.309  0.6819 -0.0287  0.4719
14391SOL    HW144614   7.005   7.036  10.277 -0.0265 -1.9115  0.3277
14391SOL    HW244615   7.153   7.040  10.248 -0.1776  0.1834 -0.3295
14392SOL     OW44616   7.324   5.172   4.003  0.2050  0.0774 -0.5476
14392SOL    HW144617   7.375   5.092   3.989  1.8203  1.1865 -1.2019
14392SOL    HW244618   7.233   5.141   4.007  0.5963 -1.5968 -2.6684
14393SOL     OW44619   5.371   5.506   5.928 -0.8347 -0.3265 -0.0573
14393SOL    HW144620   5.334   5.430   5.973 -3.1520  1.0752  0.5843
14393SOL    HW244621   5.383   5.571   5.997  0.0292  0.2884 -0.7654
14394SOL     OW44622   5.659   7.945   0.406 -0.4751  0.1721 -0.2706
14394SOL    HW144623   5.711   8.006   0.354 -0.5817  1.0107  0.5716
14394SOL    HW244624   5.570   7.977   0.400 -0.5511  0.0383  0.0987
14395SOL     OW44625   5.663   5.826  10.152 -0.6114  0.0193 -0.0825
14395SOL    HW144626   5.730   5.838  10.219 -1.7234  1.0494  0.8758
14395SOL    HW244627   5.711   5.829  10.069  0.3813  2.0231  0.5230
14396SOL     OW44628   4.481   2.713   6.419 -0.0051  0.7056  0.2175
14396SOL    HW144629   4.493   2.620   6.438 -2.3722 -0.1348 -1.8792
14396SOL    HW244630   4.406   2.739   6.472 -0.0632  1.0984 -0.0533
14397SOL     OW44631   3.649   1.668   0.559 -0.0107  0.0443  0.3056
14397SOL    HW144632   3.734   1.683   0.602  0.0007 -1.1203  0.7281
14397SOL    HW244633   3.669   1.609   0.486 -0.5119 -0.6517  0.7123
14398SOL     OW44634   3.986   5.071   4.755 -0.2729  0.2607 -0.2848
14398SOL    HW144635   4.049   5.062   4.683  0.8662  0.9149  0.6003
14398SOL    HW244636   4.026   5.022   4.827 -0.1121  1.7867  0.6966
14399SOL     OW44637   6.218   3.713  10.802 -0.0175 -0.2775  0.1901
14399SOL    HW144638   6.270   3.778  10.754 -0.1322  1.7440  2.6137
14399SOL    HW244639   6.168   3.668  10.734  3.9469 -1.5512 -2.1487
14400SOL     OW44640   4.711   2.178   0.095  0.3155 -0.0500 -0.2374
14400SOL    HW144641   4.781   2.131   0.049 -1.1966 -1.0021 -1.6839
14400SOL    HW244642   4.757   2.238   0.153  2.3619 -2.4708  0.8415
14401SOL     OW44643   3.868   5.932  10.591  0.1472 -0.1960 -0.4454
14401SOL    HW144644   3.797   5.946  10.654  0.2119  1.2985 -0.6490
14401SOL    HW244645   3.939   5.987  10.624  1.1690 -1.5583 -0.3292
14402SOL     OW44646   1.538   3.758   5.829 -0.1127  0.0996  0.3359
14402SOL    HW144647   1.582   3.674   5.819 -0.9943 -0.3753  0.3167
14402SOL    HW244648   1.448   3.741   5.801 -0.3093  1.0394  0.3755
14403SOL     OW44649   6.116   0.936   6.311 -0.3304  0.1903  0.5166
14403SOL    HW144650   6.196   0.924   6.362 -0.2745  0.2701  0.4479
14403SOL    HW244651   6.059   0.864   6.338 -0.0514 -0.1532  0.2120
14404SOL     OW44652   5.959   2.618   0.914  0.3724  0.1827 -0.1687
14404SOL    HW144653   5.932   2.698   0.960  0.6727  0.1642  0.0411
14404SOL    HW244654   6.054   2.624   0.909  0.3782 -0.0561 -0.3499
14405SOL     OW44655   7.341   6.150  11.674 -0.2698  0.0971  0.3011
14405SOL    HW144656   7.418   6.163  11.730 -1.0986  1.4015  1.1961
14405SOL    HW244657   7.361   6.199  11.594 -0.3050  0.7826  0.6970
14406SOL     OW44658   7.306   4.503   4.097 -0.2590  0.4412  0.6467
14406SOL    HW144659   7.210   4.502   4.105 -0.2630  1.2416  0.8236
14406SOL    HW244660   7.326   4.434   4.033 -0.9777  0.5047  0.3448
14407SOL     OW44661   6.984   6.648   4.594 -0.6185  0.6627 -0.7165
14407SOL    HW144662   7.027   6.675   4.513  0.8185  0.5434 -0.0253
14407SOL    HW244663   6.984   6.552   4.590 -0.5293  0.6563 -0.5657
14408SOL     OW44664   4.678   5.406   8.108 -0.1821  0.0307  0.7412
14408SOL    HW144665   4.757   5.371   8.068  0.3489 -0.0155  1.7907
14408SOL    HW244666   4.703   5.424   8.199 -1.0039  1.2298  0.7581
14409SOL     OW44667   3.344   2.291   0.679  0.3314  0.2574  0.2342
14409SOL    HW144668   3.269   2.350   0.689  0.4867  0.0881  2.9383
14409SOL    HW244669   3.417   2.349   0.657 -0.2886  0.5673 -1.1225
14410SOL     OW44670   6.032   3.434   3.510 -0.6038  0.6901  0.4774
14410SOL    HW144671   6.089   3.401   3.580 -0.8084  0.3255  0.4754
14410SOL    HW244672   5.975   3.360   3.489 -0.3482  0.7053 -0.2878
14411SOL     OW44673   6.561   7.736   9.198 -0.2887  0.4914  0.2621
14411SOL    HW144674   6.597   7.780   9.275 -0.4381 -0.9160  1.1755
14411SOL    HW244675   6.483   7.787   9.175  0.2896  1.4691  0.4641
14412SOL     OW44676   4.634   1.459   5.964 -0.2204 -0.3283 -0.1496
14412SOL    HW144677   4.698   1.503   5.908  0.6531 -1.0934  0.2142
14412SOL    HW244678   4.630   1.370   5.929  1.0193 -1.0877  1.5128
14413SOL     OW44679   5.016   2.882   0.276 -0.1490 -0.1187 -0.0289
14413SOL    HW144680   5.023   2.949   0.208 -0.7941  0.0895  0.0961
14413SOL    HW244681   5.004   2.932   0.358 -0.2596 -0.3742  0.1124
14414SOL     OW44682   2.044   0.816   5.589  0.2187 -0.5135  0.0063
14414SOL    HW144683   2.035   0.727   5.555  0.5762 -0.6040  0.1462
14414SOL    HW244684   1.985   0.819   5.665  0.8674 -0.9014  0.5295
14415SOL     OW44685   1.631   5.377  10.281 -0.1895 -0.1460  0.4591
14415SOL    HW144686   1.620   5.425  10.363 -3.2517 -1.1170  0.7570
14415SOL    HW244687   1.547   5.387  10.236  1.2955  0.1045 -2.4768
14416SOL     OW44688   0.914   0.487   5.948  0.2793 -0.0000  0.6005
14416SOL    HW144689   0.883   0.396   5.953 -2.2892  0.7331 -0.3164
14416SOL    HW244690   0.989   0.484   5.888 -1.5082 -1.1758 -1.7487
14417SOL     OW44691   4.896   6.136   1.241  0.0404 -0.1681 -0.2630
14417SOL    HW144692   4.918   6.118   1.150  0.6408  1.3582 -0.4598
14417SOL    HW244693   4.803   6.159   1.240  0.4914  1.8426 -0.8672
14418SOL     OW44694   0.575   7.384   0.602  0.1748 -0.1573  0.1784
14418SOL    HW144695   0.608   7.472   0.619  1.0126 -0.3485 -0.3855
14418SOL    HW244696   0.511   7.368   0.672  0.6148  0.5796  0.7601
14419SOL     OW44697   5.609   7.501   9.178 -0.2446 -0.5119 -0.2303
14419SOL    HW144698   5.622   7.578   9.122 -0.6216  0.2605  0.7194
14419SOL    HW244699   5.697   7.463   9.186  0.1391  0.4200  0.1325
14420SOL     OW44700   6.606   0.275   6.924  0.3865  0.4486  0.6063
14420SOL    HW144701   6.667   0.232   6.864  0.2566  0.9692  0.0901
14420SOL    HW244702   6.520   0.261   6.886  0.1768 -0.2336  1.3073
14421SOL     OW44703   1.159   2.306   1.075  0.3615  0.5407 -0.2920
14421SOL    HW144704   1.208   2.224   1.068 -0.2278  0.1635 -0.0499
14421SOL    HW244705   1.067   2.281   1.062  0.2411  1.2619 -0.8988
14422SOL     OW44706   0.253   6.463   9.027  0.3462  0.5468 -0.4463
14422SOL    HW144707   0.219   6.539   8.978  1.5768  1.5515  0.2011
14422SOL    HW244708   0.259   6.494   9.117 -0.0462 -0.6607  0.0163
14423SOL     OW44709   6.362   6.920   4.673  0.6650  0.4708 -0.5618
14423SOL    HW144710   6.392   6.968   4.597 -0.7182  2.2373 -0.0692
14423SOL    HW244711   6.312   6.846   4.638  1.1982  0.4875 -1.3527
14424SOL     OW44712   7.896   7.032   8.942 -0.1714  0.2146  0.3182
14424SOL    HW144713   7.944   7.032   9.025  1.9973  1.6023 -0.8233
14424SOL    HW244714   7.953   6.983   8.882 -0.5628  1.1715 -0.8793
14425SOL     OW44715   7.832   7.163   6.320  0.2875 -0.5992 -0.5844
14425SOL    HW144716   7.893   7.149   6.392 -0.5070  0.4352  0.3290
14425SOL    HW244717   7.819   7.258   6.318 -1.4511 -0.8047 -0.5915
14426SOL     OW44718   0.567   0.489  11.029 -0.0553  0.3347  0.7666
14426SOL    HW144719   0.591   0.484  10.936 -1.3442  1.7467  0.3027
14426SOL    HW244720   0.633   0.546  11.067 -0.0679  0.5351  0.4955
14427SOL     OW44721   5.713   1.424   5.140  0.4935 -0.3576  0.3700
14427SOL    HW144722   5.784   1.396   5.082 -0.3460 -2.1657  0.1624
14427SOL    HW244723   5.758   1.473   5.209  1.8344 -0.6040 -0.2805
14428SOL     OW44724   2.469   6.555  11.616  0.2732 -0.3542 -0.2394
14428SOL    HW144725   2.517   6.636  11.631  1.1456 -1.1090  1.2526
14428SOL    HW244726   2.399   6.555  11.681 -0.6721 -0.1050 -1.2321
14429SOL     OW44727   0.386   3.338   4.199 -0.3811  0.5927  0.1184
14429SOL    HW144728   0.312   3.395   4.219  0.5269  1.8589  0.0026
14429SOL    HW244729   0.350   3.271   4.139 -1.2847  1.5411 -0.4268
14430SOL     OW44730   4.354   5.388   5.948  0.6604 -0.2845 -0.2387
14430SOL    HW144731   4.407   5.349   5.878  0.2343  1.0653 -1.3431
14430SOL    HW244732   4.279   5.330   5.957  1.7584 -1.6491  0.6275
14431SOL     OW44733   1.305   5.360   5.197 -0.1479  0.4182  0.5763
14431SOL    HW144734   1.299   5.414   5.276  1.8173 -0.8420  1.6614
14431SOL    HW244735   1.274   5.274   5.224 -3.0229  0.7669 -1.0786
14432SOL     OW44736   6.668   1.404   3.100 -0.1487  0.0001 -0.1434
14432SOL    HW144737   6.651   1.314   3.073 -1.3975  0.2617 -0.2986
14432SOL    HW244738   6.594   1.454   3.064 -0.6710  0.7242  1.8374
14433SOL     OW44739   3.192   5.609   5.018  0.4857 -0.3005  0.2816
14433SOL    HW144740   3.194   5.671   4.946 -1.7782  1.2467  1.4447
14433SOL    HW244741   3.264   5.636   5.076  1.9920 -1.2502 -1.0497
14434SOL     OW44742   6.064   2.734   9.068  0.2065  0.3177  0.0249
14434SOL    HW144743   6.044   2.742   9.161 -0.0726  2.2115 -0.1475
14434SOL    HW244744   6.121   2.809   9.049 -0.2374  0.3167 -1.4408
14435SOL     OW44745   7.958   0.335   3.987  0.8036 -0.0688  0.0491
14435SOL    HW144746   7.994   0.253   3.954 -0.2721 -0.8972  0.8600
14435SOL    HW244747   8.033   0.394   3.994  1.4244 -0.6081 -1.6074
14436SOL     OW44748   6.911   0.340  11.314 -0.2720  0.5419 -0.3009
14436SOL    HW144749   6.930   0.430  11.287  0.9196  0.4605  0.1939
14436SOL    HW244750   6.981   0.318  11.376 -0.4382 -0.7844 -0.5451
14437SOL     OW44751   3.340   2.492   8.195 -0.1135  0.6024 -0.5228
14437SOL    HW144752   3.314   2.523   8.282 -0.6376 -0.3276 -0.3410
14437SOL    HW244753   3.373   2.571   8.151 -1.1047  1.3616  0.0484
14438SOL     OW44754   7.178   1.549  10.630 -0.0969  0.5407  0.2559
14438SOL    HW144755   7.121   1.480  10.598  1.4979 -0.5269 -0.4214
14438SOL    HW244756   7.238   1.505  10.690  0.7484  1.3768  0.0553
14439SOL     OW44757   4.293   5.802   7.648 -0.3415  0.2172  0.0045
14439SOL    HW144758   4.321   5.889   7.676 -1.0180  0.1971  0.8003
14439SOL    HW244759   4.227   5.819   7.581  0.7351  0.2787 -1.0671
14440SOL     OW44760   6.925   6.008   6.943 -0.2203  0.5000 -0.0977
14440SOL    HW144761   7.018   6.019   6.962 -0.2829 -0.8762  1.1647
14440SOL    HW244762   6.898   5.934   6.998 -1.7060 -0.1372 -1.6011
14441SOL     OW44763   5.285   6.886   4.365  0.0020 -0.5006 -0.5434
14441SOL    HW144764   5.257   6.964   4.414  0.6254  0.7359 -2.0385
14441SOL    HW244765   5.204   6.841   4.343 -0.5191  0.5895 -0.9620
14442SOL     OW44766   6.607   1.975   1.883 -0.1219 -0.2536 -0.2185
14442SOL    HW144767   6.693   1.932   1.876  1.4182  2.1976  1.7463
14442SOL    HW244768   6.544   1.903   1.879  2.0000 -2.1980 -1.4719
14443SOL     OW44769   6.730   3.965   7.947  0.7972  0.1648 -0.1372
14443SOL    HW144770   6.684   3.888   7.981  0.7917 -0.0778 -0.6777
14443SOL    HW244771   6.755   4.014   8.025  2.2885 -1.2248  0.3228
14444SOL     OW44772   4.980   7.258   8.162  0.1398 -0.1075 -0.0323
14444SOL    HW144773   4.965   7.261   8.256  1.3370  0.0553  0.1659
14444SOL    HW244774   5.036   7.182   8.148  0.0894 -0.0492 -0.5985
14445SOL     OW44775   3.881   2.056   1.405 -0.3944 -0.2477  0.7230
14445SOL    HW144776   3.906   1.964   1.405  2.0228  0.3204  1.9816
14445SOL    HW244777   3.793   2.058   1.441  0.2458 -1.9512  2.5492
14446SOL     OW44778   5.130   7.210  10.402 -0.1190 -1.0205  0.3835
14446SOL    HW144779   5.194   7.281  10.402  0.3714 -1.4422 -0.3714
14446SOL    HW244780   5.121   7.185  10.494  1.9683 -1.9570  0.4125
14447SOL     OW44781   5.947   5.060   5.729 -0.3685  0.1565  0.0716
14447SOL    HW144782   5.949   4.984   5.671  0.3455  1.0827 -1.1595
14447SOL    HW244783   5.867   5.107   5.705  1.4460  2.2276 -2.5072
14448SOL     OW44784   7.071   6.773  10.048 -0.4424 -0.3958  0.3514
14448SOL    HW144785   7.097   6.802   9.961 -0.9599 -0.4519  0.1801
14448SOL    HW244786   7.154   6.756  10.093 -0.1772 -0.4774 -0.1633
14449SOL     OW44787   7.009   5.424   8.629 -0.5005  0.1724  0.5638
14449SOL    HW144788   7.076   5.356   8.623 -1.1364 -0.5401  1.3285
14449SOL    HW244789   6.928   5.379   8.606 -1.0871  0.4084  2.0787
14450SOL     OW44790   1.761   6.472   8.941 -0.0843 -0.0661 -0.2766
14450SOL    HW144791   1.830   6.407   8.935  0.4450  0.3456  0.9609
14450SOL    HW244792   1.768   6.523   8.860 -0.1653 -1.1859 -1.0104
14451SOL     OW44793   3.530   6.092   4.563 -0.6069 -0.4829 -0.0946
14451SOL    HW144794   3.568   6.173   4.597 -1.3780  0.0323 -0.4493
14451SOL    HW244795   3.605   6.036   4.544 -0.0117  0.6045 -1.0109
14452SOL     OW44796   2.814   7.403  12.355 -0.1539 -0.1681  0.4320
14452SOL    HW144797   2.777   7.325  12.396 -0.1599 -0.6628 -0.4977
14452SOL    HW244798   2.742   7.442  12.307  0.3880 -0.9025 -1.0351
14453SOL     OW44799   3.913   2.017   7.389 -0.2110  0.5554  0.4760
14453SOL    HW144800   3.977   1.955   7.353 -1.1957 -0.2816  0.1178
14453SOL    HW244801   3.964   2.096   7.407  0.6927  0.3371 -0.9546
14454SOL     OW44802   7.408   1.622   9.475  0.7247  0.4480  0.3217
14454SOL    HW144803   7.328   1.571   9.484  1.5346 -0.7110  1.2039
14454SOL    HW244804   7.473   1.560   9.441  1.5737  1.0339  0.8428
14455SOL     OW44805   3.596   4.231  11.276 -0.5669 -0.7259  0.0676
14455SOL    HW144806   3.686   4.201  11.289 -0.7169 -0.2883  2.6296
14455SOL    HW244807   3.542   4.159  11.309 -1.1342 -0.6981 -0.7929
14456SOL     OW44808   5.075   4.106   1.083 -0.4424  0.2820  0.2525
14456SOL    HW144809   4.985   4.140   1.079 -1.0025 -1.1420  0.3687
14456SOL    HW244810   5.085   4.074   1.172  0.2496  0.5571  0.2832
14457SOL     OW44811   2.013   4.636  10.967 -0.2526 -0.1602 -0.4436
14457SOL    HW144812   2.082   4.591  10.918  1.2616  0.6650  0.8120
14457SOL    HW244813   1.991   4.712  10.914 -1.2824 -1.1778 -1.5408
14458SOL     OW44814   1.800   3.973  11.847  0.3081  0.2911 -0.0031
14458SOL    HW144815   1.789   3.980  11.753 -1.8784 -0.9487  0.0878
14458SOL    HW244816   1.756   3.892  11.870  0.5172  0.7227  2.1336
14459SOL     OW44817   0.882   3.599   3.595  0.4726  0.0165  0.1880
14459SOL    HW144818   0.857   3.687   3.623  0.6199  0.2304 -0.3397
14459SOL    HW244819   0.962   3.612   3.545 -0.7256 -0.1068 -1.8973
14460SOL     OW44820   5.475   0.136   0.128  0.0621  0.0871 -0.6579
14460SOL    HW144821   5.540   0.196   0.164 -0.4966 -0.7971  2.0104
14460SOL    HW244822   5.524   0.084   0.064  1.1994  1.4777 -0.9749
14461SOL     OW44823   4.793   3.063  10.834 -0.1075  0.5272 -0.2718
14461SOL    HW144824   4.817   3.060  10.741 -0.5623  0.1070 -0.3843
14461SOL    HW244825   4.697   3.061  10.833 -0.1956  2.7994  0.1370
14462SOL     OW44826   0.059   7.381  11.686  0.1975 -0.3360  0.3982
14462SOL    HW144827   0.034   7.408  11.774  0.6368 -0.7276  0.6436
14462SOL    HW244828   0.100   7.458  11.647  0.0831 -0.1923  0.5603
14463SOL     OW44829   5.707   4.025   4.810 -0.0937 -0.3096 -0.0085
14463SOL    HW144830   5.748   3.950   4.852 -1.5405 -0.9347  0.3432
14463SOL    HW244831   5.696   4.089   4.881  0.4249 -0.0669 -0.1423
14464SOL     OW44832   6.633   6.597   1.144  0.0219  0.1657 -0.2191
14464SOL    HW144833   6.658   6.684   1.177 -0.9724  0.1077  0.7888
14464SOL    HW244834   6.665   6.536   1.210  0.4842 -0.2132 -0.7905
14465SOL     OW44835   0.151   2.460   2.156 -0.2881  0.1806 -0.4885
14465SOL    HW144836   0.244   2.444   2.139 -0.3165  0.4680 -0.9321
14465SOL    HW244837   0.148   2.548   2.192 -0.3350 -0.0408  0.0578
14466SOL     OW44838   0.137   1.156   8.306 -0.4246  0.3018 -0.0841
14466SOL    HW144839   0.085   1.173   8.227 -0.2829  0.9476 -0.0437
14466SOL    HW244840   0.188   1.236   8.318 -0.3550  0.1543  0.5947
14467SOL     OW44841   0.295   4.069  10.378  0.1665 -0.2728  0.4443
14467SOL    HW144842   0.262   4.144  10.329 -0.0007  0.7254  2.0236
14467SOL    HW244843   0.354   4.025  10.317 -0.3870  0.6504 -0.8019
14468SOL     OW44844   6.451   4.255   7.205 -0.7373  0.1703  0.1270
14468SOL    HW144845   6.379   4.290   7.153 -1.5302 -1.9969 -0.3506
14468SOL    HW244846   6.501   4.332   7.233 -2.4025  1.6262 -0.7404
14469SOL     OW44847   5.461   7.768  11.876 -0.4545 -0.1390  0.1739
14469SOL    HW144848   5.548   7.797  11.848 -1.0259  1.5160  0.0149
14469SOL    HW244849   5.478   7.716  11.954  0.8492 -1.7638 -1.1068
14470SOL     OW44850   2.113   6.081   4.879 -0.6601 -0.0981  0.2098
14470SOL    HW144851   2.024   6.071   4.843 -1.2274  0.1833  1.5005
14470SOL    HW244852   2.117   6.172   4.908 -0.1024 -0.2390  0.5722
14471SOL     OW44853   5.731   4.663   6.402 -0.3757  0.1296 -0.1168
14471SOL    HW144854   5.781   4.715   6.338  0.6208  0.1067  0.6269
14471SOL    HW244855   5.751   4.703   6.486 -0.4087 -0.8357  0.3539
14472SOL     OW44856   2.232   3.119   3.316 -0.1818  0.8813  0.3839
14472SOL    HW144857   2.308   3.102   3.371  0.6676  0.0728 -1.0070
14472SOL    HW244858   2.177   3.041   3.326  0.4588  0.2746 -0.6708
14473SOL     OW44859   3.602   3.439   4.078 -0.3204  0.0922  0.1849
14473SOL    HW144860   3.633   3.473   4.162 -1.3162  0.0324  0.5810
14473SOL    HW244861   3.575   3.349   4.098 -0.7376  0.1406 -0.1594
14474SOL     OW44862   7.231   2.071  10.327  0.4084 -0.4042 -0.3159
14474SOL    HW144863   7.140   2.085  10.351  0.4364 -2.1095  0.8995
14474SOL    HW244864   7.231   1.987  10.281  0.9720  0.9125 -2.9501
14475SOL     OW44865   2.031   5.361   9.787 -0.4094 -0.1769 -0.5361
14475SOL    HW144866   2.037   5.455   9.806  0.8533  0.2184 -2.6062
14475SOL    HW244867   2.120   5.328   9.799 -0.5854 -0.8535 -1.0265
14476SOL     OW44868   4.718   2.784   2.850 -0.4645  0.3723 -0.2187
14476SOL    HW144869   4.746   2.706   2.803 -0.6460  1.0011 -1.4028
14476SOL    HW244870   4.769   2.783   2.931 -0.3060 -0.8432 -0.3112
14477SOL     OW44871   6.186   0.150   0.078 -0.0849  0.4002  0.1436
14477SOL    HW144872   6.277   0.125   0.062 -0.6631 -1.4070 -0.5867
14477SOL    HW244873   6.160   0.200   0.001  0.3011  1.0163  0.4048
14478SOL     OW44874   6.112   3.722  11.519 -0.4874  0.6124 -0.1997
14478SOL    HW144875   6.202   3.705  11.494  0.1042  0.3963  1.8705
14478SOL    HW244876   6.062   3.648  11.484  0.3976 -0.0717 -0.0336
14479SOL     OW44877   3.694   6.577   1.241 -0.9746 -0.2925  0.1539
14479SOL    HW144878   3.664   6.632   1.314 -1.0772 -0.1698  0.0207
14479SOL    HW244879   3.637   6.500   1.245 -1.0931 -0.2072  0.0989
14480SOL     OW44880   0.393   5.270   3.246 -0.1324  0.1450 -0.7394
14480SOL    HW144881   0.384   5.190   3.195 -1.6074  0.4403 -0.9871
14480SOL    HW244882   0.310   5.316   3.234 -1.0424 -0.3078  2.8280
14481SOL     OW44883   3.985   2.450   4.977  0.7521 -0.0318 -0.1966
14481SOL    HW144884   4.072   2.458   4.939  0.7006 -0.1996 -0.3526
14481SOL    HW244885   3.982   2.361   5.012  0.7925  0.1166  0.1834
14482SOL     OW44886   0.488   6.923   5.357  0.4845  0.5983  0.0050
14482SOL    HW144887   0.460   7.000   5.306  0.0378 -0.2033 -1.0050
14482SOL    HW244888   0.578   6.908   5.329  0.6618  0.9145  0.4054
14483SOL     OW44889   2.045   4.538   4.272 -0.4277 -0.0264 -0.1612
14483SOL    HW144890   2.119   4.484   4.243 -0.9034 -1.6985  1.5009
14483SOL    HW244891   2.061   4.553   4.365 -2.2444 -0.6004  0.2830
14484SOL     OW44892   3.212   7.170   5.101 -0.0009  0.0100 -0.0128
14484SOL    HW144893   3.163   7.181   5.183 -1.5051 -1.0711 -0.7094
14484SOL    HW244894   3.228   7.076   5.096  0.0904  0.0687 -0.9582
14485SOL     OW44895   1.657   3.987   2.041 -0.4536  0.5332 -0.0789
14485SOL    HW144896   1.689   4.037   2.115  0.4744 -0.5825  0.3017
14485SOL    HW244897   1.735   3.965   1.990 -1.0374  0.9630 -1.1882
14486SOL     OW44898   1.307   0.104   8.888 -0.5936  0.2207 -0.1146
14486SOL    HW144899   1.243   0.175   8.893 -0.9633 -0.1738  1.2143
14486SOL    HW244900   1.284   0.056   8.808 -1.8321  0.2090  0.2364
14487SOL     OW44901   7.967   4.165   7.765 -0.5583  0.1209  0.3957
14487SOL    HW144902   7.934   4.187   7.852 -1.3058 -0.6475  0.3187
14487SOL    HW244903   8.051   4.121   7.781 -0.2556  0.7789  0.6698
14488SOL     OW44904   7.023   3.476   9.136  0.2678 -0.0187 -0.5930
14488SOL    HW144905   7.061   3.548   9.085 -0.7275  1.2492  0.3716
14488SOL    HW244906   6.938   3.459   9.096 -1.4465  2.3601  1.6425
14489SOL     OW44907   3.054   1.101  11.338 -0.4523 -0.2457  0.1061
14489SOL    HW144908   3.027   1.097  11.430  1.1118  0.2394  0.6193
14489SOL    HW244909   3.148   1.083  11.340 -0.4085 -0.2877 -1.4099
14490SOL     OW44910   0.314   6.681   5.232  0.3318 -0.3400 -0.6411
14490SOL    HW144911   0.285   6.591   5.217 -1.0237  0.0839 -0.7014
14490SOL    HW244912   0.308   6.693   5.327  2.1051 -0.8110 -0.4445
14491SOL     OW44913   2.891   5.100  11.773  0.1636  0.1971 -0.0744
14491SOL    HW144914   2.930   5.020  11.737 -1.0642  0.0153 -1.0651
14491SOL    HW244915   2.924   5.104  11.863  1.4788 -0.5794 -0.4939
14492SOL     OW44916   6.564   4.707  12.210 -0.2750  0.7571  0.1987
14492SOL    HW144917   6.592   4.657  12.133 -0.5050 -0.2596  0.7577
14492SOL    HW244918   6.483   4.666  12.238  0.6253  0.0532  1.9315
14493SOL     OW44919   2.228   3.905   0.173  0.1567 -0.7734 -0.1518
14493SOL    HW144920   2.160   3.943   0.229  1.8321  1.4593  0.4918
14493SOL    HW244921   2.226   3.959   0.093 -1.0580 -2.8616 -1.6419
14494SOL     OW44922   6.352   2.827   6.062 -0.3450  0.2141 -0.0043
14494SOL    HW144923   6.271   2.860   6.024 -1.1876  1.4403  2.6124
14494SOL    HW244924   6.421   2.879   6.021 -0.8179 -0.7583 -2.1778
14495SOL     OW44925   3.877   2.974   7.398 -0.9657 -0.6662  0.4165
14495SOL    HW144926   3.820   2.970   7.321 -1.6079  0.9340  0.7608
14495SOL    HW244927   3.965   2.984   7.362 -1.3303  0.7935 -0.1458
14496SOL     OW44928   0.657   6.141   0.749  0.2634  0.5068 -0.0098
14496SOL    HW144929   0.704   6.101   0.676  0.1553  0.4018 -0.0217
14496SOL    HW244930   0.638   6.230   0.720 -2.7834 -0.5039 -1.5177
14497SOL     OW44931   1.759   0.773   8.106 -0.2037  0.1651 -0.5463
14497SOL    HW144932   1.822   0.710   8.140  0.2542 -1.1514 -3.5127
14497SOL    HW244933   1.782   0.782   8.013 -2.2829  2.2747 -0.9520
14498SOL     OW44934   3.473   1.487   7.325  0.1622 -0.6381 -0.0795
14498SOL    HW144935   3.509   1.523   7.406 -0.0808 -0.0730 -0.2144
14498SOL    HW244936   3.548   1.447   7.281  0.6290  0.4532 -0.3177
14499SOL     OW44937   6.559   1.283   4.479 -0.3670  0.4580  0.2121
14499SOL    HW144938   6.628   1.347   4.464  0.1777 -0.2206 -0.2281
14499SOL    HW244939   6.571   1.255   4.570  0.2105  0.0407  0.0160
14500SOL     OW44940   2.128   5.177   5.988  0.3399  0.2781 -0.4795
14500SOL    HW144941   2.061   5.164   5.922 -0.4980  0.4881  0.3115
14500SOL    HW244942   2.177   5.095   5.989 -0.3175 -0.1221 -0.6094
14501SOL     OW44943   0.425   7.060   5.582 -0.1458 -0.7018 -0.5379
14501SOL    HW144944   0.461   7.002   5.516  1.6205  1.3568 -1.5169
14501SOL    HW244945   0.497   7.119   5.605 -1.8070  1.1271  0.3340
14502SOL     OW44946   2.429   6.354   2.610 -0.2840 -0.3200  1.3399
14502SOL    HW144947   2.502   6.311   2.655  0.9271 -0.7651 -0.8881
14502SOL    HW244948   2.469   6.429   2.567 -1.4942  0.4009  1.4423
14503SOL     OW44949   0.404   4.211   8.614  0.1051  0.2094 -0.0066
14503SOL    HW144950   0.499   4.219   8.627  0.5934  0.1183 -2.9184
14503SOL    HW244951   0.374   4.160   8.690  2.6341 -1.1187  0.2287
14504SOL     OW44952   5.702   4.604   4.095  0.3080  0.3538  0.6739
14504SOL    HW144953   5.727   4.661   4.021  2.2358  0.4526  1.3536
14504SOL    HW244954   5.756   4.526   4.085 -0.7381 -0.4505  0.9970
14505SOL     OW44955   7.832   1.321  11.107 -0.1798 -0.3087 -0.1318
14505SOL    HW144956   7.873   1.377  11.173  2.6358 -0.0577 -1.9461
14505SOL    HW244957   7.836   1.233  11.144 -1.2159  0.1288  1.1380
14506SOL     OW44958   3.612   1.498   5.995 -0.1884  0.2404  0.3911
14506SOL    HW144959   3.674   1.492   5.922 -0.8352  1.1724 -0.2688
14506SOL    HW244960   3.668   1.511   6.072  0.6572 -3.2220  0.5016
14507SOL     OW44961   7.812   4.397   4.634  0.1199  0.6830 -0.0865
14507SOL    HW144962   7.812   4.490   4.656  0.7501  0.9395 -1.0942
14507SOL    HW244963   7.793   4.395   4.540 -0.7098 -0.2601  0.0813
14508SOL     OW44964   5.084   2.244   7.714 -0.5820 -0.4869  0.1491
14508SOL    HW144965   5.096   2.172   7.653 -0.6439 -1.6081  1.4283
14508SOL    HW244966   5.075   2.203   7.800 -0.0854  1.0576  0.9964
14509SOL     OW44967   2.554   4.209   2.426  0.1481 -0.2829 -0.3414
14509SOL    HW144968   2.489   4.142   2.406 -0.2686  0.4665 -1.6228
14509SOL    HW244969   2.525   4.286   2.377  0.4644  0.9338  1.2855
14510SOL     OW44970   2.774   6.513   7.298 -0.0198 -0.3718 -0.1583
14510SOL    HW144971   2.760   6.439   7.356  2.3755  0.1404  1.1918
14510SOL    HW244972   2.852   6.490   7.247  0.2234  0.8316 -0.3620
14511SOL     OW44973   4.062   6.690  11.328  0.9380 -0.7889 -0.0084
14511SOL    HW144974   4.082   6.677  11.235  1.2749 -2.1764  0.2431
14511SOL    HW244975   4.048   6.602  11.363  0.9963 -0.3058  1.3012
14512SOL     OW44976   3.784   1.428   0.465 -0.5663  0.3234  0.4751
14512SOL    HW144977   3.843   1.441   0.539  1.4741 -0.7863 -0.8387
14512SOL    HW244978   3.818   1.486   0.397 -0.2176 -1.1766 -0.6835
14513SOL     OW44979   6.238   2.799   1.752  0.2082 -0.2055  0.1563
14513SOL    HW144980   6.314   2.838   1.797  1.8558 -3.2334  0.2672
14513SOL    HW244981   6.276   2.731   1.697 -2.3544 -0.6841 -1.1457
14514SOL     OW44982   3.303   0.965   3.934 -0.0972 -0.1854  0.4477
14514SOL    HW144983   3.393   0.936   3.945 -0.3183 -2.1958 -2.1403
14514SOL    HW244984   3.307   1.031   3.864 -0.6864 -1.0456 -0.4352
14515SOL     OW44985   4.558   7.693   0.681  0.1312 -0.2526  0.3141
14515SOL    HW144986   4.553   7.607   0.641 -2.5607  0.1490 -0.3827
14515SOL    HW244987   4.651   7.703   0.704  0.6502 -2.9922 -0.2288
14516SOL     OW44988   1.416   7.952   8.013 -0.5204 -0.2886 -0.3337
14516SOL    HW144989   1.393   7.973   7.923 -1.3509  1.0913  0.1716
14516SOL    HW244990   1.457   8.032   8.047 -0.8715 -0.5377  0.7218
14517SOL     OW44991   2.888   7.710  10.133 -0.6406  0.6734  0.2401
14517SOL    HW144992   2.938   7.647  10.186 -1.1230  0.8626  0.9383
14517SOL    HW244993   2.890   7.674  10.045  0.4258  0.5014  0.3311
14518SOL     OW44994   6.733   7.305  10.848  0.3048 -0.8167 -0.3122
14518SOL    HW144995   6.822   7.312  10.882  0.2666 -0.8079 -0.2162
14518SOL    HW244996   6.684   7.260  10.916 -0.1153  0.4845  0.2840
14519SOL     OW44997   7.399   4.434   9.040  0.3222  0.3431 -0.5002
14519SOL    HW144998   7.382   4.365   9.104  0.4500  1.8947  1.3086
14519SOL    HW244999   7.353   4.407   8.961  0.4412 -1.8165  0.1189
14520SOL     OW45000   2.992   3.369   2.778  0.4299  0.6833 -0.5215
14520SOL    HW145001   2.982   3.442   2.717 -0.3972 -0.4385 -1.7932
14520SOL    HW245002   3.086   3.365   2.796  0.5005  1.9454 -0.5600
14521SOL     OW45003   4.266   1.310   8.389  0.1696 -0.0503  0.1122
14521SOL    HW145004   4.260   1.345   8.477  2.0947  1.0370 -0.1378
14521SOL    HW245005   4.203   1.361   8.338 -0.6194 -0.3833  0.7283
14522SOL     OW45006   7.537   4.611  10.590  0.0149 -0.3989 -0.5614
14522SOL    HW145007   7.495   4.695  10.569  1.8862  0.2703 -1.9177
14522SOL    HW245008   7.608   4.635  10.650 -0.2172 -1.2024  0.0436
14523SOL     OW45009   5.100   7.085  11.958 -0.4317  0.4504 -0.2357
14523SOL    HW145010   5.196   7.079  11.951 -0.5607 -1.7993 -0.8136
14523SOL    HW245011   5.069   7.070  11.868 -1.3361  1.9389 -0.2031
14524SOL     OW45012   5.944   4.630   9.541 -0.1714  0.2794  0.4285
14524SOL    HW145013   5.917   4.689   9.471  1.5737 -0.0379 -0.5613
14524SOL    HW245014   6.017   4.581   9.504 -0.3029 -1.1128  1.9087
14525SOL     OW45015   0.045   5.756   4.694  0.1111  0.4767  0.4298
14525SOL    HW145016   0.018   5.679   4.743  1.9138  0.1098  0.9103
14525SOL    HW245017   0.001   5.748   4.609 -1.0291 -0.1860  1.0587
14526SOL     OW45018   0.804   2.352   9.052  0.1209 -0.1286 -0.6808
14526SOL    HW145019   0.775   2.392   9.134  0.1837 -2.3315  0.4855
14526SOL    HW245020   0.898   2.368   9.049 -0.0708  1.0137 -0.9672
14527SOL     OW45021   7.605   4.901   5.611 -0.5381 -0.2664 -0.0640
14527SOL    HW145022   7.645   4.987   5.624 -2.0502  0.2199  1.9401
14527SOL    HW245023   7.674   4.839   5.635 -0.0905  0.4549  0.5817
14528SOL     OW45024   1.380   5.465  11.382  0.2822  0.8015  0.1098
14528SOL    HW145025   1.370   5.409  11.458 -0.0382 -0.5718 -0.8988
14528SOL    HW245026   1.457   5.430  11.337 -1.3561 -0.5154 -1.8603
14529SOL     OW45027   6.617   6.320   9.771  0.0211 -0.2010 -0.0874
14529SOL    HW145028   6.674   6.250   9.805 -0.2475  0.0073  0.8083
14529SOL    HW245029   6.541   6.274   9.735 -0.6298 -0.3321  1.4163
14530SOL     OW45030   2.487   4.835  10.991  0.3131 -0.3641  0.2793
14530SOL    HW145031   2.403   4.875  10.969  0.5607  0.0263  0.0195
14530SOL    HW245032   2.468   4.773  11.061  0.1563  1.2961  1.7747
14531SOL     OW45033   5.053   6.288   7.966 -0.1303 -0.2437 -0.0727
14531SOL    HW145034   5.126   6.232   7.940  1.4275  1.5638  0.1751
14531SOL    HW245035   5.063   6.367   7.912 -1.5383  0.3093  0.4280
14532SOL     OW45036   6.814   1.372   7.233  0.0297  0.5975 -0.2221
14532SOL    HW145037   6.753   1.418   7.175  1.0144 -0.7507 -2.4672
14532SOL    HW245038   6.862   1.442   7.278 -0.7626  1.7053 -1.0373
14533SOL     OW45039   1.951   2.167   6.033  0.3099  0.0928 -0.0575
14533SOL    HW145040   1.980   2.199   5.947  1.7023 -0.9916 -0.0305
14533SOL    HW245041   1.939   2.245   6.085  1.9660  0.6866 -0.4943
14534SOL     OW45042   2.773   4.187   8.679  0.2891 -0.7504  0.7797
14534SOL    HW145043   2.848   4.141   8.642 -1.3632 -2.1112 -1.0476
14534SOL    HW245044   2.795   4.196   8.772  3.1790 -0.0296  0.1479
14535SOL     OW45045   3.877   6.533   8.722  0.2181  0.2156 -0.7965
14535SOL    HW145046   3.939   6.464   8.743 -0.0592 -0.6336 -2.5450
14535SOL    HW245047   3.861   6.579   8.804  1.8601 -0.6119  0.0038
14536SOL     OW45048   1.598   7.496   3.014 -0.0126 -0.1525 -0.5730
14536SOL    HW145049   1.618   7.418   2.962  0.7388 -0.1804 -0.2634
14536SOL    HW245050   1.508   7.483   3.044  0.5743 -1.6164  0.6772
14537SOL     OW45051   6.923   2.230   8.312  0.1232 -0.1036  0.5739
14537SOL    HW145052   6.935   2.141   8.279  1.1976 -0.2481  1.3007
14537SOL    HW245053   6.861   2.221   8.384  1.2869 -0.5124  1.5663
14538SOL     OW45054   1.308   6.602   5.677  0.2453 -0.2912 -0.4359
14538SOL    HW145055   1.266   6.516   5.688 -0.0630  0.0192  0.9775
14538SOL    HW245056   1.250   6.663   5.720  0.4865  0.6550 -1.4087
14539SOL     OW45057   5.407   0.476   4.255 -0.2226  0.3694  0.4371
14539SOL    HW145058   5.322   0.462   4.214 -0.6183  0.8894  1.0663
14539SOL    HW245059   5.467   0.487   4.181 -0.6694 -0.1493 -0.0124
14540SOL     OW45060   0.077   0.383   3.365  0.2199  0.0080 -0.1987
14540SOL    HW145061   0.000   0.346   3.322 -1.2669  2.8712 -0.2472
14540SOL    HW245062   0.119   0.437   3.298  0.9833  0.2457  0.4474
14541SOL     OW45063   5.051   0.627   0.079  0.1744 -0.3282 -0.0906
14541SOL    HW145064   5.145   0.641   0.072  0.1329  0.2514  0.4159
14541SOL    HW245065   5.017   0.709   0.115 -0.3922 -0.8910  0.7086
14542SOL     OW45066   4.530   5.981  10.541 -0.3599  0.1060 -0.4493
14542SOL    HW145067   4.588   5.919  10.585 -0.0644  0.1056 -0.8371
14542SOL    HW245068   4.583   6.059  10.529 -0.5485  0.2285 -0.4977
14543SOL     OW45069   5.054   6.270   6.185 -0.2622 -0.2386  0.1063
14543SOL    HW145070   5.027   6.203   6.248 -2.7904  1.5174  1.0894
14543SOL    HW245071   5.003   6.252   6.106 -0.5809  0.2030  0.2041
14544SOL     OW45072   0.027   5.293   3.507 -0.2133  0.0088 -0.0496
14544SOL    HW145073  -0.014   5.284   3.421  1.3844 -1.3634 -0.7298
14544SOL    HW245074  -0.034   5.251   3.567 -1.1528  0.6114 -0.5629
14545SOL     OW45075   4.330   2.294   6.788  0.3913 -0.4507 -0.0298
14545SOL    HW145076   4.290   2.372   6.751 -0.5493 -0.3741  1.0979
14545SOL    HW245077   4.286   2.281   6.873  2.6218 -0.4666  1.2109
14546SOL     OW45078   4.529   2.038   3.021  0.0455  0.7666 -0.3422
14546SOL    HW145079   4.503   2.116   3.071 -0.7268 -0.1727  0.7826
14546SOL    HW245080   4.602   2.068   2.967  0.3142  2.0742  0.6705
14547SOL     OW45081   5.520   2.119   6.469  0.2730  0.0063  0.8307
14547SOL    HW145082   5.588   2.148   6.530  0.6057  4.2113 -1.2107
14547SOL    HW245083   5.494   2.198   6.421 -2.6821 -2.2938 -1.8382
14548SOL     OW45084   0.442   1.170  11.966 -0.1069 -0.3740 -0.4891
14548SOL    HW145085   0.510   1.236  11.958 -0.5529  0.1476 -0.0990
14548SOL    HW245086   0.480   1.090  11.929  0.7906 -0.1542 -0.0427
14549SOL     OW45087   2.130   3.448   5.205 -0.3429  0.2124 -0.0889
14549SOL    HW145088   2.189   3.428   5.132 -1.1588 -0.8299 -0.5032
14549SOL    HW245089   2.186   3.444   5.282  0.1432 -0.8018 -0.4663
14550SOL     OW45090   1.206   0.881   7.825  0.1361 -0.3367 -0.5913
14550SOL    HW145091   1.245   0.798   7.796 -0.1478 -0.4694 -0.5958
14550SOL    HW245092   1.184   0.927   7.744 -0.2356 -0.5074 -0.5865
14551SOL     OW45093   0.344   2.376   3.396  0.3465  0.0811 -0.0490
14551SOL    HW145094   0.339   2.470   3.412  1.6397  0.3199 -0.9519
14551SOL    HW245095   0.257   2.352   3.366 -0.6265  0.5791  2.1543
14552SOL     OW45096   3.477   1.005   9.913  0.4102 -0.0305 -0.0313
14552SOL    HW145097   3.569   1.015   9.890  0.5596 -0.3195  0.4151
14552SOL    HW245098   3.475   1.019  10.008 -0.6063  4.1450 -0.4955
14553SOL     OW45099   4.624   0.396   5.596  0.6425  0.4188  0.0140
14553SOL    HW145100   4.534   0.423   5.577  0.8618 -0.0649 -2.0042
14553SOL    HW245101   4.666   0.474   5.631 -0.6367  0.5579  1.3019
14554SOL     OW45102   0.412   4.946   5.552  0.4169  0.4087  0.0207
14554SOL    HW145103   0.432   4.867   5.503 -0.4620 -0.4876  1.0363
14554SOL    HW245104   0.454   4.932   5.637  1.5147  1.7094 -0.2907
14555SOL     OW45105   5.338   4.381   0.516  0.8331 -0.1324  0.5544
14555SOL    HW145106   5.407   4.424   0.567  2.3142 -0.2708 -1.1741
14555SOL    HW245107   5.373   4.381   0.426 -1.2912 -0.5598 -0.3280
14556SOL     OW45108   3.026   7.238   8.408 -0.6636 -0.2854 -0.2557
14556SOL    HW145109   2.992   7.164   8.458  0.9307 -1.2444 -0.5211
14556SOL    HW245110   3.027   7.207   8.317  0.0028  0.0614 -0.3738
14557SOL     OW45111   6.829   7.452   9.392  0.1558 -0.2783 -0.6172
14557SOL    HW145112   6.895   7.414   9.450  0.0343  0.5658  0.1057
14557SOL    HW245113   6.805   7.381   9.333  3.5119  0.0493 -2.6074
14558SOL     OW45114   6.367   7.163  11.866  0.0435  0.0666 -0.1916
14558SOL    HW145115   6.410   7.105  11.930 -1.5759 -0.5187  0.4129
14558SOL    HW245116   6.312   7.105  11.815 -0.3481  0.8592 -0.6794
14559SOL     OW45117   7.428   3.106   9.211  0.1603  0.3867 -0.3441
14559SOL    HW145118   7.335   3.123   9.224  0.5328  1.5804  1.1265
14559SOL    HW245119   7.440   3.014   9.236 -0.5073  0.4445  0.2281
14560SOL     OW45120   5.507   4.531   0.677 -0.3613  0.5563 -0.2841
14560SOL    HW145121   5.504   4.578   0.594  0.9472  2.2139  0.5668
14560SOL    HW245122   5.453   4.583   0.736  0.3215  0.4830  0.4213
14561SOL     OW45123   4.599   3.152  10.187  0.4142  0.3676 -1.0240
14561SOL    HW145124   4.569   3.100  10.112 -0.9970  1.1551 -1.0427
14561SOL    HW245125   4.626   3.235  10.148  1.8948 -0.0243 -0.8986
14562SOL     OW45126   4.845   6.964   3.361 -0.4773 -0.0285 -0.4258
14562SOL    HW145127   4.892   6.930   3.437 -1.5578 -2.0835 -0.6020
14562SOL    HW245128   4.849   6.893   3.297 -1.0998  0.9889 -1.6368
14563SOL     OW45129   3.045   2.440   7.049 -0.0453 -0.4146 -0.4058
14563SOL    HW145130   3.034   2.516   7.107 -0.6678 -1.0938  0.3816
14563SOL    HW245131   2.958   2.424   7.013  0.4855  0.5252 -2.2449
14564SOL     OW45132   4.046   2.536   3.227 -0.2514 -0.3620  0.0532
14564SOL    HW145133   4.108   2.606   3.205 -0.9312  0.3337  0.3008
14564SOL    HW245134   4.016   2.558   3.315 -0.2878 -1.1167  0.2373
14565SOL     OW45135   0.153   6.120  10.884  0.1417  0.0277 -0.1869
14565SOL    HW145136   0.116   6.119  10.796 -0.4589  0.0681  0.0599
14565SOL    HW245137   0.247   6.123  10.870  0.0493  2.9741 -0.8688
14566SOL     OW45138   7.864   6.238   2.332  0.2954 -0.1624 -0.3502
14566SOL    HW145139   7.876   6.292   2.410 -0.2127  0.2515 -0.5500
14566SOL    HW245140   7.769   6.229   2.323  0.2910  0.8446 -1.6144
14567SOL     OW45141   6.130   0.976   3.480 -0.4890 -0.0680  0.2726
14567SOL    HW145142   6.082   0.943   3.404 -1.8244  0.4104  0.8765
14567SOL    HW245143   6.215   0.934   3.475 -0.8615 -0.7094 -1.0098
14568SOL     OW45144   0.614   5.225   2.527  0.3965 -0.5516 -0.1710
14568SOL    HW145145   0.684   5.279   2.489  0.7250 -1.0852 -0.3287
14568SOL    HW245146   0.534   5.259   2.487  0.6986 -0.8467 -1.0608
14569SOL     OW45147   1.477   4.300   9.595  0.2978 -0.4096 -0.1913
14569SOL    HW145148   1.479   4.211   9.628 -1.7615 -0.8159 -1.0156
14569SOL    HW245149   1.533   4.299   9.517 -0.1332 -1.1236 -0.4966
14570SOL     OW45150   4.989   0.555   9.378  0.2972 -0.0247 -0.1291
14570SOL    HW145151   4.983   0.650   9.364 -0.6788 -0.1361 -0.5554
14570SOL    HW245152   4.922   0.518   9.321  0.4527 -0.9581  0.2728
14571SOL     OW45153   2.209   6.428   3.843 -0.4755 -0.1903  0.8354
14571SOL    HW145154   2.189   6.366   3.773  3.6769  0.0633 -0.8565
14571SOL    HW245155   2.237   6.374   3.917 -1.2788 -0.3683  1.0214
14572SOL     OW45156   5.142   3.486  11.306  0.0476 -0.1515  0.0451
14572SOL    HW145157   5.231   3.451  11.317  1.5707  3.5324  0.9041
14572SOL    HW245158   5.134   3.501  11.212  0.5599 -0.0375  0.0123
14573SOL     OW45159   7.407   3.511   2.439  0.5065 -0.2934 -0.1779
14573SOL    HW145160   7.471   3.445   2.412  2.8243  2.1418 -1.0879
14573SOL    HW245161   7.381   3.485   2.527 -0.0175 -3.2963 -1.1138
14574SOL     OW45162   0.061   5.305   9.725 -0.0922 -0.1973  0.6932
14574SOL    HW145163   0.151   5.275   9.725  0.1508  0.4713 -0.5552
14574SOL    HW245164   0.066   5.399   9.746 -0.2552  0.3677 -1.5333
14575SOL     OW45165   5.342   0.277   9.956  0.7234  0.4133  0.0858
14575SOL    HW145166   5.430   0.242   9.940  1.0267  1.2368 -0.0699
14575SOL    HW245167   5.297   0.268   9.872  1.4449  2.2103 -0.5527
14576SOL     OW45168   2.077   1.121   9.526  0.0624 -0.6512  0.1969
14576SOL    HW145169   2.042   1.035   9.501  0.6392 -1.3266  1.5587
14576SOL    HW245170   2.136   1.145   9.455 -0.7867 -0.9426 -0.6328
14577SOL     OW45171   7.004   1.332   7.958 -0.3957  0.0573 -0.1859
14577SOL    HW145172   7.034   1.404   7.902 -1.8453  1.3381  0.6103
14577SOL    HW245173   6.962   1.271   7.898 -1.5490  1.2070 -0.5868
14578SOL     OW45174   7.753   2.286   7.291  0.4692 -0.0124 -0.0903
14578SOL    HW145175   7.732   2.192   7.294 -0.1811  0.0882 -1.0332
14578SOL    HW245176   7.828   2.292   7.232  1.5371 -0.0880  1.2134
14579SOL     OW45177   6.215   3.288   6.389  0.0017 -0.5841 -0.1348
14579SOL    HW145178   6.272   3.360   6.361  0.9526 -1.6116 -0.9677
14579SOL    HW245179   6.243   3.270   6.479 -0.6199  0.4166  0.2795
14580SOL     OW45180   2.675   3.410   7.681 -0.3733 -0.0543 -0.5004
14580SOL    HW145181   2.683   3.410   7.586 -0.3453  1.2247 -0.5062
14580SOL    HW245182   2.614   3.481   7.701  2.3325  2.1014  0.6275
14581SOL     OW45183   0.327   4.878   3.929  0.4227  0.2260 -0.3860
14581SOL    HW145184   0.418   4.878   3.897  0.4525 -0.5494 -0.3311
14581SOL    HW245185   0.334   4.911   4.018  0.2333  3.2111 -1.3749
14582SOL     OW45186   5.382   0.833   4.586 -0.1963  0.5686 -0.4286
14582SOL    HW145187   5.421   0.861   4.503 -0.2297  2.5379  0.1462
14582SOL    HW245188   5.312   0.897   4.602  1.5342  2.0223  2.3761
14583SOL     OW45189   7.155   6.302   2.389 -0.3298 -0.1668  0.3459
14583SOL    HW145190   7.115   6.330   2.471 -1.6544  0.2310 -0.4083
14583SOL    HW245191   7.147   6.206   2.390 -1.2404 -0.0973  0.2495
14584SOL     OW45192   6.826   7.229   4.929  0.2759 -0.0214 -0.0356
14584SOL    HW145193   6.834   7.308   4.983  1.5645 -1.4462  2.0562
14584SOL    HW245194   6.911   7.185   4.939  0.2441 -0.8283 -2.6048
14585SOL     OW45195   0.681   2.429   0.535 -0.5661  0.9890 -0.1964
14585SOL    HW145196   0.644   2.514   0.559  2.2542  2.3647 -0.2617
14585SOL    HW245197   0.761   2.422   0.587 -0.6236 -1.5968 -0.3245
14586SOL     OW45198   1.514   4.807   7.134 -0.1291  0.4815  0.2328
14586SOL    HW145199   1.435   4.782   7.182  0.3683  2.1006  2.0066
14586SOL    HW245200   1.562   4.725   7.122 -0.8832 -0.1548  1.4098
14587SOL     OW45201   0.506   2.770   6.190  0.5893 -0.1593  0.2362
14587SOL    HW145202   0.553   2.817   6.259 -1.8843  2.7874  0.1502
14587SOL    HW245203   0.432   2.729   6.235  0.2361 -0.1671 -0.3435
14588SOL     OW45204   2.480   5.650   1.578  0.5202 -0.3705 -0.3532
14588SOL    HW145205   2.565   5.607   1.586  0.8484  0.4629  0.9812
14588SOL    HW245206   2.494   5.738   1.614  0.0317  1.1517 -3.4824
14589SOL     OW45207   4.747   2.353  11.244  0.1260  0.4825  0.1593
14589SOL    HW145208   4.688   2.286  11.211 -0.2596 -0.5822  2.7120
14589SOL    HW245209   4.729   2.430  11.190 -1.5015 -0.6367 -1.0028
14590SOL     OW45210   7.525   1.111   0.280 -0.4608  0.3678 -0.5613
14590SOL    HW145211   7.466   1.040   0.306 -0.6917  0.2575 -1.3667
14590SOL    HW245212   7.521   1.112   0.185  1.1312  0.1086 -0.6607
14591SOL     OW45213   4.504   4.516   0.995 -0.6423  0.2683  0.3818
14591SOL    HW145214   4.460   4.596   1.022 -1.7833  0.5954 -2.1753
14591SOL    HW245215   4.575   4.545   0.939 -0.7913 -0.4896 -0.2170
14592SOL     OW45216   1.196   2.678   8.638 -0.5039  0.5947  0.1647
14592SOL    HW145217   1.229   2.615   8.574  1.4304  0.8180  0.8656
14592SOL    HW245218   1.143   2.739   8.587 -0.8565 -0.5218 -0.8290
14593SOL     OW45219   0.501   2.173   1.227  0.2290  0.1810 -0.0801
14593SOL    HW145220   0.552   2.184   1.147  0.5857  2.2075  0.3715
14593SOL    HW245221   0.555   2.211   1.296 -1.6003  1.9422  0.4863
14594SOL     OW45222   5.929   0.150   5.986 -0.3029 -0.3027  0.1540
14594SOL    HW145223   5.861   0.087   6.010 -0.6928  0.0323 -0.0645
14594SOL    HW245224   5.917   0.163   5.892 -0.6387  0.5846  0.3149
14595SOL     OW45225   0.259   1.926   6.856  0.6817  0.0277  0.4036
14595SOL    HW145226   0.349   1.930   6.824  0.5554  0.6352  0.1093
14595SOL    HW245227   0.266   1.882   6.941  1.0038 -1.6403 -0.4549
14596SOL     OW45228   1.661   2.621   9.970 -0.3608 -0.5940  0.2413
14596SOL    HW145229   1.750   2.645   9.944 -0.5002  1.4073  1.3977
14596SOL    HW245230   1.608   2.635   9.892  0.1217 -0.3423 -0.0448
14597SOL     OW45231   3.548   2.866   7.473 -0.2127 -0.0687 -0.7630
14597SOL    HW145232   3.558   2.959   7.493  0.4626 -0.4115  0.6266
14597SOL    HW245233   3.589   2.821   7.547 -0.0220 -1.4721 -1.6765
14598SOL     OW45234   1.301   1.344   3.868  0.1804  0.1228  0.0802
14598SOL    HW145235   1.375   1.296   3.832  0.8665  1.3126 -0.1589
14598SOL    HW245236   1.224   1.294   3.840  0.7232  0.4922 -2.3262
14599SOL     OW45237   5.580   3.255  11.875 -0.7441  0.0005 -0.3781
14599SOL    HW145238   5.608   3.307  11.800 -0.1581  0.5798  0.2147
14599SOL    HW245239   5.645   3.185  11.882 -0.5866  0.1567 -0.2173
14600SOL     OW45240   6.713   0.816  11.381  0.2843 -0.3295  0.5998
14600SOL    HW145241   6.779   0.875  11.418  0.3644 -0.7461  1.1435
14600SOL    HW245242   6.668   0.868  11.315  0.4529  0.2925  0.9630
14601SOL     OW45243   0.707   0.964   9.224 -0.3254  0.1648 -0.1512
14601SOL    HW145244   0.760   0.909   9.281  1.6182  1.9657 -0.0592
14601SOL    HW245245   0.633   0.991   9.278 -1.5996 -2.6218 -0.3576
14602SOL     OW45246   1.674   3.813   1.087  0.5281  0.1553  0.1761
14602SOL    HW145247   1.770   3.807   1.087  0.4709 -1.0724  0.1737
14602SOL    HW245248   1.651   3.824   1.179  0.5784 -2.2580  0.5456
14603SOL     OW45249   4.228   4.559   9.990 -0.4559 -0.0280  0.1014
14603SOL    HW145250   4.149   4.593  10.032  0.1874  2.3568 -0.5033
14603SOL    HW245251   4.261   4.494  10.052 -1.4864  0.8176  1.6059
14604SOL     OW45252   0.414   6.528  10.217 -0.0838 -0.0557  0.5626
14604SOL    HW145253   0.335   6.581  10.200  0.2305 -0.0738 -1.0888
14604SOL    HW245254   0.430   6.540  10.311 -3.2550 -1.7358  1.4911
14605SOL     OW45255   5.285   6.197   8.691  0.2820  0.0469 -0.3055
14605SOL    HW145256   5.278   6.101   8.691  0.1785  0.0526 -0.7706
14605SOL    HW245257   5.316   6.218   8.779 -0.8014 -0.3364  0.1858
14606SOL     OW45258   6.884   2.162   0.223 -0.1291 -0.4501  0.2088
14606SOL    HW145259   6.884   2.221   0.148  2.1308 -1.1999 -0.4392
14606SOL    HW245260   6.879   2.221   0.299 -3.2615  0.2937 -0.4038
14607SOL     OW45261   1.156   0.767   6.663 -0.9221 -0.2252  0.3410
14607SOL    HW145262   1.221   0.720   6.611 -0.8090 -0.3139  0.5596
14607SOL    HW245263   1.104   0.698   6.704 -1.3226 -0.1531 -0.0395
14608SOL     OW45264   1.397   2.841   7.260  0.1475 -0.3965 -0.0732
14608SOL    HW145265   1.424   2.799   7.342  2.7385 -1.0102 -1.1592
14608SOL    HW245266   1.324   2.787   7.229  0.1743 -1.1024  1.0297
14609SOL     OW45267   4.829   5.198  11.178 -0.1811  0.2278 -0.1399
14609SOL    HW145268   4.842   5.110  11.143  1.0239  0.4296 -0.2524
14609SOL    HW245269   4.736   5.215  11.166 -1.1367 -2.2020  2.6408
14610SOL     OW45270   0.275   0.309   4.110 -0.1714 -0.7174 -0.2782
14610SOL    HW145271   0.315   0.376   4.055 -0.8045 -0.5933 -0.6051
14610SOL    HW245272   0.344   0.281   4.170  0.9191 -1.7597 -1.9396
14611SOL     OW45273   5.042   4.777  12.057  0.2171 -0.2336 -0.0993
14611SOL    HW145274   4.963   4.726  12.040  0.0966 -0.8763  2.0862
14611SOL    HW245275   5.113   4.725  12.019 -0.1872 -0.7846 -0.1160
14612SOL     OW45276   0.811   7.085   1.506  0.0777  0.2064  0.0301
14612SOL    HW145277   0.792   7.005   1.457  2.3985 -0.6442  0.3750
14612SOL    HW245278   0.726   7.114   1.538 -1.1570 -0.6943 -2.2064
14613SOL     OW45279   3.137   7.970   8.547 -0.4068  0.1453 -0.2349
14613SOL    HW145280   3.179   7.972   8.633 -0.7884  0.9863 -0.0555
14613SOL    HW245281   3.138   8.061   8.518  0.8477 -0.2914 -1.6984
14614SOL     OW45282   2.790   4.148   4.228  0.0506 -0.0832 -0.1073
14614SOL    HW145283   2.885   4.154   4.236  0.0531 -1.0990  0.8085
14614SOL    HW245284   2.766   4.071   4.280 -1.4970  1.4510  1.5979
14615SOL     OW45285   1.226   2.972   9.830  0.3517  0.1776 -0.5635
14615SOL    HW145286   1.303   2.961   9.885  0.1923  0.2627 -0.3201
14615SOL    HW245287   1.231   2.901   9.766  0.0552 -0.4929  0.1352
14616SOL     OW45288   5.097   7.970   4.002 -0.8140  0.0542 -0.0286
14616SOL    HW145289   5.064   7.965   3.912 -3.0052 -1.1794  0.7464
14616SOL    HW245290   5.045   7.905   4.049  0.5887  0.3576  2.0552
14617SOL     OW45291   2.450   4.194  12.412  0.0863  0.5610  0.3904
14617SOL    HW145292   2.443   4.288  12.428 -0.3190  0.2718  2.0764
14617SOL    HW245293   2.533   4.169  12.451 -0.4032  0.0126  1.0978
14618SOL     OW45294   6.214   6.284   2.836  0.0591 -0.2794  0.2433
14618SOL    HW145295   6.138   6.244   2.878 -1.1124  0.6581 -0.9006
14618SOL    HW245296   6.196   6.276   2.742  1.3473  0.0368 -0.0476
14619SOL     OW45297   1.484   5.054   1.110 -0.0035 -0.2482  0.9745
14619SOL    HW145298   1.397   5.013   1.113  0.3992 -1.1219  1.1704
14619SOL    HW245299   1.517   5.032   1.023 -0.1823  0.5343  0.7036
14620SOL     OW45300   2.750   1.365  10.774  0.1738 -0.1386  0.3611
14620SOL    HW145301   2.736   1.330  10.686  1.8699  1.0064 -0.4161
14620SOL    HW245302   2.695   1.444  10.778  2.1286  1.3712 -0.7490
14621SOL     OW45303   7.985   3.854   8.837 -0.1807  0.2412  0.0453
14621SOL    HW145304   7.916   3.920   8.830 -0.1225  0.6789  2.6641
14621SOL    HW245305   7.982   3.826   8.929  1.8072 -1.2183 -0.2720
14622SOL     OW45306   2.823   0.738   6.450  0.0700  0.1972  0.1486
14622SOL    HW145307   2.737   0.769   6.423 -0.0636  0.4875  0.8918
14622SOL    HW245308   2.821   0.741   6.546  1.3515  1.4484  0.1619
14623SOL     OW45309   4.024   6.565   7.156  0.5076 -0.0774 -1.0102
14623SOL    HW145310   4.080   6.626   7.204  2.7935 -1.7085 -1.4152
14623SOL    HW245311   3.976   6.519   7.224  2.4450 -1.1661 -0.2775
14624SOL     OW45312   6.971   4.002   6.302  0.7177 -0.3495  0.0328
14624SOL    HW145313   6.903   4.022   6.237  0.8300  0.8550  0.2566
14624SOL    HW245314   7.054   4.015   6.254  0.8133  1.2375  0.5713
14625SOL     OW45315   5.937   4.770   1.534 -0.5905 -0.4569 -0.2709
14625SOL    HW145316   5.857   4.717   1.540 -0.9791  0.0473 -0.8660
14625SOL    HW245317   6.007   4.705   1.530 -0.9347 -0.8991  0.6308
14626SOL     OW45318   0.465   6.898   8.370  0.2501 -0.5471 -0.3955
14626SOL    HW145319   0.389   6.859   8.412  0.3886  0.4945  0.8842
14626SOL    HW245320   0.476   6.848   8.289 -1.2263 -1.3102 -0.1577
14627SOL     OW45321   2.108   2.646   8.501  0.0409  0.7192  0.8289
14627SOL    HW145322   2.157   2.564   8.492 -2.3203 -0.6203 -1.3559
14627SOL    HW245323   2.119   2.670   8.592  3.4005 -0.2658  0.8327
14628SOL     OW45324   3.022   6.153   9.295  0.0164 -0.2819  0.3098
14628SOL    HW145325   2.933   6.124   9.277  0.1868 -0.3767 -0.4117
14628SOL    HW245326   3.014   6.247   9.313 -0.7094 -0.8900  3.8389
14629SOL     OW45327   5.611   0.543   6.287 -0.4128 -0.2435  0.0772
14629SOL    HW145328   5.658   0.465   6.317  0.3840  0.4869  0.7956
14629SOL    HW245329   5.558   0.569   6.363 -1.4745 -0.6612 -0.4995
14630SOL     OW45330   6.159   7.597   6.867  0.2141  0.0393 -0.0097
14630SOL    HW145331   6.158   7.634   6.778  1.3665  0.6028  0.1879
14630SOL    HW245332   6.117   7.664   6.921  0.0125 -0.0575 -0.0471
14631SOL     OW45333   6.415   5.784   6.145 -0.3006 -0.3370 -0.9734
14631SOL    HW145334   6.477   5.761   6.214 -0.7330  1.3271  0.0282
14631SOL    HW245335   6.456   5.857   6.100 -1.3195  0.5284 -0.5481
14632SOL     OW45336   5.021   4.294   0.639 -0.4428  0.2655  0.4887
14632SOL    HW145337   5.018   4.311   0.545 -0.2743  0.0964  0.4533
14632SOL    HW245338   4.934   4.260   0.660 -0.6564  0.7951  0.4897
14633SOL     OW45339   5.163   2.110   0.118 -0.0576  0.7663  0.0208
14633SOL    HW145340   5.182   2.190   0.168  1.0545  0.2488  0.4662
14633SOL    HW245341   5.086   2.132   0.065 -0.9003  1.5436  1.4963
14634SOL     OW45342   3.336   7.466   4.622  0.1267  0.2572 -0.0770
14634SOL    HW145343   3.320   7.372   4.616 -0.6987  0.4483 -1.2729
14634SOL    HW245344   3.382   7.488   4.541 -0.9101  1.0844 -0.4738
14635SOL     OW45345   7.407   6.296   9.072 -0.0809  0.0774 -0.0327
14635SOL    HW145346   7.387   6.381   9.111  1.3938  0.5682 -0.3116
14635SOL    HW245347   7.481   6.263   9.123  0.0197 -0.5726 -0.5889
14636SOL     OW45348   2.409   1.812   9.066 -0.0498  0.5374 -0.1280
14636SOL    HW145349   2.323   1.840   9.036 -0.2782 -0.2949 -0.2713
14636SOL    HW245350   2.395   1.780   9.155  0.6261  2.9895  0.9528
14637SOL     OW45351   6.831   0.506  10.408  0.5741  0.2339  0.7395
14637SOL    HW145352   6.852   0.413  10.400 -0.8716 -0.1551  1.2867
14637SOL    HW245353   6.913   0.546  10.438  1.6264 -0.6165 -0.8063
14638SOL     OW45354   3.473   3.140   7.763  0.0677  0.4382 -0.0372
14638SOL    HW145355   3.446   3.130   7.855 -1.2326 -1.8593 -0.5874
14638SOL    HW245356   3.453   3.231   7.742  0.4486  1.0375  1.9488
14639SOL     OW45357   0.155   6.326   4.002 -0.0308 -0.0109 -0.3594
14639SOL    HW145358   0.203   6.360   3.926 -1.6644 -1.4925 -2.1281
14639SOL    HW245359   0.223   6.316   4.069  1.2092  2.7905 -1.0298
14640SOL     OW45360   4.411   1.068   7.251 -0.1256  0.4508  0.1790
14640SOL    HW145361   4.499   1.105   7.253 -0.2006  0.6355  1.6634
14640SOL    HW245362   4.395   1.049   7.159  1.5977  0.0933 -0.0893
14641SOL     OW45363   3.187   3.819  10.456 -0.1576 -0.1580 -0.1005
14641SOL    HW145364   3.124   3.800  10.387 -0.2207  0.3708 -0.1870
14641SOL    HW245365   3.272   3.806  10.415 -0.1738  0.9851 -0.5304
14642SOL     OW45366   5.657   4.606   7.352  0.1384  0.4057  0.0038
14642SOL    HW145367   5.739   4.575   7.391  1.3302  2.0430 -1.0979
14642SOL    HW245368   5.623   4.529   7.306  1.3537 -0.1380 -0.0256
14643SOL     OW45369   0.186   4.800  11.536  0.1642  0.4339  0.1626
14643SOL    HW145370   0.254   4.867  11.534 -2.2318  3.0463 -0.8505
14643SOL    HW245371   0.148   4.801  11.448 -1.9155 -0.0644  0.9887
14644SOL     OW45372   0.626   3.921   0.958  0.0253  0.0148  0.3137
14644SOL    HW145373   0.615   3.936   1.052  0.0419 -0.5761  0.4194
14644SOL    HW245374   0.690   3.986   0.930  0.9012 -0.5366  0.9573
14645SOL     OW45375   6.379   0.260   1.728  0.0610  0.1522  0.2492
14645SOL    HW145376   6.442   0.199   1.689 -1.1981  0.1153 -1.8749
14645SOL    HW245377   6.429   0.340   1.744  0.9582 -0.3402 -0.0288
14646SOL     OW45378   6.220   6.430   0.590 -0.5559  0.2561 -0.3769
14646SOL    HW145379   6.309   6.466   0.585 -0.8208  0.8265 -1.3044
14646SOL    HW245380   6.226   6.360   0.654  0.7049 -0.1226 -0.8736
14647SOL     OW45381   0.620   5.176   4.415  0.5686  0.4184  0.6224
14647SOL    HW145382   0.539   5.219   4.387  0.7484  0.1918 -0.2712
14647SOL    HW245383   0.599   5.140   4.501 -0.4561 -0.0734  0.1836
14648SOL     OW45384   7.865   5.854  10.502 -0.4528  0.5286 -0.6290
14648SOL    HW145385   7.909   5.865  10.587 -1.2515  0.2290 -0.1698
14648SOL    HW245386   7.929   5.886  10.438  0.4753 -0.0036  0.0146
14649SOL     OW45387   2.196   1.600   0.996 -0.2800  0.5545 -0.5440
14649SOL    HW145388   2.197   1.529   0.933  1.4164  1.1634 -1.2378
14649SOL    HW245389   2.102   1.619   1.009 -0.8290 -2.3004  0.3131
14650SOL     OW45390   2.107   3.330  10.205  0.0599 -1.0691  0.2893
14650SOL    HW145391   2.015   3.357  10.207 -0.5837 -3.0401 -0.3384
14650SOL    HW245392   2.154   3.408  10.174 -1.0028  0.7955  2.9595
14651SOL     OW45393   1.739   7.680   3.403  0.1882  0.5691  0.1683
14651SOL    HW145394   1.768   7.668   3.494 -0.2550  1.5912  0.4624
14651SOL    HW245395   1.809   7.642   3.350  0.3863 -0.1707  0.9440
14652SOL     OW45396   6.566   2.728  10.313  0.5015  0.2750 -0.4842
14652SOL    HW145397   6.578   2.760  10.223  0.1143 -0.7325 -0.9202
14652SOL    HW245398   6.598   2.799  10.369  1.5058  0.5966 -1.4302
14653SOL     OW45399   4.101   7.617  11.710 -0.0786 -0.4513  0.3315
14653SOL    HW145400   4.006   7.629  11.718 -0.0824 -0.2677  0.0122
14653SOL    HW245401   4.131   7.694  11.662  0.3221 -0.1929  0.9876
14654SOL     OW45402   2.234   1.546   1.490  0.2030  0.4153  0.2516
14654SOL    HW145403   2.140   1.530   1.495  0.0513  1.4940  1.0924
14654SOL    HW245404   2.242   1.636   1.461  1.0198 -0.2494 -1.7473
14655SOL     OW45405   7.430   4.838   7.600 -0.6635 -0.7553 -0.0283
14655SOL    HW145406   7.448   4.911   7.542 -1.8065 -0.6629 -0.2927
14655SOL    HW245407   7.379   4.777   7.547  1.3231 -2.3798 -0.2110
14656SOL     OW45408   4.848   0.567   2.510  0.4135 -0.2678 -0.2624
14656SOL    HW145409   4.851   0.572   2.414  0.5917  0.4188 -0.2275
14656SOL    HW245410   4.929   0.521   2.533  0.9689  0.6040 -0.3921
14657SOL     OW45411   3.155   6.510   0.859 -0.1512 -0.3362 -0.7763
14657SOL    HW145412   3.132   6.582   0.801 -1.3283 -0.0433  0.0045
14657SOL    HW245413   3.155   6.549   0.947  1.9406 -0.6792 -0.5662
14658SOL     OW45414   1.036   1.622   5.574 -0.1954  0.3055 -0.4582
14658SOL    HW145415   0.950   1.610   5.536 -0.7192  1.9331  0.1198
14658SOL    HW245416   1.022   1.621   5.668  0.7455 -1.4367 -0.3009
14659SOL     OW45417   5.363   4.888   2.747 -0.2461 -0.0447 -0.4585
14659SOL    HW145418   5.354   4.803   2.791 -0.1581 -0.0169 -0.3871
14659SOL    HW245419   5.395   4.866   2.660 -0.5008 -0.1061 -0.5383
14660SOL     OW45420   0.206   5.859   3.419 -0.3965 -0.1471  0.0092
14660SOL    HW145421   0.184   5.799   3.491  0.9087 -0.7288 -0.0534
14660SOL    HW245422   0.230   5.801   3.347 -1.0400  0.4430 -0.6932
14661SOL     OW45423   4.195   2.780   5.931 -0.0456  0.0646  0.0945
14661SOL    HW145424   4.191   2.693   5.892  0.1825 -0.0695  0.3713
14661SOL    HW245425   4.280   2.815   5.905  0.2360 -0.1422  0.7101
14662SOL     OW45426   6.000   0.800   5.913 -0.6346  0.1666 -0.5790
14662SOL    HW145427   5.954   0.869   5.961  0.7988  0.9233 -0.2105
14662SOL    HW245428   6.088   0.835   5.901 -0.2014 -1.1459 -1.4015
14663SOL     OW45429   3.188   1.984   3.187  0.0125  0.3915  0.5258
14663SOL    HW145430   3.169   1.897   3.152 -0.0156  1.5833 -2.7663
14663SOL    HW245431   3.102   2.023   3.202  0.0301  0.1816  1.2484
14664SOL     OW45432   6.173   1.175   6.012 -0.7217  0.4136 -0.4706
14664SOL    HW145433   6.198   1.155   5.922  2.2843  2.3393 -0.2037
14664SOL    HW245434   6.242   1.137   6.066 -1.7711  0.4152  0.9474
14665SOL     OW45435   1.609   3.185  10.245 -0.3665 -0.4746 -0.4290
14665SOL    HW145436   1.684   3.195  10.187 -0.4314  0.3324 -0.3766
14665SOL    HW245437   1.629   3.239  10.321 -1.6106  0.9179 -1.0320
14666SOL     OW45438   6.744   5.946  11.545 -0.4569 -0.3325  0.0266
14666SOL    HW145439   6.816   5.950  11.608  0.5107 -0.7620 -1.0257
14666SOL    HW245440   6.719   5.853  11.544 -0.2354 -0.3851 -0.4891
14667SOL     OW45441   2.898   7.537  10.368 -0.3692 -0.1622 -0.6273
14667SOL    HW145442   2.949   7.497  10.438  4.0738  1.5902 -2.4883
14667SOL    HW245443   2.854   7.612  10.410  1.8501  0.6112  0.4842
14668SOL     OW45444   6.298   4.405   5.012 -0.4262 -0.1394  0.5534
14668SOL    HW145445   6.254   4.488   4.998  0.4597  0.0561 -1.3283
14668SOL    HW245446   6.242   4.340   4.971  0.6298  0.0259 -1.2368
14669SOL     OW45447   4.763   1.621   1.791 -0.5713 -0.3529  0.0853
14669SOL    HW145448   4.802   1.688   1.735 -2.1489 -0.1225 -0.7919
14669SOL    HW245449   4.837   1.570   1.823  0.8485  2.4851  1.7673
14670SOL     OW45450   0.135   2.164   4.184  0.1502 -0.4532  0.5804
14670SOL    HW145451   0.150   2.073   4.210 -1.1156 -0.7187  0.4792
14670SOL    HW245452   0.177   2.172   4.099 -0.5143 -1.2326  0.1629
14671SOL     OW45453   6.013   3.999   6.292 -0.1535 -0.0816  1.1076
14671SOL    HW145454   5.959   3.939   6.343  0.2879  0.3786  2.1478
14671SOL    HW245455   6.086   4.020   6.350  0.3714  0.4466  0.2710
14672SOL     OW45456   1.629   0.150   8.383  0.3572 -0.4437 -0.2167
14672SOL    HW145457   1.668   0.148   8.470 -0.7109  0.1398  0.3046
14672SOL    HW245458   1.550   0.203   8.394 -0.8947 -2.0370 -1.0901
14673SOL     OW45459   1.359   1.064   7.480 -0.1848  0.1849  0.6685
14673SOL    HW145460   1.415   1.141   7.492  0.0332  0.3691 -1.2687
14673SOL    HW245461   1.394   1.020   7.403 -1.2975 -0.9901  0.7921
14674SOL     OW45462   2.868   0.680   1.675 -0.2396 -0.3820 -1.0397
14674SOL    HW145463   2.856   0.697   1.582  3.0269 -1.3898 -1.7867
14674SOL    HW245464   2.935   0.611   1.678  0.2589  0.0863  2.0567
14675SOL     OW45465   6.805   7.875   8.715 -0.2510 -0.0432  0.0609
14675SOL    HW145466   6.733   7.856   8.655  0.6424 -2.0479 -0.4696
14675SOL    HW245467   6.789   7.817   8.790  2.2278 -2.7615 -1.3119
14676SOL     OW45468   3.280   0.493   5.644 -0.3732 -0.0318 -0.3516
14676SOL    HW145469   3.227   0.465   5.569 -1.1809 -1.3040  0.6467
14676SOL    HW245470   3.229   0.561   5.686  0.5084  1.3630 -1.4359
14677SOL     OW45471   5.666   4.938   2.603  0.4434  0.2683  0.0763
14677SOL    HW145472   5.596   4.910   2.543 -1.6078  0.8996  2.0082
14677SOL    HW245473   5.712   5.006   2.555 -1.3893  1.0455 -0.7046
14678SOL     OW45474   3.318   6.716   7.732  0.1891 -0.3663  0.0662
14678SOL    HW145475   3.244   6.766   7.697 -0.2242 -0.7861  0.3218
14678SOL    HW245476   3.387   6.727   7.667  0.8557  2.2646  1.0760
14679SOL     OW45477   1.141   2.651   2.256 -0.4269 -0.5004  0.2523
14679SOL    HW145478   1.201   2.580   2.278  1.6662  0.9585 -0.4907
14679SOL    HW245479   1.136   2.649   2.160  0.6644  1.1003  0.1353
14680SOL     OW45480   0.967   6.640   2.360  0.0824  0.1038  0.2282
14680SOL    HW145481   1.030   6.604   2.424  0.2564  0.8497  0.4851
14680SOL    HW245482   0.939   6.723   2.398 -0.5008  0.1283 -0.2443
14681SOL     OW45483   5.436   0.567   9.921 -0.0499  0.0866  0.1221
14681SOL    HW145484   5.426   0.564   9.826  0.4633  0.2251  0.0615
14681SOL    HW245485   5.468   0.655   9.940  1.5104 -0.4799  0.2514
14682SOL     OW45486   3.335   6.742   4.792 -1.2474 -0.2663 -0.2507
14682SOL    HW145487   3.361   6.721   4.882  0.3662 -1.8644 -1.0119
14682SOL    HW245488   3.375   6.673   4.739 -0.9576  1.3880 -2.3524
14683SOL     OW45489   4.532   1.224   5.641 -0.4541  0.2792 -0.3054
14683SOL    HW145490   4.518   1.318   5.653  1.7439  0.7005 -0.5144
14683SOL    HW245491   4.559   1.192   5.727 -1.6286 -0.2747 -0.1271
14684SOL     OW45492   2.751   0.406   8.841 -0.1666 -0.0799  0.5234
14684SOL    HW145493   2.761   0.310   8.845  3.8710 -0.0767 -2.8948
14684SOL    HW245494   2.793   0.437   8.921  1.9508 -1.1997 -0.0662
14685SOL     OW45495   2.134   5.181  12.180 -0.0632  0.1217 -0.1768
14685SOL    HW145496   2.096   5.267  12.161 -0.2001 -0.3531 -2.2844
14685SOL    HW245497   2.059   5.122  12.189  0.0360 -0.3922 -2.1758
14686SOL     OW45498   3.421   0.678  10.316  0.1883 -0.4227 -0.0081
14686SOL    HW145499   3.507   0.677  10.359  0.3525  1.6217 -0.2160
14686SOL    HW245500   3.359   0.663  10.387  0.6446 -0.7680  0.3275
14687SOL     OW45501   6.574   5.230   6.319 -0.7708  0.0791 -0.3932
14687SOL    HW145502   6.650   5.246   6.262 -0.0316 -0.0260  0.5287
14687SOL    HW245503   6.613   5.199   6.401 -1.9336 -2.1291 -0.6180
14688SOL     OW45504   7.513   7.779   3.197  0.1306 -0.9566 -0.7020
14688SOL    HW145505   7.440   7.834   3.167 -0.4457 -1.3695 -0.1062
14688SOL    HW245506   7.539   7.817   3.281  0.3525 -1.0207 -0.7431
14689SOL     OW45507   0.056   2.153   8.491  0.2131 -0.2780  0.6796
14689SOL    HW145508  -0.037   2.134   8.478 -0.0993  0.9955  0.8928
14689SOL    HW245509   0.063   2.180   8.583  0.6450  0.3735  0.4700
14690SOL     OW45510   2.815   5.201   8.326  0.1316  0.3095 -0.0480
14690SOL    HW145511   2.768   5.249   8.258 -0.7929  0.4202  0.6557
14690SOL    HW245512   2.892   5.255   8.344 -0.2828  0.9259 -0.1007
14691SOL     OW45513   1.105   3.612   3.425  0.5926  0.1202  0.6492
14691SOL    HW145514   1.140   3.647   3.343  1.0788 -0.4784  0.5945
14691SOL    HW245515   1.109   3.517   3.414 -1.4520  0.0187  0.4733
14692SOL     OW45516   0.902   0.673   1.877  0.0600 -0.3810  0.3286
14692SOL    HW145517   0.809   0.662   1.859 -0.3042  0.2153  1.6732
14692SOL    HW245518   0.942   0.688   1.791 -0.9898 -1.2077 -0.3188
14693SOL     OW45519   7.243   1.938   7.420  0.6096  0.0672  0.4110
14693SOL    HW145520   7.274   1.915   7.332  0.8235  0.8064  0.2869
14693SOL    HW245521   7.162   1.986   7.405  1.0450  0.8673  0.5695
14694SOL     OW45522   3.061   3.303  12.108 -0.1093 -0.3959  0.5360
14694SOL    HW145523   3.055   3.278  12.016 -0.1531  0.4467  0.2953
14694SOL    HW245524   3.089   3.224  12.153 -0.4696 -0.9179 -0.1484
14695SOL     OW45525   0.078   2.830   0.071 -0.1835 -0.2236 -0.4607
14695SOL    HW145526   0.019   2.812   0.145  0.1580  0.4185 -0.0269
14695SOL    HW245527   0.143   2.760   0.076  1.3043  1.1798  1.3983
14696SOL     OW45528   6.702   0.690   5.069 -0.3098 -0.1569 -0.7475
14696SOL    HW145529   6.637   0.670   5.002 -1.6098  1.4912 -0.0665
14696SOL    HW245530   6.662   0.761   5.121  1.3475 -0.2155  0.7183
14697SOL     OW45531   2.365   0.437   7.398  0.1555  0.1810 -0.0665
14697SOL    HW145532   2.319   0.419   7.316  0.2385  1.0233 -0.3030
14697SOL    HW245533   2.444   0.383   7.394  0.7583  1.1168 -1.0857
14698SOL     OW45534   2.054   7.364   5.377  0.0722 -0.2071 -0.4907
14698SOL    HW145535   2.092   7.374   5.289 -0.9293  0.9701 -0.8218
14698SOL    HW245536   1.960   7.358   5.361 -0.0096 -1.8964  0.3946
14699SOL     OW45537   4.654   7.106   8.116 -0.3625  0.1165 -0.0315
14699SOL    HW145538   4.662   7.198   8.141  0.3028  0.4501 -1.3817
14699SOL    HW245539   4.683   7.057   8.192 -0.2904  1.0367  0.5394
14700SOL     OW45540   6.218   3.861   5.280  0.1814  0.8862 -0.1566
14700SOL    HW145541   6.194   3.926   5.345 -1.9126  1.2682 -1.2059
14700SOL    HW245542   6.134   3.827   5.248  1.1370  0.0648 -1.9902
14701SOL     OW45543   4.500   1.145   3.274 -0.3741 -0.1648 -0.0044
14701SOL    HW145544   4.501   1.240   3.265 -0.1853 -0.3126 -1.9799
14701SOL    HW245545   4.447   1.114   3.200 -1.0492 -1.5740  1.0221
14702SOL     OW45546   2.124   3.358   8.667  0.6333 -0.0914  0.0725
14702SOL    HW145547   2.217   3.382   8.666  0.2247  1.6373 -0.7707
14702SOL    HW245548   2.095   3.372   8.577 -0.4915 -0.3956  0.3757
14703SOL     OW45549   0.684   0.659  12.250  0.0185 -0.2099  1.3376
14703SOL    HW145550   0.601   0.692  12.217  1.4369  0.6023 -1.7904
14703SOL    HW245551   0.748   0.725  12.225  2.2614 -2.8761 -0.6533
14704SOL     OW45552   2.574   3.977   3.943  0.0875  0.4745  0.4171
14704SOL    HW145553   2.640   4.046   3.934  0.9319 -0.4581 -1.0325
14704SOL    HW245554   2.615   3.911   3.997  0.2303  0.0502 -0.1945
14705SOL     OW45555   6.584   1.201  10.330  0.1129  0.5067  0.0604
14705SOL    HW145556   6.492   1.184  10.354  0.4442 -2.6016 -0.4918
14705SOL    HW245557   6.584   1.204  10.235  0.6057  0.4740  0.0572
14706SOL     OW45558   4.470   0.042  11.087  0.5526 -0.1806  0.0366
14706SOL    HW145559   4.558   0.051  11.052 -0.2445  2.7094 -1.5173
14706SOL    HW245560   4.480   0.056  11.181  1.6011  2.0111 -0.3387
14707SOL     OW45561   0.304   5.750   4.686 -0.0121 -0.1680  0.5775
14707SOL    HW145562   0.355   5.826   4.716 -0.3410 -0.1785  1.1814
14707SOL    HW245563   0.221   5.786   4.657 -0.7503 -0.4270  2.2629
14708SOL     OW45564   4.105   6.631  11.040 -1.0454 -0.0881  0.1907
14708SOL    HW145565   4.029   6.637  10.982 -0.6867 -1.0019 -0.3930
14708SOL    HW245566   4.174   6.680  10.995 -1.4634  1.3887  1.0729
14709SOL     OW45567   5.764   5.418   2.970 -0.0252  0.2764 -0.5067
14709SOL    HW145568   5.729   5.490   2.918 -0.0613 -0.0202 -0.8932
14709SOL    HW245569   5.756   5.340   2.914 -1.1471 -0.2612  0.3554
14710SOL     OW45570   2.800   2.513   6.411  0.4449  0.1768  0.5587
14710SOL    HW145571   2.884   2.469   6.424  0.3831  0.0241  0.4409
14710SOL    HW245572   2.812   2.563   6.330  0.2534 -0.2502  0.2655
14711SOL     OW45573   4.768   5.678   8.518 -0.4836  0.5326 -0.1224
14711SOL    HW145574   4.689   5.685   8.572  0.1602  0.7044  0.8148
14711SOL    HW245575   4.773   5.585   8.496 -0.8515  0.4881 -0.0355
14712SOL     OW45576   0.196   3.397   5.899  0.2677  0.4180  0.1776
14712SOL    HW145577   0.181   3.350   5.817  1.1848 -1.1740  0.8727
14712SOL    HW245578   0.291   3.391   5.912 -0.0038 -0.4803  1.9748
14713SOL     OW45579   2.781   6.699   1.513  0.3112 -0.2920  0.4027
14713SOL    HW145580   2.705   6.661   1.470  0.8387  0.4359 -1.2842
14713SOL    HW245581   2.747   6.736   1.594 -1.3912  1.0686 -0.8595
14714SOL     OW45582   7.519   5.005   1.988  0.3217 -0.1305 -0.0524
14714SOL    HW145583   7.453   4.969   2.048  2.0582 -1.5444  1.1253
14714SOL    HW245584   7.603   4.990   2.033  1.6474 -0.5044 -2.4798
14715SOL     OW45585   0.395   3.752   2.395 -0.2009 -0.5184  0.4127
14715SOL    HW145586   0.376   3.704   2.475  0.0967  0.1833  0.9092
14715SOL    HW245587   0.453   3.823   2.422 -0.6591  0.1430 -0.2997
14716SOL     OW45588   4.617   0.506  11.089  0.6463 -0.2002  0.3822
14716SOL    HW145589   4.613   0.546  11.176  1.7664  1.0508 -0.1052
14716SOL    HW245590   4.526   0.502  11.059  0.4268  1.2660  0.7872
14717SOL     OW45591   0.198   0.492   2.650 -0.2605  0.0242 -0.3067
14717SOL    HW145592   0.264   0.479   2.718 -0.6261  1.0975  0.2810
14717SOL    HW245593   0.216   0.425   2.585  1.7285  0.6119 -0.4103
14718SOL     OW45594   6.935   1.818   2.496 -0.2702 -0.1940 -0.1876
14718SOL    HW145595   6.840   1.819   2.506 -0.1010 -0.0300  1.6993
14718SOL    HW245596   6.969   1.853   2.578  1.5338 -3.5355  0.6940
14719SOL     OW45597   6.246   3.377   4.956 -0.0348  0.4838  0.6038
14719SOL    HW145598   6.223   3.303   5.013  2.5830 -2.1861 -1.5116
14719SOL    HW245599   6.167   3.394   4.905 -0.5272 -1.3523  0.6863
14720SOL     OW45600   7.091   3.842  11.240 -0.0825  0.2549 -0.3724
14720SOL    HW145601   7.056   3.802  11.320 -0.3122  1.7154  0.2918
14720SOL    HW245602   7.178   3.873  11.266  0.3226 -0.2723 -1.0413
14721SOL     OW45603   0.724   4.863   3.686 -0.0891 -0.2644 -0.0437
14721SOL    HW145604   0.700   4.770   3.678 -0.6265 -0.1534  0.2405
14721SOL    HW245605   0.642   4.910   3.676  0.1693  0.1799 -0.1000
14722SOL     OW45606   7.128   6.430   7.158  0.0015  0.0917 -0.2732
14722SOL    HW145607   7.034   6.436   7.174 -0.0447 -1.4324  0.1940
14722SOL    HW245608   7.143   6.338   7.136  1.4431  0.2192  0.0448
14723SOL     OW45609   6.650   4.147   6.467  0.1016 -0.4249 -0.3815
14723SOL    HW145610   6.738   4.116   6.490 -0.6433 -1.5056  1.2247
14723SOL    HW245611   6.592   4.100   6.527 -1.7758 -1.2065 -2.6470
14724SOL     OW45612   0.257   6.204   4.252 -0.0177  0.2195 -0.0593
14724SOL    HW145613   0.163   6.211   4.266 -0.1640 -0.1805 -0.7669
14724SOL    HW245614   0.284   6.133   4.311 -0.5894 -1.3124 -1.5446
14725SOL     OW45615   5.519   5.698   4.084  0.4802  0.0979 -0.2372
14725SOL    HW145616   5.443   5.755   4.100 -0.6931 -1.4740  0.1068
14725SOL    HW245617   5.564   5.738   4.010 -0.6011  1.1780 -0.3485
14726SOL     OW45618   0.537   6.810   2.399 -0.3383 -0.7442  0.0349
14726SOL    HW145619   0.484   6.766   2.466 -2.2261 -0.8365 -1.4189
14726SOL    HW245620   0.586   6.877   2.447 -1.5998 -0.8195  1.5132
14727SOL     OW45621   7.003   5.584   3.735 -0.3662 -0.2821 -0.0422
14727SOL    HW145622   6.935   5.604   3.800 -2.0109  2.5088 -2.3577
14727SOL    HW245623   7.078   5.637   3.763 -1.0045  0.7672 -0.2308
14728SOL     OW45624   1.436   5.986   9.716  0.0120 -0.1187  0.1292
14728SOL    HW145625   1.499   5.963   9.648 -1.1932 -1.2504 -0.6509
14728SOL    HW245626   1.397   6.068   9.686  0.4759  0.1297  0.1860
14729SOL     OW45627   7.271   1.327   2.517  0.5557  0.5395 -0.2328
14729SOL    HW145628   7.227   1.412   2.513 -0.3337  0.0905 -0.1884
14729SOL    HW245629   7.357   1.343   2.478 -0.2858  1.0327 -1.9977
14730SOL     OW45630   4.717   5.442   4.460  0.2842 -0.1296  0.0367
14730SOL    HW145631   4.698   5.353   4.490 -0.0911  0.5646  1.9941
14730SOL    HW245632   4.802   5.463   4.498  0.6121  0.1859 -0.8406
14731SOL     OW45633   3.309   3.908   2.669  0.3240 -0.3543 -0.2409
14731SOL    HW145634   3.286   3.832   2.724 -0.3025  0.4995  0.7153
14731SOL    HW245635   3.235   3.916   2.609  0.5338 -0.6727 -0.5484
14732SOL     OW45636   0.467   0.183   5.796  0.3439  0.1225 -0.1610
14732SOL    HW145637   0.454   0.272   5.763 -0.7711 -0.1604 -0.5237
14732SOL    HW245638   0.470   0.193   5.891 -0.4433  0.4835 -0.1670
14733SOL     OW45639   5.176   5.926   7.714  0.0650 -0.6099  0.1542
14733SOL    HW145640   5.143   5.953   7.628  0.4079  1.6145  0.6630
14733SOL    HW245641   5.167   5.830   7.714 -1.7318 -0.5106 -1.6045
14734SOL     OW45642   0.160   1.608   9.109  0.0542  0.3501  0.6007
14734SOL    HW145643   0.201   1.584   9.026  0.8040 -0.9811  1.3101
14734SOL    HW245644   0.234   1.616   9.170 -0.5487  0.3660  1.3460
14735SOL     OW45645   4.018   6.856   5.122 -0.0326  0.1854 -0.2250
14735SOL    HW145646   4.068   6.777   5.104  1.9203  1.1598  0.6426
14735SOL    HW245647   3.988   6.847   5.212 -0.1886  0.2522 -0.2686
14736SOL     OW45648   2.826   0.554   6.890  0.5386 -0.3003 -0.1524
14736SOL    HW145649   2.889   0.579   6.958 -0.4734  0.9364  0.3772
14736SOL    HW245650   2.879   0.535   6.813  1.5357  1.4530  0.0559
14737SOL     OW45651   1.889   4.545   7.504 -0.2115  0.1911 -0.0031
14737SOL    HW145652   1.826   4.591   7.560 -0.1918 -0.5544  0.6499
14737SOL    HW245653   1.967   4.535   7.559 -0.9210 -2.4778  0.6867
14738SOL     OW45654   2.680   2.959   7.308  0.3470  0.1278  0.2374
14738SOL    HW145655   2.771   2.931   7.298  0.0454 -0.3491 -1.7041
14738SOL    HW245656   2.669   2.973   7.402  1.9647 -1.3839  0.7078
14739SOL     OW45657   2.490   5.709   6.732  0.2446 -0.2096  0.1425
14739SOL    HW145658   2.549   5.667   6.669  1.7331  2.0922 -0.1118
14739SOL    HW245659   2.512   5.668   6.816 -0.3063 -1.8418 -0.4695
14740SOL     OW45660   1.794   7.367   9.393  0.5291  0.5131 -0.0673
14740SOL    HW145661   1.863   7.414   9.346  2.0820  0.5261  2.0727
14740SOL    HW245662   1.838   7.331   9.471 -2.1928  2.0995  2.4171
14741SOL     OW45663   7.971   0.030   9.851 -0.6883  0.0631  0.8330
14741SOL    HW145664   7.963  -0.049   9.905 -0.3582 -0.7517 -0.2574
14741SOL    HW245665   7.980   0.102   9.913 -1.8468 -0.6586  1.8648
14742SOL     OW45666   2.115   0.398   8.597  0.4126  0.5244 -0.1123
14742SOL    HW145667   2.060   0.455   8.544 -0.3790  0.6659  0.8298
14742SOL    HW245668   2.059   0.324   8.619  0.5533  0.6995  0.9093
14743SOL     OW45669   3.461   1.011   0.575 -0.6047 -0.1652 -0.4090
14743SOL    HW145670   3.497   1.053   0.653  0.3168 -0.2522 -0.7688
14743SOL    HW245671   3.528   1.025   0.508 -1.9527  1.0368 -1.5464
14744SOL     OW45672   2.497   5.044   5.934  0.3188 -0.9188  0.0962
14744SOL    HW145673   2.489   5.100   5.857 -0.0848 -0.4953  0.4315
14744SOL    HW245674   2.588   5.016   5.935  0.9316  0.9060  0.6965
14745SOL     OW45675   1.452   5.784   5.898 -0.6355  0.3875 -0.3446
14745SOL    HW145676   1.465   5.689   5.896  0.5526  0.4681  1.3052
14745SOL    HW245677   1.496   5.816   5.819  1.0757 -0.2633  0.2990
14746SOL     OW45678   7.586   3.554  12.224  0.2048 -0.1619  0.1881
14746SOL    HW145679   7.604   3.629  12.280  1.3990  0.0214 -0.4155
14746SOL    HW245680   7.637   3.483  12.261 -0.3031 -0.4725  0.2946
14747SOL     OW45681   3.148   2.807  11.268 -0.2652  1.1559  0.7092
14747SOL    HW145682   3.085   2.803  11.196 -2.9360  1.4874  2.8918
14747SOL    HW245683   3.173   2.716  11.283  0.0746  1.0519 -0.3816
14748SOL     OW45684   6.247   7.159   2.082 -0.6010 -0.2727 -0.3668
14748SOL    HW145685   6.173   7.217   2.063  0.4780  1.4948  0.6287
14748SOL    HW245686   6.314   7.216   2.118  0.7661 -2.0602  0.0548
14749SOL     OW45687   1.065   0.540   1.279  0.1074  0.0835  0.1921
14749SOL    HW145688   1.128   0.611   1.292  1.7620 -1.4373  0.8844
14749SOL    HW245689   1.056   0.532   1.184  1.4668 -0.0566  0.0539
14750SOL     OW45690   0.730   0.523   9.904 -0.0584  0.1707 -0.6722
14750SOL    HW145691   0.788   0.465   9.855 -2.1952 -1.1037 -1.8776
14750SOL    HW245692   0.686   0.575   9.837 -1.6216 -0.2025  0.0154
14751SOL     OW45693   7.630   5.986  10.935  0.0758  0.0854 -0.0106
14751SOL    HW145694   7.720   5.952  10.940 -0.3749 -1.1642  0.0981
14751SOL    HW245695   7.598   5.958  10.849 -1.0401 -1.7589  0.9396
14752SOL     OW45696   0.860   5.352   2.159  0.3200  0.4822  0.4221
14752SOL    HW145697   0.835   5.262   2.178  1.6206  0.3790  1.7841
14752SOL    HW245698   0.916   5.378   2.232  2.4332  1.4082 -1.4173
14753SOL     OW45699   5.541   0.366   4.016 -0.0267  0.0828 -0.2269
14753SOL    HW145700   5.541   0.275   3.985  0.3473  0.1815 -0.5292
14753SOL    HW245701   5.633   0.385   4.032  0.0217  0.7584 -1.2182
14754SOL     OW45702   5.165   2.547  10.786  0.3374 -0.4269  0.3368
14754SOL    HW145703   5.217   2.627  10.802 -2.7920  2.1723 -1.2848
14754SOL    HW245704   5.191   2.519  10.699  0.1637 -0.0896  0.1742
14755SOL     OW45705   6.311   5.397   0.316  0.2709  0.3714 -0.0104
14755SOL    HW145706   6.310   5.440   0.230 -0.2776 -1.9884 -1.2652
14755SOL    HW245707   6.395   5.352   0.320  0.1604  0.2041  0.5482
14756SOL     OW45708   7.386   7.512  10.050 -0.2823 -0.6533  0.1260
14756SOL    HW145709   7.313   7.474  10.100  1.1002 -0.0826  2.7274
14756SOL    HW245710   7.464   7.471  10.086  0.9379  1.3205 -0.1253
14757SOL     OW45711   2.968   0.463  11.651  0.3899 -0.3654 -0.5484
14757SOL    HW145712   2.966   0.453  11.556  1.6967 -0.5346 -0.5709
14757SOL    HW245713   3.061   0.464  11.674  0.0899 -1.1387  0.8187
14758SOL     OW45714   4.867   1.520   7.035 -0.0660 -0.0662  0.1100
14758SOL    HW145715   4.915   1.536   6.954  1.5782 -1.0659  0.8103
14758SOL    HW245716   4.868   1.424   7.045  1.0007  0.0742  1.9557
14759SOL     OW45717   3.138   4.851  11.302  0.2834 -0.1526  0.2573
14759SOL    HW145718   3.121   4.937  11.263 -0.0542 -0.5929 -0.5827
14759SOL    HW245719   3.201   4.869  11.371  1.8170  0.4888 -1.2494
14760SOL     OW45720   0.937   2.102   2.566  0.0024  0.4669  0.8071
14760SOL    HW145721   1.002   2.035   2.542 -1.2458 -0.5866  0.2409
14760SOL    HW245722   0.930   2.096   2.661  0.4779  0.3578  0.8397
14761SOL     OW45723   6.118   6.547   2.625 -0.1745 -0.1315 -0.0243
14761SOL    HW145724   6.205   6.557   2.662 -1.0636  1.2866  1.8666
14761SOL    HW245725   6.133   6.526   2.533  2.1435 -1.0504  0.4925
14762SOL     OW45726   4.188   7.105   5.664 -0.3329 -0.2720  1.1157
14762SOL    HW145727   4.242   7.029   5.688  0.3231 -0.7801 -1.6836
14762SOL    HW245728   4.128   7.072   5.598 -0.1244  1.6095 -0.0758
14763SOL     OW45729   4.200   0.799   5.657  0.0859 -0.4561  0.1081
14763SOL    HW145730   4.156   0.801   5.573 -0.1029  1.4072  0.2074
14763SOL    HW245731   4.256   0.877   5.657  0.4381 -0.6732  1.5051
14764SOL     OW45732   2.327   3.391   0.773 -0.1281  0.2541 -0.9577
14764SOL    HW145733   2.346   3.307   0.815 -2.0386  0.1249 -0.2375
14764SOL    HW245734   2.323   3.370   0.679  0.3651 -0.2493 -0.8731
14765SOL     OW45735   7.608   1.068  12.104 -0.0561  0.7254  0.4567
14765SOL    HW145736   7.684   1.125  12.108  0.9489 -0.3793 -1.5505
14765SOL    HW245737   7.563   1.093  12.023 -2.4808  2.0316  2.0654
14766SOL     OW45738   7.813   6.452   0.314  0.2312 -0.9343  0.4794
14766SOL    HW145739   7.879   6.422   0.251  0.2680 -0.0314  0.0702
14766SOL    HW245740   7.758   6.512   0.264  0.4994  0.1127  1.3889
14767SOL     OW45741   5.395   1.498   4.151 -0.1337 -0.2808 -0.2614
14767SOL    HW145742   5.313   1.515   4.106 -0.3102 -0.0285  0.1562
14767SOL    HW245743   5.433   1.423   4.104  0.2481  0.6901 -1.5633
14768SOL     OW45744   0.668   3.204   0.654  0.4061 -0.1661 -0.4624
14768SOL    HW145745   0.629   3.124   0.617 -0.2372 -0.3987  0.6831
14768SOL    HW245746   0.680   3.184   0.747  0.1358  1.1033 -0.1386
14769SOL     OW45747   1.797   3.162   3.946 -0.4382  0.4191  0.0744
14769SOL    HW145748   1.891   3.149   3.957 -0.4606  0.8585  0.8147
14769SOL    HW245749   1.757   3.095   4.001 -0.5782 -0.2403 -0.7940
14770SOL     OW45750   5.915   0.313   5.279 -0.2269 -0.1231  0.5818
14770SOL    HW145751   5.862   0.266   5.214 -0.0721  1.6999 -0.9465
14770SOL    HW245752   5.942   0.393   5.235  1.6577  0.2311  2.2119
14771SOL     OW45753   4.232   5.445   1.539  0.2775 -0.3022 -0.3204
14771SOL    HW145754   4.281   5.523   1.516  1.2222 -0.8937 -0.3730
14771SOL    HW245755   4.158   5.477   1.590  1.3275  0.5211  0.7294
14772SOL     OW45756   0.801   3.254   4.535  0.7189  0.5042  0.8331
14772SOL    HW145757   0.747   3.262   4.456  0.2862  1.8276  1.2232
14772SOL    HW245758   0.885   3.293   4.510  1.3598 -1.1081  0.3741
14773SOL     OW45759   1.265   7.248   0.472 -0.0700 -0.2468  0.1263
14773SOL    HW145760   1.236   7.162   0.501  1.2088 -1.1582 -1.1688
14773SOL    HW245761   1.305   7.288   0.549  0.9437 -1.5596  0.3118
14774SOL     OW45762   3.005   6.653   3.285  0.1308 -0.0659  0.0349
14774SOL    HW145763   3.056   6.580   3.252 -0.1525  0.7318 -2.3031
14774SOL    HW245764   3.050   6.731   3.253 -0.7164  0.7352  0.7412
14775SOL     OW45765   0.793   0.992   2.025  0.5736  0.1908 -0.4657
14775SOL    HW145766   0.861   0.957   2.083  2.3911  1.5071 -1.7228
14775SOL    HW245767   0.753   1.064   2.075  2.3351  1.5184 -0.9026
14776SOL     OW45768   6.486   7.273   0.456  0.6654 -0.6509  0.1375
14776SOL    HW145769   6.572   7.301   0.487 -0.7818  1.7374  2.3090
14776SOL    HW245770   6.448   7.224   0.529 -0.9298  0.8835  0.4064
14777SOL     OW45771   2.454   2.618   3.105 -0.4826 -0.6707 -0.0254
14777SOL    HW145772   2.468   2.557   3.178  2.0056 -0.7024 -0.4554
14777SOL    HW245773   2.359   2.623   3.097 -0.8232 -3.5746  0.8114
14778SOL     OW45774   2.994   4.382  12.252  0.2056 -0.1492 -0.1716
14778SOL    HW145775   3.034   4.398  12.167  0.8885 -0.3866  0.0962
14778SOL    HW245776   2.913   4.433  12.251  2.5862  4.1734  0.9075
14779SOL     OW45777   4.799   6.439   8.353  0.4339 -0.9335  0.0417
14779SOL    HW145778   4.852   6.438   8.273 -1.6445  0.3767 -1.4541
14779SOL    HW245779   4.766   6.529   8.359 -2.8449 -1.9845 -0.0409
14780SOL     OW45780   2.733   6.326   9.264  0.7794 -0.3120 -0.8093
14780SOL    HW145781   2.679   6.266   9.213 -1.1595  1.1664 -0.6312
14780SOL    HW245782   2.807   6.347   9.208  0.9255 -2.0010 -1.2834
14781SOL     OW45783   3.590   2.471   7.361  0.4078 -0.1428  0.5170
14781SOL    HW145784   3.595   2.401   7.426  0.8576  0.3601  1.0313
14781SOL    HW245785   3.556   2.546   7.410  0.0705  0.0473  0.0023
14782SOL     OW45786   7.934   6.059  10.197 -0.6943  0.3994  0.0657
14782SOL    HW145787   7.914   5.972  10.163 -0.0519  0.3094 -0.0892
14782SOL    HW245788   7.941   6.114  10.119 -0.8865  0.5429  0.1506
14783SOL     OW45789   1.032   4.632  11.555 -0.0044  0.0552 -0.3580
14783SOL    HW145790   1.114   4.680  11.567 -1.9467  3.1041  2.2884
14783SOL    HW245791   0.981   4.686  11.494 -0.6173 -1.1070 -0.9153
14784SOL     OW45792   3.882   1.453   9.924  0.1142  0.7619 -0.0598
14784SOL    HW145793   3.832   1.521   9.970 -1.1169  0.0847 -0.3515
14784SOL    HW245794   3.820   1.380   9.915  1.5493 -0.6054  0.7085
14785SOL     OW45795   6.460   1.201  12.158  0.0776 -0.0678  0.1132
14785SOL    HW145796   6.472   1.255  12.080  0.2417 -0.7624 -0.3545
14785SOL    HW245797   6.366   1.200  12.173 -0.1586 -1.5355 -1.2612
14786SOL     OW45798   1.325   3.894   8.473  0.4776 -0.0558  0.8514
14786SOL    HW145799   1.369   3.948   8.407  1.0879 -0.5383  0.8592
14786SOL    HW245800   1.338   3.940   8.555  2.7306 -1.1856  1.1867
14787SOL     OW45801   6.994   2.756   5.154 -0.4846 -0.0122  0.0364
14787SOL    HW145802   6.999   2.702   5.075 -0.7036  1.2659 -0.8747
14787SOL    HW245803   6.926   2.715   5.207 -2.2446  0.6099 -1.6403
14788SOL     OW45804   0.925   4.690   9.321 -0.2018  0.0448  0.0422
14788SOL    HW145805   0.831   4.693   9.341 -0.0546 -0.3980  0.8273
14788SOL    HW245806   0.960   4.623   9.380  0.7543  0.8096  0.3719
14789SOL     OW45807   4.417   3.733  12.383  0.5562 -0.3678  0.5336
14789SOL    HW145808   4.420   3.736  12.479 -0.0904 -0.5631  0.5674
14789SOL    HW245809   4.436   3.642  12.361  0.4899 -0.3726  0.4935
14790SOL     OW45810   3.841   3.787  10.484 -0.0985 -0.0880  0.5278
14790SOL    HW145811   3.772   3.854  10.486 -0.2551 -0.2322  0.1084
14790SOL    HW245812   3.860   3.769  10.576 -0.4511  0.1278  0.6455
14791SOL     OW45813   5.839   1.453   1.953  0.1326 -0.5392 -0.4030
14791SOL    HW145814   5.932   1.472   1.944 -0.1044  0.7216 -0.4117
14791SOL    HW245815   5.796   1.515   1.893 -0.8532  0.8122  1.5929
14792SOL     OW45816   7.195   6.004   7.326  0.0811 -0.3073 -0.2667
14792SOL    HW145817   7.204   6.098   7.344 -1.0394 -0.3836  0.8522
14792SOL    HW245818   7.161   6.000   7.237  0.0425  0.3522 -0.2925
14793SOL     OW45819   6.586   6.371   7.955 -0.2365 -0.2991 -0.2433
14793SOL    HW145820   6.500   6.340   7.983  0.3897 -1.8947  0.0428
14793SOL    HW245821   6.609   6.315   7.881 -0.2967  1.4814 -1.6784
14794SOL     OW45822   3.325   2.536   8.755  0.0469 -0.3421  0.3452
14794SOL    HW145823   3.272   2.608   8.788 -0.3332 -1.6551  2.8364
14794SOL    HW245824   3.415   2.562   8.771 -0.0150  0.1215 -0.0292
14795SOL     OW45825   7.343   3.054   6.273  0.1287  0.0492 -0.2820
14795SOL    HW145826   7.342   2.958   6.269  0.6649  0.0207  0.1789
14795SOL    HW245827   7.272   3.076   6.333  0.2600 -0.0756 -0.0815
14796SOL     OW45828   0.240   2.516   1.671  0.4915  0.1077  0.4917
14796SOL    HW145829   0.235   2.597   1.620 -2.6241  0.8745  1.7914
14796SOL    HW245830   0.211   2.448   1.611 -0.4783  0.5702  0.4216
14797SOL     OW45831   4.933   6.762   7.888 -0.0208 -0.1520 -0.0643
14797SOL    HW145832   4.927   6.803   7.802 -1.3855  0.3576  0.2473
14797SOL    HW245833   4.946   6.836   7.948 -1.4817 -0.2341  0.3954
14798SOL     OW45834   2.495   0.847   3.718 -0.1426  0.5378 -0.1882
14798SOL    HW145835   2.484   0.808   3.631 -0.3818 -0.6753  0.3694
14798SOL    HW245836   2.589   0.841   3.735 -0.3334 -1.0189  0.4299
14799SOL     OW45837   0.721   7.673   8.875 -0.1867  0.5491  0.3614
14799SOL    HW145838   0.787   7.726   8.830 -0.7767  1.1950  0.2362
14799SOL    HW245839   0.713   7.712   8.961 -1.4151  1.3665 -0.1043
14800SOL     OW45840   4.586   5.685   3.807  0.0193  0.1083 -0.5255
14800SOL    HW145841   4.637   5.609   3.835 -0.3320  0.4659  1.1718
14800SOL    HW245842   4.645   5.759   3.819  0.2831  0.1737 -1.9643
14801SOL     OW45843   1.524   4.717   1.159  0.0614  0.1994  0.2480
14801SOL    HW145844   1.489   4.630   1.145  1.7954 -0.1394 -2.6889
14801SOL    HW245845   1.599   4.704   1.217 -0.0694 -0.1200  0.3457
14802SOL     OW45846   4.561   6.362   0.957 -0.3264 -0.6991 -0.7386
14802SOL    HW145847   4.467   6.366   0.973 -0.2242 -0.7190 -0.0961
14802SOL    HW245848   4.574   6.410   0.876 -0.6749  0.8780  0.1107
14803SOL     OW45849   5.419   3.802   7.431  0.3917 -0.7224 -0.6926
14803SOL    HW145850   5.386   3.827   7.344  1.2182 -0.7670 -1.0258
14803SOL    HW245851   5.398   3.709   7.438 -1.5349 -0.2744  0.0226
14804SOL     OW45852   2.558   4.129   4.982 -0.2267  0.1694 -0.7183
14804SOL    HW145853   2.537   4.049   4.933  0.7418  0.1459 -1.1109
14804SOL    HW245854   2.605   4.184   4.919 -0.5076  0.8734 -0.3212
14805SOL     OW45855   7.512   5.374   9.443  1.0463  0.5251  1.0945
14805SOL    HW145856   7.476   5.442   9.386  1.7039 -0.9617 -1.2171
14805SOL    HW245857   7.440   5.313   9.455  1.3621  0.0280  0.5075
14806SOL     OW45858   0.375   4.959   7.470  0.2511 -0.4705  0.0555
14806SOL    HW145859   0.305   4.897   7.449 -2.5796  1.0488  3.8860
14806SOL    HW245860   0.395   4.943   7.562  2.5813  1.4350 -0.0304
14807SOL     OW45861   0.171   7.478   6.884  0.1177  0.1031 -0.0715
14807SOL    HW145862   0.262   7.506   6.875  0.0056  0.7201  0.5954
14807SOL    HW245863   0.122   7.560   6.893 -0.6129 -0.1752 -1.2566
14808SOL     OW45864   7.557   3.188  12.156 -0.1950  0.3027 -0.0829
14808SOL    HW145865   7.628   3.232  12.204 -0.0486 -0.5156  0.4774
14808SOL    HW245866   7.544   3.106  12.203 -1.2416  0.2550 -0.4356
14809SOL     OW45867   0.383   2.950  12.037  0.1036 -0.2958 -0.6187
14809SOL    HW145868   0.433   2.876  12.071  0.3204  0.0755 -0.1141
14809SOL    HW245869   0.355   2.998  12.115  0.3375  0.3979 -0.9522
14810SOL     OW45870   6.071   5.271  10.651 -0.1289 -0.4619  0.7370
14810SOL    HW145871   5.986   5.272  10.607 -0.2229  0.1462  0.9145
14810SOL    HW245872   6.126   5.213  10.599 -1.2317 -2.4783  1.7308
14811SOL     OW45873   7.924   7.023   9.306  0.1253 -0.0854 -0.2348
14811SOL    HW145874   7.979   6.947   9.285 -0.8771 -1.0274  0.4466
14811SOL    HW245875   7.981   7.081   9.357  0.3953 -1.2249  0.8003
14812SOL     OW45876   4.082   7.955   7.353  0.1794  0.1176 -0.2846
14812SOL    HW145877   4.144   7.892   7.389 -1.0945 -1.1254 -0.1856
14812SOL    HW245878   3.996   7.914   7.365 -0.5244  0.9151 -2.1549
14813SOL     OW45879   0.653   1.341   2.815 -0.0531 -0.0716 -0.0073
14813SOL    HW145880   0.669   1.272   2.751  0.3210  0.8548 -0.9361
14813SOL    HW245881   0.572   1.315   2.859  0.0684 -1.0738 -0.3566
14814SOL     OW45882   7.729   5.250   5.881 -0.2391  0.4776 -0.0387
14814SOL    HW145883   7.638   5.239   5.908 -0.2691 -1.5660 -0.8077
14814SOL    HW245884   7.737   5.343   5.860 -2.0789  0.7357  0.2678
14815SOL     OW45885   0.933   7.972   6.838 -0.0736 -0.5519  0.2795
14815SOL    HW145886   1.013   8.023   6.847 -0.4665  0.1524 -0.1512
14815SOL    HW245887   0.961   7.881   6.848  0.8184 -0.3302 -0.1430
14816SOL     OW45888   4.637   4.861   5.748 -0.2387  0.0791 -0.5354
14816SOL    HW145889   4.617   4.871   5.654  0.3021  0.7212 -0.5864
14816SOL    HW245890   4.627   4.767   5.764  1.5832 -0.3742 -1.7035
14817SOL     OW45891   1.694   2.479   2.460 -0.2391  0.4501 -0.4374
14817SOL    HW145892   1.711   2.422   2.536 -0.5183  0.4860 -0.3454
14817SOL    HW245893   1.653   2.557   2.498 -2.7949 -0.5877 -0.8508
14818SOL     OW45894   3.914   0.667   6.632 -0.0421 -0.0626 -0.4308
14818SOL    HW145895   3.889   0.645   6.542  0.3584 -1.8790 -0.1286
14818SOL    HW245896   3.853   0.736   6.657  1.6322  2.6178 -3.0411
14819SOL     OW45897   2.848   6.914   2.524  0.4170  0.7591  0.3802
14819SOL    HW145898   2.936   6.884   2.500  0.4368  0.1568  1.1816
14819SOL    HW245899   2.826   6.865   2.603 -1.7923 -1.2081 -1.3257
14820SOL     OW45900   1.740   1.245   8.861 -0.5301  0.1684 -0.6483
14820SOL    HW145901   1.818   1.301   8.858 -1.4268  1.4618 -0.8036
14820SOL    HW245902   1.715   1.235   8.769  1.1841 -2.8519 -0.9014
14821SOL     OW45903   4.890   3.078  11.737 -0.4072 -0.1464 -0.0094
14821SOL    HW145904   4.881   3.019  11.662 -0.5280  0.0271 -0.1323
14821SOL    HW245905   4.939   3.027  11.802  1.3603  0.3458 -0.9076
14822SOL     OW45906   1.702   1.125   7.649 -0.3369  0.1149 -0.1556
14822SOL    HW145907   1.712   1.195   7.713 -0.5474  0.4445 -0.4726
14822SOL    HW245908   1.662   1.169   7.573  0.1562 -0.2138 -0.6071
14823SOL     OW45909   0.402   5.594   8.775 -0.0110  0.6466  0.6706
14823SOL    HW145910   0.432   5.537   8.846  2.6128  0.6568 -0.3404
14823SOL    HW245911   0.331   5.545   8.733  1.8011 -1.7134  0.1651
14824SOL     OW45912   6.943   0.107   6.788 -0.6699  0.7187  0.0931
14824SOL    HW145913   6.864   0.102   6.735 -0.0815 -0.4722 -0.7267
14824SOL    HW245914   6.934   0.035   6.851 -0.2515  0.5754 -0.0036
14825SOL     OW45915   2.236   1.250   9.351 -1.0195  0.0532  0.3076
14825SOL    HW145916   2.200   1.207   9.273 -0.5781  1.3247 -0.6356
14825SOL    HW245917   2.190   1.334   9.355  0.8106  1.1414 -0.1528
14826SOL     OW45918   2.128   7.568   3.771  0.0126  0.1924 -0.5113
14826SOL    HW145919   2.113   7.515   3.692  0.4604  0.4375 -0.7638
14826SOL    HW245920   2.193   7.519   3.821 -0.4187 -0.0637 -0.1914
14827SOL     OW45921   5.601   2.220   9.683 -0.2133 -0.1544 -0.4273
14827SOL    HW145922   5.682   2.246   9.727  0.0356  0.5838 -1.3023
14827SOL    HW245923   5.617   2.238   9.591 -1.5780  0.5321 -0.5551
14828SOL     OW45924   0.522   1.583   9.063  0.4882  0.4855 -0.6806
14828SOL    HW145925   0.492   1.610   9.150  1.3069 -1.4686  0.2823
14828SOL    HW245926   0.442   1.569   9.013  0.0171  2.3264 -0.5127
14829SOL     OW45927   0.344   7.900   1.391 -0.2336 -0.4032 -0.1871
14829SOL    HW145928   0.416   7.962   1.405  0.1147 -0.9181  0.3163
14829SOL    HW245929   0.266   7.947   1.420  0.1350 -0.4919  0.9657
14830SOL     OW45930   2.595   4.850   1.376  0.3907  0.2480  0.3547
14830SOL    HW145931   2.667   4.788   1.378  0.7755  0.5232 -2.1538
14830SOL    HW245932   2.635   4.935   1.395  0.4917  0.2213  0.2595
14831SOL     OW45933   3.733   0.587   4.516  0.4089 -0.1595  0.1510
14831SOL    HW145934   3.705   0.670   4.554  0.4290  1.4943 -3.1209
14831SOL    HW245935   3.652   0.544   4.490  0.4477  0.9907 -2.1542
14832SOL     OW45936   6.679   4.826   4.727 -0.4925  0.4162 -0.4934
14832SOL    HW145937   6.706   4.734   4.727 -2.7915 -0.3162 -0.7421
14832SOL    HW245938   6.631   4.837   4.646 -2.7217  1.0129  0.8163
14833SOL     OW45939   1.591   0.450   8.158 -0.1171  0.2402 -0.4856
14833SOL    HW145940   1.663   0.500   8.196  0.3409 -0.3963 -0.5041
14833SOL    HW245941   1.583   0.484   8.069 -1.0973  1.6333  0.1044
14834SOL     OW45942   2.176   0.442  12.390 -0.2196 -0.0500 -0.1878
14834SOL    HW145943   2.198   0.377  12.323 -0.0840  1.5521 -1.7637
14834SOL    HW245944   2.259   0.487  12.408 -0.7604  1.3122 -0.9568
14835SOL     OW45945   4.191   0.363  11.558 -0.9075 -0.4665 -0.1363
14835SOL    HW145946   4.259   0.346  11.492 -0.1091 -0.7273  0.7347
14835SOL    HW245947   4.169   0.277  11.593  0.1778 -0.1739  1.3804
14836SOL     OW45948   2.495   3.328   4.408  0.4443 -0.2643 -0.2890
14836SOL    HW145949   2.571   3.273   4.430 -0.3437 -0.3869  2.5845
14836SOL    HW245950   2.523   3.417   4.431  0.0794 -0.1661 -0.2243
14837SOL     OW45951   7.327   3.849   3.906 -0.3580 -0.0402  0.0797
14837SOL    HW145952   7.300   3.761   3.883 -1.8483  0.5024 -0.3486
14837SOL    HW245953   7.421   3.851   3.886 -0.2532 -1.5726  0.2987
14838SOL     OW45954   2.825   5.418   3.530  0.5048 -0.8969  0.2788
14838SOL    HW145955   2.757   5.392   3.467 -0.8783  0.6848  1.0267
14838SOL    HW245956   2.907   5.392   3.488 -0.5470 -3.5925 -0.3133
14839SOL     OW45957   5.587   6.957  12.016  0.0403  0.0072  0.1626
14839SOL    HW145958   5.638   6.889  11.973 -0.1797 -0.1295  0.1190
14839SOL    HW245959   5.651   7.024  12.039  0.3556 -0.4848  0.7384
14840SOL     OW45960   7.825   5.682   3.624 -0.7181 -0.1707  0.3117
14840SOL    HW145961   7.770   5.750   3.663  1.3715  1.6964  0.2236
14840SOL    HW245962   7.784   5.600   3.649 -2.5625  1.0923  1.6583
14841SOL     OW45963   0.007   0.377   2.128 -0.0678 -0.1135 -0.3229
14841SOL    HW145964  -0.022   0.468   2.124 -0.7340 -0.3328 -0.5803
14841SOL    HW245965   0.056   0.371   2.210 -0.6879  0.2934  0.0888
14842SOL     OW45966   3.797   6.079  11.000 -0.2535 -0.5163  0.1924
14842SOL    HW145967   3.718   6.064  11.051 -0.5908  1.6684  0.3878
14842SOL    HW245968   3.766   6.103  10.912  0.2421 -0.9464 -0.1122
14843SOL     OW45969   2.697   5.459   9.999  0.0212  0.3646  0.3166
14843SOL    HW145970   2.654   5.510   9.931  0.6506 -0.0416 -0.3955
14843SOL    HW245971   2.646   5.478  10.079  0.6446  2.6353  0.2363
14844SOL     OW45972   1.595   5.131   1.910 -0.5386 -0.7378  0.1953
14844SOL    HW145973   1.606   5.040   1.881 -0.0516 -1.2248  1.8272
14844SOL    HW245974   1.511   5.158   1.872 -0.5597 -1.7717 -0.5314
14845SOL     OW45975   2.456   0.668   1.761 -0.1935 -0.5360  0.0199
14845SOL    HW145976   2.531   0.644   1.816 -0.6432 -2.3753 -0.1001
14845SOL    HW245977   2.452   0.598   1.695 -1.0361  0.4129 -0.9638
14846SOL     OW45978   2.986   5.190   8.021  0.0101 -0.6980 -0.0037
14846SOL    HW145979   3.066   5.162   8.065 -0.2867  1.6844  2.3375
14846SOL    HW245980   2.999   5.283   8.004 -1.2458 -0.8278 -2.0876
14847SOL     OW45981   1.403   7.212   4.978 -0.1907 -0.2049  0.6660
14847SOL    HW145982   1.339   7.163   4.926  1.1700 -2.5157  0.9880
14847SOL    HW245983   1.359   7.293   5.001 -3.5067 -2.1767  1.9766
14848SOL     OW45984   6.175   7.580   5.002 -0.0427  0.5221 -0.7359
14848SOL    HW145985   6.227   7.648   5.045  1.1227 -1.1502  0.6113
14848SOL    HW245986   6.098   7.570   5.058 -0.3867  0.9408 -1.1229
14849SOL     OW45987   1.280   1.481   1.906  0.1826  0.2565  0.3468
14849SOL    HW145988   1.314   1.395   1.933  1.3184  0.3690 -0.6439
14849SOL    HW245989   1.196   1.461   1.866  1.2928 -0.7103 -1.6921
14850SOL     OW45990   2.148   1.224  12.059  0.1012  0.6976  0.3097
14850SOL    HW145991   2.107   1.257  11.979 -1.5806  1.5341  1.4742
14850SOL    HW245992   2.219   1.286  12.077  0.2617  0.7031 -0.3238
14851SOL     OW45993   3.417   5.785   3.241  0.5077 -0.1366  0.2818
14851SOL    HW145994   3.495   5.752   3.286 -0.3490 -1.0055  1.1927
14851SOL    HW245995   3.420   5.743   3.155  0.6173 -0.8507  0.6220
14852SOL     OW45996   6.627   6.750  10.268 -0.4904 -0.0476  0.7773
14852SOL    HW145997   6.618   6.810  10.342  0.6420  0.9423  0.1423
14852SOL    HW245998   6.574   6.789  10.199  0.3470  0.2974  0.3236
14853SOL     OW45999   7.422   5.431   2.827  0.5585  0.3225  0.2167
14853SOL    HW146000   7.516   5.430   2.847  0.5163 -1.2713  0.4933
14853SOL    HW246001   7.419   5.419   2.732  0.6498 -1.4964  0.4023
14854SOL     OW46002   4.254   5.601  10.879  0.0261 -0.2970  0.1540
14854SOL    HW146003   4.335   5.586  10.829 -0.3790  0.0907 -0.6386
14854SOL    HW246004   4.214   5.677  10.837 -0.9402 -0.7112  0.3075
14855SOL     OW46005   5.082   5.031   2.610 -0.1066  0.3048  0.6091
14855SOL    HW146006   5.097   4.938   2.592 -1.1815  0.3848 -0.9063
14855SOL    HW246007   5.170   5.069   2.616  0.3403 -0.7336  0.9081
14856SOL     OW46008   6.390   2.610   1.632 -0.5985  1.1121  0.4272
14856SOL    HW146009   6.429   2.627   1.546 -1.4282  1.9643  0.1957
14856SOL    HW246010   6.456   2.560   1.679  1.2345  3.4002  0.4485
14857SOL     OW46011   3.409   2.327   4.704 -0.0042  0.3764 -0.0235
14857SOL    HW146012   3.330   2.348   4.754 -0.2629  1.3041 -0.7877
14857SOL    HW246013   3.457   2.410   4.701  0.6728 -0.0140 -0.1531
14858SOL     OW46014   4.329   2.263  12.262  0.4483 -0.0992  0.3487
14858SOL    HW146015   4.329   2.348  12.219 -0.0474 -1.1778 -1.9599
14858SOL    HW246016   4.241   2.254  12.299  0.0075 -0.1684 -0.6805
14859SOL     OW46017   1.095   1.713   5.006 -0.0628  0.0002  0.0169
14859SOL    HW146018   1.077   1.807   5.003  1.8927  0.3890 -0.4330
14859SOL    HW246019   1.185   1.706   5.038  1.1005 -1.5431 -3.1982
14860SOL     OW46020   6.127   7.845   2.857 -0.4717 -0.0360 -0.3383
14860SOL    HW146021   6.063   7.902   2.898 -0.8804  0.1215 -1.1727
14860SOL    HW246022   6.136   7.879   2.768 -0.7187 -1.2436 -0.8485
14861SOL     OW46023   6.692   6.790   2.053  0.5931 -0.0328  0.0467
14861SOL    HW146024   6.603   6.756   2.036  1.2933 -1.5526 -0.8336
14861SOL    HW246025   6.748   6.712   2.048  1.8302  0.6678  2.0427
14862SOL     OW46026   3.300   3.772   0.188  0.6601  0.0229 -0.1900
14862SOL    HW146027   3.225   3.736   0.141 -0.5132  2.6671 -0.4779
14862SOL    HW246028   3.329   3.699   0.243 -3.2535 -0.7015  1.3167
14863SOL     OW46029   5.153   1.895   6.973 -0.3474 -0.2569 -0.0848
14863SOL    HW146030   5.225   1.912   6.912  1.5558 -0.5717  1.9537
14863SOL    HW246031   5.111   1.981   6.985  0.7676  0.3036 -0.0508
14864SOL     OW46032   2.276   6.458   1.599 -0.7771 -0.1630  0.2982
14864SOL    HW146033   2.291   6.389   1.663 -0.5548  1.0951  1.6496
14864SOL    HW246034   2.216   6.519   1.642  0.4004  1.4047 -0.1485
14865SOL     OW46035   2.889   7.853   9.404  0.0192 -0.2540  0.0569
14865SOL    HW146036   2.897   7.764   9.370  1.2996  0.5166 -1.8499
14865SOL    HW246037   2.819   7.892   9.352 -0.2425 -0.0005  0.5921
14866SOL     OW46038   2.591   5.696   9.158 -0.2578 -0.0930 -0.2347
14866SOL    HW146039   2.642   5.699   9.239  0.6824 -1.5622 -0.7222
14866SOL    HW246040   2.637   5.755   9.099  1.1944 -1.6988 -0.7970
14867SOL     OW46041   0.097   3.832   2.035 -0.1789  0.1650 -0.1790
14867SOL    HW146042   0.122   3.845   2.127 -1.3741  0.8324  0.0763
14867SOL    HW246043   0.001   3.841   2.035 -0.0361  2.7510 -1.8822
14868SOL     OW46044   1.524   1.617   0.570  0.2412 -0.0249  0.1390
14868SOL    HW146045   1.449   1.667   0.538  0.9535  0.5612 -0.6514
14868SOL    HW246046   1.592   1.682   0.587  1.5368 -0.7515 -1.8782
14869SOL     OW46047   6.439   2.200   3.150  0.7854  0.2309  0.5449
14869SOL    HW146048   6.408   2.169   3.065  1.0212  0.8562  0.2232
14869SOL    HW246049   6.449   2.295   3.139  0.5677  0.3637  1.3461
14870SOL     OW46050   4.260   3.319   1.122 -0.2111  0.0004 -0.0485
14870SOL    HW146051   4.173   3.358   1.131 -0.7149 -0.3812 -2.5965
14870SOL    HW246052   4.296   3.358   1.043  1.1836 -1.2730 -0.0887
14871SOL     OW46053   4.077   0.662   7.330  0.6530 -0.2682 -0.0795
14871SOL    HW146054   4.027   0.738   7.359 -0.3619 -1.3716  1.1608
14871SOL    HW246055   4.167   0.681   7.358  0.2220  0.0199  1.1602
14872SOL     OW46056   0.783   4.155   6.081 -0.9877  0.1274 -0.6261
14872SOL    HW146057   0.735   4.215   6.024 -0.1799  0.8379 -0.5781
14872SOL    HW246058   0.823   4.211   6.147 -2.5143 -0.7649  1.1169
14873SOL     OW46059   4.900   5.817   6.459 -0.0911 -0.2809  0.3841
14873SOL    HW146060   4.832   5.749   6.450 -0.1440 -0.4306  1.7442
14873SOL    HW246061   4.900   5.861   6.374  0.0050 -2.0351 -0.5932
14874SOL     OW46062   1.344   7.442   7.155  0.0112  0.3613 -0.0582
14874SOL    HW146063   1.313   7.386   7.084  1.5867  1.2785 -1.5616
14874SOL    HW246064   1.265   7.470   7.201 -0.9871 -0.9335 -0.9315
14875SOL     OW46065   0.003   3.089   7.312  0.6195  0.0070  0.1213
14875SOL    HW146066   0.083   3.141   7.308 -0.0224  0.9821 -0.3445
14875SOL    HW246067  -0.045   3.113   7.233 -0.0314 -0.7458  0.2776
14876SOL     OW46068   6.820   2.526  10.930  0.6252 -0.1101 -0.0898
14876SOL    HW146069   6.834   2.574  10.848  0.4062 -1.4707 -0.9622
14876SOL    HW246070   6.744   2.567  10.970  2.1709  2.1841  0.7146
14877SOL     OW46071   7.322   3.830   9.518 -0.1519  0.2627 -0.3532
14877SOL    HW146072   7.368   3.773   9.456 -0.2480 -0.6320  0.3680
14877SOL    HW246073   7.238   3.785   9.534 -0.0294  0.3449  0.5909
14878SOL     OW46074   5.108   7.597   9.086 -0.1631  0.2550  0.4818
14878SOL    HW146075   5.070   7.685   9.083 -0.6048  0.1760  2.3463
14878SOL    HW246076   5.197   7.611   9.118 -0.1778  0.0417  0.6191
14879SOL     OW46077   4.265   1.914   7.665  0.3143  0.5407  0.0431
14879SOL    HW146078   4.278   1.925   7.570 -0.8596  2.0195  0.0130
14879SOL    HW246079   4.333   1.853   7.692  0.8163  0.2731 -1.7218
14880SOL     OW46080   4.017   6.919   3.780 -0.5839  0.7830 -0.3657
14880SOL    HW146081   4.010   7.014   3.768 -1.4407  0.5957 -1.5450
14880SOL    HW246082   4.017   6.884   3.691  0.2833 -0.3049  0.0304
14881SOL     OW46083   3.644   7.675   2.042  0.5591  0.2271  0.2407
14881SOL    HW146084   3.633   7.759   1.998 -1.2167 -0.3718 -0.5495
14881SOL    HW246085   3.714   7.631   1.994 -0.5682  0.0504 -1.2964
14882SOL     OW46086   6.263   6.605   7.917  0.0306  0.4520 -0.4165
14882SOL    HW146087   6.257   6.535   7.983  0.4862 -0.5289 -1.3658
14882SOL    HW246088   6.338   6.657   7.945  0.3971 -0.1257 -0.2950
14883SOL     OW46089   6.948   6.118   4.680  0.2281 -0.6529 -0.4943
14883SOL    HW146090   6.982   6.206   4.667 -0.6627 -0.1863  0.2557
14883SOL    HW246091   6.891   6.125   4.757 -0.3042 -1.7576 -0.7680
14884SOL     OW46092   2.505   1.996   0.522 -0.5792  0.2464  0.0335
14884SOL    HW146093   2.455   1.931   0.472  0.3476  0.3635 -1.0764
14884SOL    HW246094   2.593   1.959   0.530 -0.2464  1.0199  0.0625
14885SOL     OW46095   3.701   2.868   6.555  0.4850 -0.0863 -0.1798
14885SOL    HW146096   3.759   2.806   6.511  0.7529 -0.7818  1.1044
14885SOL    HW246097   3.701   2.945   6.499  1.9849 -0.3934 -0.6287
14886SOL     OW46098   2.876   7.835   9.681 -0.1083  0.1553 -0.1440
14886SOL    HW146099   2.964   7.869   9.697 -0.5606  1.6689 -0.7366
14886SOL    HW246100   2.858   7.856   9.590 -1.1273 -0.0165  0.0071
14887SOL     OW46101   7.807   5.142   9.687 -0.0050 -0.3150 -0.2803
14887SOL    HW146102   7.878   5.205   9.696  0.3382 -0.6236 -0.8495
14887SOL    HW246103   7.794   5.133   9.593 -2.0726  1.1614 -0.2068
14888SOL     OW46104   4.314   2.321   5.690 -0.0889 -0.1518 -0.0491
14888SOL    HW146105   4.382   2.313   5.757 -1.8424 -2.2349  1.6634
14888SOL    HW246106   4.340   2.260   5.621  1.0822  1.0659 -0.7364
14889SOL     OW46107   0.787   3.242   6.043  0.4515 -0.7292 -0.3938
14889SOL    HW146108   0.803   3.148   6.051 -1.4271 -1.2358 -2.1068
14889SOL    HW246109   0.719   3.260   6.108  1.3696 -0.3541  0.4956
14890SOL     OW46110   1.273   5.977   9.013 -0.1199 -0.1532 -0.1877
14890SOL    HW146111   1.314   5.954   9.097 -1.0506  1.2747  0.7187
14890SOL    HW246112   1.343   5.971   8.949  1.1456  0.7525  1.0522
14891SOL     OW46113   1.411   4.115   7.007 -0.1513  0.0884 -0.2747
14891SOL    HW146114   1.415   4.022   6.985 -0.7645 -0.2092  0.7840
14891SOL    HW246115   1.477   4.156   6.951  0.0919 -0.9745 -0.7891
14892SOL     OW46116   2.656   2.003   3.283 -0.2719  0.1244  0.0397
14892SOL    HW146117   2.583   2.023   3.342  0.0131  2.8429 -0.3625
14892SOL    HW246118   2.664   2.082   3.229 -0.4968 -2.1373 -3.6678
14893SOL     OW46119   1.450   0.253   9.964 -0.2694  0.1151  0.4428
14893SOL    HW146120   1.418   0.195   9.895  5.2021 -2.3193 -0.6277
14893SOL    HW246121   1.427   0.341   9.934 -1.7034 -1.0767 -2.3490
14894SOL     OW46122   0.495   4.384   5.150 -0.6050 -0.1324  0.8109
14894SOL    HW146123   0.443   4.365   5.229 -0.1476 -3.7117  0.4018
14894SOL    HW246124   0.585   4.388   5.182 -0.5680  0.0770  0.6808
14895SOL     OW46125   0.225   6.238   9.923  0.4461  0.1679 -0.9762
14895SOL    HW146126   0.302   6.209   9.971  0.0757  0.0728 -0.4372
14895SOL    HW246127   0.259   6.266   9.838  0.9879 -0.5086 -0.9865
14896SOL     OW46128   6.726   6.228   1.933 -0.1407  0.3053  0.3272
14896SOL    HW146129   6.759   6.295   1.873 -1.2979 -1.1447 -2.0756
14896SOL    HW246130   6.633   6.218   1.910 -0.1915 -1.5681  1.1375
14897SOL     OW46131   3.492   7.323   9.943 -0.1882  0.2530 -0.0495
14897SOL    HW146132   3.494   7.247   9.885  0.9499  0.3293 -0.1347
14897SOL    HW246133   3.407   7.364   9.926  0.4665  0.8262 -2.4097
14898SOL     OW46134   7.536   5.042   7.928  0.8271 -0.3234 -0.0579
14898SOL    HW146135   7.631   5.031   7.929  0.7105 -1.6243  1.3649
14898SOL    HW246136   7.515   5.077   8.014 -0.1135 -1.7714  0.3395
14899SOL     OW46137   1.354   2.108   1.098  0.5654  0.0733 -0.2501
14899SOL    HW146138   1.315   2.039   1.152  1.5908 -0.5303 -0.2575
14899SOL    HW246139   1.412   2.061   1.037  1.9713  0.9821  0.3339
14900SOL     OW46140   5.910   0.305  11.110  0.7212 -0.1424  0.2080
14900SOL    HW146141   5.974   0.266  11.169 -0.3082  0.7116  1.9787
14900SOL    HW246142   5.961   0.361  11.051  1.6542  0.1513  1.2709
14901SOL     OW46143   4.708   7.518  10.106  0.6030 -0.9101 -0.2971
14901SOL    HW146144   4.697   7.456  10.178  1.9132 -1.1245 -0.2596
14901SOL    HW246145   4.662   7.477  10.032 -0.8543 -0.6268  0.4231
14902SOL     OW46146   2.868   3.771   4.286  0.1138 -0.0120 -0.1349
14902SOL    HW146147   2.939   3.835   4.278  0.1714 -0.2125 -1.4449
14902SOL    HW246148   2.798   3.818   4.331  0.8636  0.3519  0.6960
14903SOL     OW46149   0.151   3.743   8.636 -0.2575 -0.0037  0.1045
14903SOL    HW146150   0.169   3.803   8.563  0.8811 -0.6836 -0.2106
14903SOL    HW246151   0.095   3.792   8.695 -0.9899  0.6605 -1.1081
14904SOL     OW46152   2.275   2.254   7.008  0.2330  0.3199 -0.0712
14904SOL    HW146153   2.318   2.287   7.087 -0.2246  0.0867  0.2793
14904SOL    HW246154   2.207   2.196   7.040  1.1240 -1.1244 -0.6647
14905SOL     OW46155   4.971   7.651  10.001 -0.4013  0.6956 -0.4109
14905SOL    HW146156   4.891   7.700   9.982 -0.0369  0.1951 -3.8355
14905SOL    HW246157   4.953   7.562   9.970  0.9069  0.1325  0.3659
14906SOL     OW46158   7.208   5.577  10.520  0.0987  0.5009 -0.4404
14906SOL    HW146159   7.182   5.669  10.519 -2.2368 -0.0848 -1.0127
14906SOL    HW246160   7.214   5.555  10.613  0.6125  1.2102 -0.3015
14907SOL     OW46161   7.537   3.526  11.026 -0.3691  0.0513 -0.1501
14907SOL    HW146162   7.557   3.577  10.947 -1.5299  0.9663  0.1209
14907SOL    HW246163   7.512   3.591  11.091 -1.4610 -0.8223  0.3357
14908SOL     OW46164   1.653   4.258   0.230 -0.5013  0.1523  0.3103
14908SOL    HW146165   1.664   4.353   0.225 -0.5481  0.2527  1.7076
14908SOL    HW246166   1.724   4.223   0.176 -1.2037  0.9769 -1.2147
14909SOL     OW46167   0.608   4.649   6.799  0.6484  0.2103  0.2027
14909SOL    HW146168   0.649   4.680   6.880  3.4979 -0.1801 -0.9770
14909SOL    HW246169   0.573   4.729   6.759  1.3484  0.7788  0.6929
14910SOL     OW46170   6.996   6.552   7.926 -0.0604 -0.2408  0.4011
14910SOL    HW146171   7.077   6.565   7.974  0.2081  0.1273 -0.1456
14910SOL    HW246172   6.929   6.545   7.994  0.3835 -0.2341  0.8434
14911SOL     OW46173   6.515   6.210   8.578 -0.1520  0.4209 -0.3821
14911SOL    HW146174   6.444   6.189   8.517 -0.0408  2.6460 -1.3690
14911SOL    HW246175   6.472   6.227   8.661 -0.6267  0.4874 -0.6417
14912SOL     OW46176   1.346   3.071   7.651  0.5478 -0.8041 -1.0217
14912SOL    HW146177   1.434   3.104   7.634  1.2515 -1.1680  1.4371
14912SOL    HW246178   1.352   3.031   7.738 -2.5142  0.9385  0.1368
14913SOL     OW46179   0.236   3.151   0.201  0.1599 -0.2941  0.3109
14913SOL    HW146180   0.155   3.101   0.188  0.1216 -0.6588  1.8042
14913SOL    HW246181   0.266   3.172   0.112 -1.4251 -0.3754 -0.2665
14914SOL     OW46182   1.799   4.946   4.913 -0.6757  0.3747 -0.2670
14914SOL    HW146183   1.765   4.857   4.904 -1.4911  0.6978 -0.4364
14914SOL    HW246184   1.804   4.961   5.008 -1.8571  0.6303 -0.2297
14915SOL     OW46185   1.533   0.134   3.548 -0.1577  0.0951 -0.1429
14915SOL    HW146186   1.592   0.190   3.599  0.8964 -0.0707 -1.1495
14915SOL    HW246187   1.469   0.195   3.511 -1.6088  0.1135  2.1586
14916SOL     OW46188   6.751   1.631   1.582 -0.4348 -0.2820  0.3784
14916SOL    HW146189   6.691   1.559   1.561 -0.9060  0.0711  0.4869
14916SOL    HW246190   6.815   1.630   1.511 -0.6363 -0.5990  0.1958
14917SOL     OW46191   5.163   1.145   9.662 -0.4619 -0.2792 -0.5885
14917SOL    HW146192   5.105   1.136   9.738  0.9423 -1.4723  0.3835
14917SOL    HW246193   5.250   1.160   9.700 -0.1521  2.0643 -2.0098
14918SOL     OW46194   1.736   4.628   0.758 -0.4521  0.1407  0.3199
14918SOL    HW146195   1.755   4.649   0.850 -2.5378 -0.7425  1.0035
14918SOL    HW246196   1.641   4.625   0.753 -0.3736 -2.0338 -1.3374
14919SOL     OW46197   1.080   7.122   5.836  0.4090  0.0581  0.2072
14919SOL    HW146198   1.014   7.054   5.852 -0.3528  0.6068 -0.4861
14919SOL    HW246199   1.032   7.191   5.790  0.8942  1.5789  1.8561
14920SOL     OW46200   7.470   3.964   1.230 -0.4318 -0.4106 -0.4516
14920SOL    HW146201   7.556   3.955   1.191  0.2104  2.3196  0.1041
14920SOL    HW246202   7.415   3.997   1.159 -0.7168 -0.9508 -0.4856
14921SOL     OW46203   2.434   1.746   2.961 -0.4742  0.2789  0.2738
14921SOL    HW146204   2.404   1.656   2.953 -0.2027  0.3176 -1.5098
14921SOL    HW246205   2.503   1.743   3.027  0.7732 -1.1761 -1.0270
14922SOL     OW46206   5.755   4.943  11.141  0.1856  0.0891 -0.0481
14922SOL    HW146207   5.662   4.940  11.161 -0.2222 -0.1037 -1.8300
14922SOL    HW246208   5.798   4.938  11.226 -1.4130 -0.3770  0.7650
14923SOL     OW46209   2.436   1.548   4.619  0.0361  0.1165  0.1496
14923SOL    HW146210   2.488   1.476   4.655  1.4174  1.1266  0.2577
14923SOL    HW246211   2.437   1.615   4.687  2.4192  1.9314 -1.4933
14924SOL     OW46212   5.113   6.348   7.553  0.5974 -0.1565 -0.1324
14924SOL    HW146213   5.133   6.415   7.618 -2.1231 -1.0928  1.8603
14924SOL    HW246214   5.043   6.385   7.499 -1.8957 -1.6379  1.8246
14925SOL     OW46215   3.593   4.228   2.325 -0.0721 -0.1496 -0.0607
14925SOL    HW146216   3.559   4.165   2.262 -2.0298  1.4448 -0.7414
14925SOL    HW246217   3.558   4.199   2.409 -0.9791 -0.0090 -0.3730
14926SOL     OW46218   2.811   4.841   2.083 -0.1483  0.1481  0.0923
14926SOL    HW146219   2.746   4.852   2.152 -0.1966  1.2712 -0.1164
14926SOL    HW246220   2.760   4.814   2.006 -0.2094 -0.2016  0.2556
14927SOL     OW46221   4.885   7.841   8.636  0.5050  0.3618 -0.3098
14927SOL    HW146222   4.902   7.916   8.692  1.2370  0.3008 -0.4430
14927SOL    HW246223   4.862   7.879   8.551  2.0784  0.4495 -0.7300
14928SOL     OW46224   2.588   6.527   2.486 -0.2968  0.0753 -0.2814
14928SOL    HW146225   2.657   6.546   2.551 -0.8940  1.0973  0.0735
14928SOL    HW246226   2.530   6.602   2.491 -0.1606  0.3502 -2.2916
14929SOL     OW46227   1.961   2.367   7.964 -0.1725  0.5793  0.2751
14929SOL    HW146228   2.039   2.321   7.995 -0.1689  0.9285  0.7867
14929SOL    HW246229   1.945   2.330   7.877  0.8493  0.8639 -0.0477
14930SOL     OW46230   1.919   0.112   0.311 -0.2263 -0.0336  0.2871
14930SOL    HW146231   1.837   0.090   0.356 -1.9364  1.4017 -1.8910
14930SOL    HW246232   1.921   0.207   0.309  1.8163 -0.0256  0.7462
14931SOL     OW46233   6.023   2.466   5.142  0.2024 -0.2442  0.3239
14931SOL    HW146234   6.044   2.422   5.060  0.9650 -0.0288  0.4014
14931SOL    HW246235   6.094   2.528   5.155 -0.5005  0.5358  0.5658
14932SOL     OW46236   5.462   3.090   2.271  0.4366  0.2021 -0.3181
14932SOL    HW146237   5.529   3.066   2.207 -0.3018 -0.8949 -0.7112
14932SOL    HW246238   5.511   3.106   2.351  1.3133  0.9365 -0.9762
14933SOL     OW46239   5.746   5.907   0.503 -0.1266 -0.2740 -0.3672
14933SOL    HW146240   5.802   5.983   0.490 -0.9747  0.5247  0.4745
14933SOL    HW246241   5.751   5.890   0.597 -1.4093 -0.0900 -0.2536
14934SOL     OW46242   1.290   3.807  11.426 -0.2127 -0.4149 -0.6503
14934SOL    HW146243   1.279   3.898  11.451 -0.0699 -0.6649  0.3933
14934SOL    HW246244   1.229   3.759  11.483  0.1327 -1.0157 -0.7789
14935SOL     OW46245   1.000   5.772   8.180  0.0517  0.4283  0.3040
14935SOL    HW146246   1.026   5.704   8.118  0.8569  1.0404 -0.0667
14935SOL    HW246247   0.922   5.738   8.223  0.1476 -0.5024 -0.2307
14936SOL     OW46248   4.817   2.069   8.087  0.0234  0.7086 -0.3358
14936SOL    HW146249   4.786   1.987   8.126 -2.7928  2.0967  0.6129
14936SOL    HW246250   4.802   2.058   7.993  0.8778 -0.3020 -0.3687
14937SOL     OW46251   3.417   1.245   4.944  0.0263 -0.0932  0.2530
14937SOL    HW146252   3.477   1.304   4.990 -0.9539  1.2459 -0.1158
14937SOL    HW246253   3.342   1.300   4.922 -0.0730 -0.9672 -1.8644
14938SOL     OW46254   4.572   4.013   5.102 -0.3746 -0.0694 -0.0876
14938SOL    HW146255   4.658   4.030   5.140  0.3514 -3.2794 -0.0322
14938SOL    HW246256   4.590   3.960   5.024 -2.2214  0.7252 -1.0998
14939SOL     OW46257   2.133   7.431  10.962 -0.4691  0.1077  0.0604
14939SOL    HW146258   2.092   7.345  10.971  1.6442 -0.8231  1.7381
14939SOL    HW246259   2.161   7.435  10.871  2.3912 -2.5503  0.6384
14940SOL     OW46260   6.201   1.303   0.191  0.1076  0.0246  0.1517
14940SOL    HW146261   6.194   1.211   0.165  0.4671 -0.7764  2.6585
14940SOL    HW246262   6.271   1.338   0.136 -0.9143 -0.7969 -1.7758
14941SOL     OW46263   6.127   5.415   5.871  0.6688  0.8510 -0.4736
14941SOL    HW146264   6.159   5.429   5.960  0.6354  2.0025 -0.6274
14941SOL    HW246265   6.036   5.446   5.873  0.3707  0.0178 -0.6874
14942SOL     OW46266   4.480   2.408   5.910  0.7835  0.4042  0.2793
14942SOL    HW146267   4.571   2.382   5.921  0.6637 -0.0166  0.2880
14942SOL    HW246268   4.484   2.501   5.888  1.1627  0.6568  1.3728
14943SOL     OW46269   5.430   1.215   2.001 -0.1327 -0.1156  0.2570
14943SOL    HW146270   5.404   1.228   1.909 -0.6643  1.3943  0.5853
14943SOL    HW246271   5.520   1.247   2.005 -0.4374  0.7625  0.4395
14944SOL     OW46272   3.713   7.508   3.459  0.3255  0.2461  0.3201
14944SOL    HW146273   3.685   7.592   3.421  0.7089 -0.3299 -1.3296
14944SOL    HW246274   3.732   7.453   3.383  0.4711 -1.2152  1.3766
14945SOL     OW46275   7.815   2.601   6.269  0.1491 -0.0711  0.3766
14945SOL    HW146276   7.820   2.560   6.183  2.8402 -1.3524  1.0460
14945SOL    HW246277   7.864   2.543   6.327 -0.8818  1.1644  2.6438
14946SOL     OW46278   1.921   3.914   8.425 -0.2794  0.0303  0.1580
14946SOL    HW146279   1.950   3.991   8.376 -1.1064 -0.0791 -0.5142
14946SOL    HW246280   1.827   3.925   8.435 -0.1848 -0.1178  1.4538
14947SOL     OW46281   0.042   0.146   5.334  0.2018  0.1667 -0.0197
14947SOL    HW146282   0.116   0.205   5.349  1.2171 -0.8242 -0.9185
14947SOL    HW246283  -0.033   0.192   5.370  1.1128  1.5954  0.1386
14948SOL     OW46284   1.413   0.115   6.269  0.3496 -0.1104 -0.4370
14948SOL    HW146285   1.485   0.153   6.219  0.1610  0.6034 -0.1691
14948SOL    HW246286   1.444   0.027   6.291  0.8859 -0.0328 -0.8576
14949SOL     OW46287   2.665   3.116   1.593 -0.1885 -0.2022  0.8448
14949SOL    HW146288   2.581   3.128   1.636 -0.7787 -1.7024  0.1611
14949SOL    HW246289   2.654   3.154   1.506 -0.2604 -0.6628  0.6503
14950SOL     OW46290   3.888   7.718   4.004 -0.0322 -0.0768  0.2547
14950SOL    HW146291   3.796   7.698   4.019 -1.0333  2.9361 -1.0621
14950SOL    HW246292   3.904   7.797   4.056  1.4442  0.1500 -0.4900
14951SOL     OW46293   3.307   0.174   1.114  0.3143  0.4648  0.0125
14951SOL    HW146294   3.249   0.105   1.084 -0.3948  0.7513  0.6850
14951SOL    HW246295   3.311   0.236   1.042  0.1405  0.2214 -0.2068
14952SOL     OW46296   1.574   3.988  11.284 -0.4118  0.1514  0.4174
14952SOL    HW146297   1.481   4.010  11.272 -0.4019 -0.0416 -0.0195
14952SOL    HW246298   1.576   3.892  11.278 -0.3074  0.0840  1.2954
14953SOL     OW46299   2.101   2.783  12.206  0.3492 -0.2725  0.5614
14953SOL    HW146300   2.049   2.845  12.257  2.1493  1.5840  0.2603
14953SOL    HW246301   2.117   2.710  12.266  1.3874  1.3148  2.3224
14954SOL     OW46302   7.849   3.771   7.293 -0.2817  0.1467 -0.2426
14954SOL    HW146303   7.873   3.689   7.335  1.2389  1.5545  1.8246
14954SOL    HW246304   7.898   3.771   7.210  1.3213 -0.1667  0.6692
14955SOL     OW46305   7.148   0.374   9.656 -0.2362 -0.0545  0.1107
14955SOL    HW146306   7.221   0.356   9.715  0.1011  0.0216 -0.2725
14955SOL    HW246307   7.071   0.338   9.700  0.0082  0.0067  0.5942
14956SOL     OW46308   1.679   1.947   8.108 -0.3638  0.2334 -0.2559
14956SOL    HW146309   1.675   1.853   8.092  0.3712  0.0670  0.4297
14956SOL    HW246310   1.660   1.987   8.024 -1.6877 -0.5116 -0.3283
14957SOL     OW46311   1.703   0.578   6.706 -0.1141  0.4817 -0.4563
14957SOL    HW146312   1.784   0.629   6.700 -0.5626  1.0687 -2.1543
14957SOL    HW246313   1.661   0.590   6.620 -2.7334  1.4384  0.8348
14958SOL     OW46314   7.842   3.534   8.102  0.2003 -0.5155 -0.0825
14958SOL    HW146315   7.826   3.461   8.042 -0.8329 -1.2668  1.0473
14958SOL    HW246316   7.874   3.493   8.183  0.9309  0.4135  0.1223
14959SOL     OW46317   6.087   4.528   1.910 -0.7193  0.0362  0.0975
14959SOL    HW146318   6.165   4.579   1.929 -0.8042 -0.3008  1.4726
14959SOL    HW246319   6.107   4.483   1.827  0.3406  0.3304  0.1812
14960SOL     OW46320   6.954   4.967  10.153 -0.1244  0.3714 -0.0893
14960SOL    HW146321   7.015   4.899  10.124 -0.1369  0.4903 -0.3954
14960SOL    HW246322   7.005   5.047  10.153 -0.0631  0.3411  0.4407
14961SOL     OW46323   2.816   5.268   9.192  0.0877  0.1482  0.2052
14961SOL    HW146324   2.771   5.315   9.122  0.5589 -0.2941 -0.4046
14961SOL    HW246325   2.780   5.179   9.187  0.3577  0.0344  0.3121
14962SOL     OW46326   3.308   5.967   4.634 -0.0177 -0.4797  0.2154
14962SOL    HW146327   3.354   5.887   4.606  0.4049  0.6007 -2.5365
14962SOL    HW246328   3.377   6.033   4.638 -0.7615  0.3489 -0.3255
14963SOL     OW46329   1.245   0.504  10.272  1.0074 -0.1292 -0.2285
14963SOL    HW146330   1.263   0.429  10.329 -1.6179 -0.0328  0.8561
14963SOL    HW246331   1.168   0.478  10.222 -1.2787  2.5119  1.6698
14964SOL     OW46332   6.321   6.228  12.351 -0.2429  0.1453 -0.1889
14964SOL    HW146333   6.348   6.248  12.262 -0.3909 -1.1536 -0.5361
14964SOL    HW246334   6.227   6.248  12.353 -1.0714 -2.9961 -1.3671
14965SOL     OW46335   4.649   2.166   8.385 -0.2268 -0.7423 -0.0794
14965SOL    HW146336   4.591   2.228   8.341 -0.3044  0.5886  1.7567
14965SOL    HW246337   4.736   2.184   8.349  0.0070  1.5262  1.3942
14966SOL     OW46338   6.563   4.160   6.805  0.2645 -0.0126  0.3228
14966SOL    HW146339   6.652   4.159   6.769 -0.2747 -1.6603 -1.1588
14966SOL    HW246340   6.529   4.247   6.783  1.0864  0.1774 -0.2502
14967SOL     OW46341   2.856   7.227   6.209  0.1449  0.1999  0.5860
14967SOL    HW146342   2.801   7.257   6.281 -1.0004 -0.9216  0.2015
14967SOL    HW246343   2.909   7.157   6.247 -0.3999 -0.3352  0.3636
14968SOL     OW46344   7.058   6.182   7.942  0.1456  0.3991 -0.0036
14968SOL    HW146345   7.058   6.215   7.852  1.3982 -1.0762 -0.5981
14968SOL    HW246346   7.061   6.087   7.932  1.8645  0.2302  1.5745
14969SOL     OW46347   6.124   1.131  11.096  0.1237 -0.5479 -0.2431
14969SOL    HW146348   6.046   1.096  11.140  0.0387 -0.9147 -0.6747
14969SOL    HW246349   6.188   1.142  11.166  0.5337 -2.6085 -0.2197
14970SOL     OW46350   2.055   3.378   3.751  0.2270  0.2899 -0.2089
14970SOL    HW146351   2.061   3.452   3.810  0.7351  0.2836 -0.2468
14970SOL    HW246352   1.969   3.386   3.710  0.2015  0.7436 -0.0653
14971SOL     OW46353   6.321   7.115   5.493 -0.2768 -0.2350 -0.0167
14971SOL    HW146354   6.298   7.042   5.436  0.3905 -0.5382  0.0881
14971SOL    HW246355   6.245   7.125   5.551 -0.6523 -0.3993 -0.4759
14972SOL     OW46356   1.451   2.309   3.711  0.2023 -0.3258 -0.7053
14972SOL    HW146357   1.532   2.264   3.687 -0.3272 -1.6827 -0.0484
14972SOL    HW246358   1.454   2.317   3.806 -0.2488 -0.0146 -0.7085
14973SOL     OW46359   6.106   7.641  11.591 -0.4792 -0.2184 -0.3788
14973SOL    HW146360   6.100   7.582  11.515  0.0908  0.6616 -1.1157
14973SOL    HW246361   6.187   7.690  11.577 -1.3810  1.3539 -0.2204
14974SOL     OW46362   7.613   0.936   6.391 -0.1600 -0.2011 -0.3195
14974SOL    HW146363   7.558   0.997   6.341  0.3862 -0.3820 -1.1469
14974SOL    HW246364   7.680   0.907   6.329  0.9867  0.1437  0.7060
14975SOL     OW46365   5.817   4.121  10.327 -0.2818  0.7247 -0.4335
14975SOL    HW146366   5.775   4.117  10.413  0.2692  0.1769 -0.1798
14975SOL    HW246367   5.814   4.213  10.303 -2.0710  0.6445 -0.6526
14976SOL     OW46368   1.095   5.659   6.130 -0.2545 -0.3423  0.4555
14976SOL    HW146369   1.077   5.623   6.217 -0.1723  0.9638  1.0436
14976SOL    HW246370   1.167   5.721   6.145 -0.2658 -0.0829 -0.5337
14977SOL     OW46371   3.181   6.448  10.243 -0.1843 -0.6975  0.1458
14977SOL    HW146372   3.087   6.459  10.228  0.0212  0.2716 -0.5739
14977SOL    HW246373   3.215   6.537  10.246  1.0686 -1.0029 -2.2191
14978SOL     OW46374   6.929   3.891   4.853 -0.2773  0.0479  0.2907
14978SOL    HW146375   6.882   3.859   4.930 -2.5921  0.1736 -0.9561
14978SOL    HW246376   6.886   3.973   4.831 -0.9033 -0.8305 -2.1039
14979SOL     OW46377   6.180   3.604   9.580  0.3637 -0.4374 -0.1106
14979SOL    HW146378   6.096   3.628   9.544  0.4942  1.5653  0.7803
14979SOL    HW246379   6.218   3.687   9.611  1.5293 -1.6042  1.8233
14980SOL     OW46380   7.574   7.916  10.447  0.4912  0.8542  0.0959
14980SOL    HW146381   7.544   7.912  10.356 -1.2068 -0.3021  0.6387
14980SOL    HW246382   7.668   7.899  10.443  0.3619  0.3611 -1.3977
14981SOL     OW46383   0.701   3.193   1.773  0.2452  0.6829 -0.3222
14981SOL    HW146384   0.781   3.244   1.775  0.9181 -0.2415  3.6290
14981SOL    HW246385   0.723   3.115   1.721  1.6077  0.8964 -0.0937
14982SOL     OW46386   0.488   3.838   5.558  0.1668 -0.3478  0.0761
14982SOL    HW146387   0.439   3.917   5.579 -0.0109 -1.0636  2.7813
14982SOL    HW246388   0.531   3.858   5.475 -0.0259  2.5076  0.5413
14983SOL     OW46389   4.681   1.293   4.613  0.2286  0.0825  0.3079
14983SOL    HW146390   4.669   1.254   4.526 -1.0390  1.1757 -0.0420
14983SOL    HW246391   4.597   1.335   4.632  0.8721  0.8618  1.5641
14984SOL     OW46392   4.071   5.356   8.285  0.7387 -0.6720  0.1871
14984SOL    HW146393   4.051   5.282   8.227 -0.2325 -0.7734  0.6387
14984SOL    HW246394   4.051   5.433   8.232  1.1647 -0.7351 -0.0725
14985SOL     OW46395   2.614   5.013   0.319 -0.5642 -0.8767 -0.5045
14985SOL    HW146396   2.708   5.010   0.303 -0.3293 -2.3169  0.9138
14985SOL    HW246397   2.606   5.035   0.412 -1.7474  2.0558 -1.1597
14986SOL     OW46398   1.649   2.854   5.485  0.0609 -0.2579 -0.1504
14986SOL    HW146399   1.603   2.894   5.412  0.7079  0.3652 -0.2206
14986SOL    HW246400   1.711   2.793   5.444  0.3264 -0.0112 -0.1156
14987SOL     OW46401   3.416   1.972   5.213 -0.3141 -0.7187  0.0878
14987SOL    HW146402   3.360   1.991   5.288  0.8818  3.6511  0.1654
14987SOL    HW246403   3.362   1.995   5.137 -0.6276 -2.6087 -0.3156
14988SOL     OW46404   6.279   7.560   6.459 -0.0341 -0.8718  0.1854
14988SOL    HW146405   6.261   7.475   6.421  0.1450 -1.1124  0.6355
14988SOL    HW246406   6.330   7.541   6.538  0.0540 -0.3494  0.2583
14989SOL     OW46407   4.192   7.285   2.005 -0.4823  0.3176  0.4708
14989SOL    HW146408   4.224   7.230   1.933  0.6815  1.8826 -0.2495
14989SOL    HW246409   4.205   7.231   2.083 -0.6067 -0.9317 -0.3444
14990SOL     OW46410   7.218   6.222   7.003 -0.1492  0.2153  0.3194
14990SOL    HW146411   7.286   6.159   6.981 -0.5852 -0.5289  1.0265
14990SOL    HW246412   7.231   6.294   6.942  1.4198  0.1996  0.5846
14991SOL     OW46413   3.725   3.817   0.578  0.4058  0.0081  0.6113
14991SOL    HW146414   3.756   3.905   0.555 -0.7463  0.2315 -0.1730
14991SOL    HW246415   3.765   3.800   0.663  0.2737  1.5059  1.0142
14992SOL     OW46416   6.157   6.983   0.320  0.3282  0.5991 -0.4760
14992SOL    HW146417   6.227   6.994   0.256  0.6737 -1.2046 -0.4653
14992SOL    HW246418   6.202   6.957   0.401 -0.2718  0.6273 -0.1252
14993SOL     OW46419   2.870   5.428   7.183 -0.2557 -0.0403 -0.3105
14993SOL    HW146420   2.886   5.367   7.111  1.2743 -0.4125  0.3100
14993SOL    HW246421   2.889   5.514   7.146  4.0103 -0.4533  0.4473
14994SOL     OW46422   5.824   2.764   9.598  0.0873  0.0540 -0.4148
14994SOL    HW146423   5.833   2.672   9.572 -0.6013  0.3557 -1.8112
14994SOL    HW246424   5.826   2.762   9.694  0.0904 -1.4145 -0.4194
14995SOL     OW46425   7.355   0.836   8.123 -0.4591 -0.2182 -0.1432
14995SOL    HW146426   7.310   0.920   8.127 -1.5508 -0.8102  0.3821
14995SOL    HW246427   7.448   0.858   8.131 -0.7916  0.8621  0.9485
14996SOL     OW46428   5.602   2.735   4.054  0.2888 -0.4698 -0.0210
14996SOL    HW146429   5.576   2.799   4.120  0.8254 -0.1560 -0.1100
14996SOL    HW246430   5.695   2.718   4.071  0.5899  0.0638 -1.0557
14997SOL     OW46431   7.090   7.864  11.155 -0.4488 -0.2741  0.4048
14997SOL    HW146432   7.132   7.853  11.070  0.4504  1.7224  0.5385
14997SOL    HW246433   7.109   7.783  11.202  3.6553  0.5937  0.5955
14998SOL     OW46434   6.617   0.593   5.539 -0.1560  0.1215 -0.3018
14998SOL    HW146435   6.671   0.612   5.616  0.4778 -2.1434 -0.1282
14998SOL    HW246436   6.613   0.677   5.492  1.1150  1.0608  1.1533
14999SOL     OW46437   0.140   5.673   3.622 -0.1071 -0.0780 -0.0747
14999SOL    HW146438   0.151   5.661   3.716 -1.6090 -0.5188  0.0805
14999SOL    HW246439   0.046   5.664   3.608 -0.2385  2.4087 -1.3003
15000SOL     OW46440   4.491   3.236   4.872 -0.3677  0.2257 -0.0958
15000SOL    HW146441   4.486   3.312   4.814 -0.4353 -0.2402 -0.7199
15000SOL    HW246442   4.500   3.161   4.812 -2.1362 -0.4418  0.3909
15001SOL     OW46443   3.671   5.092  11.816  0.0415  0.0816 -0.6532
15001SOL    HW146444   3.699   5.181  11.841 -1.4677  0.3496  0.1605
15001SOL    HW246445   3.753   5.046  11.797  0.8481  1.7038 -1.3246
15002SOL     OW46446   7.792   4.261   9.021 -0.1670 -0.0015 -0.4753
15002SOL    HW146447   7.754   4.347   9.006 -0.3361 -0.1887 -1.2005
15002SOL    HW246448   7.741   4.224   9.093  0.4157  0.7989  0.3656
15003SOL     OW46449   3.244   2.996   7.570  0.0967 -0.6800  0.0838
15003SOL    HW146450   3.323   3.012   7.621  2.0754  0.9154 -3.1589
15003SOL    HW246451   3.192   3.076   7.581  1.7757  0.8618 -2.2890
15004SOL     OW46452   5.685   4.364  11.505 -0.0883 -0.0148 -0.3417
15004SOL    HW146453   5.668   4.456  11.521  0.3785 -0.2520  1.7950
15004SOL    HW246454   5.691   4.357  11.410 -1.2062  1.9403 -0.6024
15005SOL     OW46455   0.851   4.644   2.664 -0.4304 -0.1175 -0.4701
15005SOL    HW146456   0.794   4.567   2.663 -2.0069  0.9911  0.0760
15005SOL    HW246457   0.899   4.639   2.582 -0.1947 -1.8834 -0.2744
15006SOL     OW46458   7.978   2.711   2.738 -0.0703 -0.4670 -0.0103
15006SOL    HW146459   8.073   2.713   2.749  0.1502  2.2261 -1.5572
15006SOL    HW246460   7.959   2.784   2.680 -3.1598 -0.7316  0.4980
15007SOL     OW46461   5.942   2.224  10.415  0.5944 -0.1792  0.3087
15007SOL    HW146462   5.847   2.230  10.424  0.7234  0.5152  1.4305
15007SOL    HW246463   5.967   2.155  10.476  0.8414 -0.1551  0.2345
15008SOL     OW46464   2.253   5.698   1.431 -0.6167 -0.1387  0.5769
15008SOL    HW146465   2.294   5.666   1.511 -1.9840  0.9016  1.7589
15008SOL    HW246466   2.299   5.779   1.411  2.5133 -2.3133 -2.1375
15009SOL     OW46467   6.113   7.619   9.508 -0.3503  0.5019 -0.5909
15009SOL    HW146468   6.159   7.545   9.547 -0.4463 -0.3117 -1.9619
15009SOL    HW246469   6.161   7.636   9.426 -0.3998  1.8845 -0.3586
15010SOL     OW46470   5.052   3.613   6.608 -0.6324 -0.1315 -0.4630
15010SOL    HW146471   4.979   3.574   6.655 -1.0025  0.9583 -0.1109
15010SOL    HW246472   5.075   3.548   6.541 -0.9545 -1.1169  0.3636
15011SOL     OW46473   4.939   6.313   8.880  0.0589 -0.0724  0.2928
15011SOL    HW146474   5.024   6.339   8.843 -0.3027  1.0747  0.2103
15011SOL    HW246475   4.961   6.265   8.959  0.8914 -3.2480 -1.7035
15012SOL     OW46476   6.748   3.770   2.567 -0.2141  0.1410  0.1730
15012SOL    HW146477   6.674   3.798   2.513 -0.0363 -0.5579 -0.4453
15012SOL    HW246478   6.818   3.830   2.543  0.1106 -0.6865 -1.0151
15013SOL     OW46479   5.639   4.266   0.675 -0.2393  0.6359 -0.4640
15013SOL    HW146480   5.619   4.250   0.767  0.2919  0.0935 -0.4393
15013SOL    HW246481   5.604   4.353   0.657 -0.2753  0.7714  0.2699
15014SOL     OW46482   5.705   3.392   5.830  0.2521 -0.3452 -0.1217
15014SOL    HW146483   5.637   3.380   5.763  0.7687  0.3123 -0.7759
15014SOL    HW246484   5.685   3.477   5.869  0.6995 -0.1442 -0.3240
15015SOL     OW46485   7.086   6.747   2.904  0.3574  0.8055 -0.0984
15015SOL    HW146486   7.113   6.757   2.995 -0.5461  1.1611  0.1311
15015SOL    HW246487   7.018   6.812   2.891  1.6135  1.9230 -1.5003
15016SOL     OW46488   0.222   1.261  11.132  0.1773 -0.2796 -0.1331
15016SOL    HW146489   0.213   1.345  11.178 -0.0572  0.9480 -2.2888
15016SOL    HW246490   0.292   1.276  11.069  2.3109 -2.7289  1.4561
15017SOL     OW46491   6.934   7.395   8.031 -0.3954 -0.2128  0.0454
15017SOL    HW146492   6.901   7.379   7.942  0.5215 -0.7369 -0.2108
15017SOL    HW246493   7.004   7.331   8.043 -0.5607 -0.2023  1.1850
15018SOL     OW46494   2.364   1.841   8.146 -0.6192 -0.3331  0.3298
15018SOL    HW146495   2.348   1.828   8.239  3.4522 -1.9975  0.9973
15018SOL    HW246496   2.414   1.922   8.141 -4.2425  2.0764 -1.0640
15019SOL     OW46497   6.150   5.636   7.622  0.6784  0.7821  0.7411
15019SOL    HW146498   6.225   5.584   7.652 -0.5715 -2.2195 -0.9003
15019SOL    HW246499   6.076   5.605   7.674 -0.4869 -0.7129 -1.6317
15020SOL     OW46500   0.069   6.237   2.728 -0.0480  0.3848 -0.5022
15020SOL    HW146501   0.106   6.173   2.667 -0.7370  1.8908 -2.5926
15020SOL    HW246502   0.143   6.263   2.783  1.0072  0.1437 -1.7405
15021SOL     OW46503   5.570   6.069   7.760 -0.1377 -0.4910 -0.2380
15021SOL    HW146504   5.522   6.015   7.697 -1.3226 -0.6932  0.7822
15021SOL    HW246505   5.643   6.013   7.789 -2.2671 -2.3405  2.0319
15022SOL     OW46506   6.524   6.559  11.920  0.0492  0.5917  0.1805
15022SOL    HW146507   6.562   6.625  11.977  2.7468  0.6195 -1.4527
15022SOL    HW246508   6.503   6.606  11.840 -0.0351 -0.1093 -0.2181
15023SOL     OW46509   2.937   1.333   9.940 -0.0176  0.8911  0.3635
15023SOL    HW146510   2.865   1.273   9.925 -0.0617  0.1554  3.0554
15023SOL    HW246511   2.909   1.415   9.898 -1.4081  0.0083 -0.5039
15024SOL     OW46512   7.209   3.386   6.777 -0.1419 -0.3208 -0.2648
15024SOL    HW146513   7.288   3.334   6.788  0.2476 -0.5401 -3.3189
15024SOL    HW246514   7.220   3.460   6.837  1.6501 -1.1391  0.4555
15025SOL     OW46515   7.790   2.866   0.766 -0.4130 -0.3983 -0.4719
15025SOL    HW146516   7.824   2.866   0.677  0.6751 -0.3169 -0.0667
15025SOL    HW246517   7.776   2.959   0.786 -0.8439 -0.4277 -0.6158
15026SOL     OW46518   6.966   1.419  11.007  0.2173  0.5420  0.2059
15026SOL    HW146519   6.978   1.511  10.986  2.5533  0.0202 -1.1450
15026SOL    HW246520   6.894   1.390  10.951  0.6680  1.1723 -0.7294
15027SOL     OW46521   3.801   3.496   1.403 -0.1702  0.2196 -0.0037
15027SOL    HW146522   3.874   3.439   1.429 -0.1534 -0.8240 -2.0958
15027SOL    HW246523   3.836   3.584   1.409  0.4998 -0.1003  1.2563
15028SOL     OW46524   1.726   5.812   7.497 -0.0837  0.2987  0.6122
15028SOL    HW146525   1.709   5.721   7.524 -2.3232  0.8206  1.1672
15028SOL    HW246526   1.707   5.864   7.575 -1.7961  1.4541 -0.5180
15029SOL     OW46527   1.718   2.028   6.066  0.0134  0.3228  0.1332
15029SOL    HW146528   1.755   1.972   6.134  0.2390  2.4426  1.8302
15029SOL    HW246529   1.795   2.063   6.020 -0.1249 -1.8197 -1.9965
15030SOL     OW46530   2.612   5.621   2.837 -0.0666  0.5345  0.0292
15030SOL    HW146531   2.574   5.704   2.863  1.1812  1.2005 -0.1917
15030SOL    HW246532   2.664   5.593   2.912  0.0928  0.3216 -0.1574
15031SOL     OW46533   2.898   0.380   6.642  0.1477 -0.0408  0.2426
15031SOL    HW146534   2.961   0.325   6.689 -2.0589  0.1548  3.8715
15031SOL    HW246535   2.824   0.323   6.624  0.4098  0.2444 -2.0214
15032SOL     OW46536   0.847   3.099  10.574  0.5065  0.0346 -0.4354
15032SOL    HW146537   0.792   3.120  10.499  0.6124  0.6310 -0.3552
15032SOL    HW246538   0.928   3.065  10.536  0.3664 -0.1463 -0.5736
15033SOL     OW46539   3.661   4.607   7.173  0.1443 -0.2299 -0.3588
15033SOL    HW146540   3.671   4.522   7.216  2.3831 -0.4795 -1.2418
15033SOL    HW246541   3.566   4.616   7.160 -0.4302 -1.2181  2.3518
15034SOL     OW46542   5.887   4.387  10.271  0.2936  0.0816 -0.2552
15034SOL    HW146543   5.981   4.403  10.282  0.1776 -0.1159  1.1253
15034SOL    HW246544   5.845   4.469  10.296 -0.0131 -0.5971  1.5711
15035SOL     OW46545   6.892   3.016   0.520 -0.1526  0.1420  0.3989
15035SOL    HW146546   6.873   3.022   0.614 -0.5182  0.2451  0.3189
15035SOL    HW246547   6.890   3.106   0.489  1.2194  0.2452  0.5262
15036SOL     OW46548   1.051   1.907  11.944 -1.0969  0.5569  0.2048
15036SOL    HW146549   1.119   1.856  11.899  0.2387  0.4772  2.1645
15036SOL    HW246550   0.983   1.920  11.879 -0.1858 -1.2817 -1.1995
15037SOL     OW46551   1.276   0.682   3.073  0.0341 -0.6710 -0.1658
15037SOL    HW146552   1.239   0.765   3.044  0.8682 -0.0364  0.5332
15037SOL    HW246553   1.365   0.681   3.038  1.1974  0.2599  2.4802
15038SOL     OW46554   6.715   0.209   8.209  0.0262 -0.5094 -0.3200
15038SOL    HW146555   6.683   0.194   8.298 -2.4423  4.4749 -0.0398
15038SOL    HW246556   6.639   0.197   8.153 -0.0101  2.0811 -0.9252
15039SOL     OW46557   0.322   5.016   5.228 -0.2576  0.2430 -0.2286
15039SOL    HW146558   0.306   5.108   5.208 -1.1657  0.1026 -0.1650
15039SOL    HW246559   0.262   4.996   5.299  1.0372  0.0066  0.8459
15040SOL     OW46560   4.805   0.114   4.339  0.1984 -0.2452  0.2950
15040SOL    HW146561   4.879   0.100   4.281 -1.2161 -0.1865 -1.6433
15040SOL    HW246562   4.783   0.207   4.328 -0.7076 -0.4665  0.0760
15041SOL     OW46563   2.298   5.557  12.063  0.1100 -1.1318 -0.4698
15041SOL    HW146564   2.328   5.645  12.083 -1.8827 -0.7277  1.0684
15041SOL    HW246565   2.204   5.558  12.083  0.0194 -3.5884 -0.4294
15042SOL     OW46566   3.138   6.203   2.788  0.0871 -0.5794  0.1026
15042SOL    HW146567   3.188   6.121   2.793 -0.1915 -0.7245  0.6663
15042SOL    HW246568   3.089   6.205   2.870 -0.5645 -0.2638 -0.2886
15043SOL     OW46569   6.215   0.303   7.256 -0.0344  0.0437 -0.4711
15043SOL    HW146570   6.248   0.213   7.251  3.3399  1.1755 -2.9790
15043SOL    HW246571   6.209   0.322   7.350  1.7191 -2.0030  0.1323
15044SOL     OW46572   5.525   6.576   0.442 -0.6545 -0.0263  0.2575
15044SOL    HW146573   5.552   6.559   0.532  0.2430  1.0852  0.2151
15044SOL    HW246574   5.600   6.548   0.389  0.1402  2.2504  0.0816
15045SOL     OW46575   4.421   3.769   8.050  0.7497  0.1255 -0.3046
15045SOL    HW146576   4.498   3.800   8.098  0.1558  0.9589  0.1193
15045SOL    HW246577   4.347   3.810   8.094 -0.1964 -2.6814  0.9599
15046SOL     OW46578   6.431   3.653   9.860 -0.6492  0.1665  0.2162
15046SOL    HW146579   6.394   3.740   9.845 -1.2723 -0.0352  0.5654
15046SOL    HW246580   6.499   3.667   9.926 -1.8687  0.1408  1.5127
15047SOL     OW46581   0.020   7.272   6.776  0.6220 -0.3476  0.5998
15047SOL    HW146582   0.062   7.299   6.857  0.4063 -1.5856  1.1530
15047SOL    HW246583   0.034   7.177   6.773 -0.8485 -0.5596  0.0476
15048SOL     OW46584   2.991   4.657   8.189  0.7097 -0.2777 -0.5169
15048SOL    HW146585   3.061   4.596   8.212  0.8496  0.4923  1.2478
15048SOL    HW246586   3.036   4.734   8.156  0.5362 -1.0044 -2.6056
15049SOL     OW46587   5.635   6.020   6.901 -0.4554  0.2723  0.4271
15049SOL    HW146588   5.656   6.113   6.913  0.0408  0.2115  0.0746
15049SOL    HW246589   5.711   5.984   6.855 -2.2003  0.5012 -2.9282
15050SOL     OW46590   6.675   0.608   9.348  0.3612 -0.0260 -1.0684
15050SOL    HW146591   6.765   0.628   9.372  0.1919 -0.7369  0.2828
15050SOL    HW246592   6.649   0.679   9.290  1.8175  0.1348 -1.5636
15051SOL     OW46593   3.952   3.705   0.394  0.4552 -0.2770 -0.5756
15051SOL    HW146594   3.903   3.738   0.470 -0.1076  0.3466 -1.1915
15051SOL    HW246595   4.034   3.672   0.431  0.9813  1.6574  0.1309
15052SOL     OW46596   5.919   6.432  11.453  0.6295 -0.1116 -0.1308
15052SOL    HW146597   5.837   6.475  11.478  2.2454  2.6127  0.9391
15052SOL    HW246598   5.898   6.339  11.454 -3.1122  0.4988 -2.4595
15053SOL     OW46599   2.367   0.261  11.886  0.1900 -0.3629  0.2930
15053SOL    HW146600   2.428   0.287  11.817  0.8836  1.7506  1.5976
15053SOL    HW246601   2.420   0.211  11.948  0.6263  1.2194  1.2753
15054SOL     OW46602   0.431   3.326   3.384 -0.3420 -0.8416 -0.5155
15054SOL    HW146603   0.446   3.320   3.290 -0.2816 -1.2650 -0.4796
15054SOL    HW246604   0.518   3.342   3.421 -0.4677  0.0934 -0.5897
15055SOL     OW46605   3.475   7.891  11.148  0.5256 -0.4066 -0.5171
15055SOL    HW146606   3.474   7.911  11.054 -2.9101  0.5570 -0.3825
15055SOL    HW246607   3.384   7.872  11.170  1.5650 -2.9103  2.2299
15056SOL     OW46608   4.085   4.572   8.956 -0.0249 -0.1362 -0.0017
15056SOL    HW146609   3.990   4.581   8.948  0.0372  0.9769  0.3376
15056SOL    HW246610   4.103   4.481   8.931 -1.2017 -0.4340  0.1894
15057SOL     OW46611   0.794   6.983   7.823  0.7299  0.1700 -0.3679
15057SOL    HW146612   0.724   7.036   7.860  1.3511 -0.4999  1.9405
15057SOL    HW246613   0.752   6.931   7.754 -0.6930  0.8549 -0.0484
15058SOL     OW46614   0.157   5.014  11.938 -0.4419 -0.0224 -0.0209
15058SOL    HW146615   0.171   4.920  11.927 -0.1495  0.1818 -1.4931
15058SOL    HW246616   0.169   5.028  12.032  2.2344 -1.0569 -0.1050
15059SOL     OW46617   2.541   6.379   2.246  0.1082  0.0149  0.3635
15059SOL    HW146618   2.572   6.447   2.305  2.1397 -0.1377 -0.4350
15059SOL    HW246619   2.598   6.304   2.265 -0.2257 -0.5256 -0.7233
15060SOL     OW46620   1.684   0.254   9.640 -0.4861  0.4200  0.2867
15060SOL    HW146621   1.643   0.174   9.607 -0.2338 -0.2158  1.4494
15060SOL    HW246622   1.778   0.239   9.628 -0.4152  0.3542  0.8829
15061SOL     OW46623   2.519   1.200   4.264  0.2549 -0.5193  0.5431
15061SOL    HW146624   2.493   1.203   4.356  1.6295 -0.2381  0.9484
15061SOL    HW246625   2.515   1.107   4.242 -0.4754 -0.5454  0.7588
15062SOL     OW46626   5.506   6.713   9.538  0.7558 -0.3552 -0.1233
15062SOL    HW146627   5.436   6.666   9.493  0.4367 -0.8725  0.8707
15062SOL    HW246628   5.459   6.768   9.602  1.0340  2.1455 -1.9387
15063SOL     OW46629   3.582   7.786   5.562 -0.4255  0.8878 -0.2959
15063SOL    HW146630   3.570   7.879   5.579 -0.5181  0.6688  0.9693
15063SOL    HW246631   3.561   7.744   5.645 -1.8364 -0.3940 -1.2354
15064SOL     OW46632   1.105   6.602   2.915 -0.0602 -0.2560 -0.2598
15064SOL    HW146633   1.050   6.557   2.851  0.3135 -1.8927  0.5169
15064SOL    HW246634   1.067   6.579   2.999 -0.6087  1.9477  0.1758
15065SOL     OW46635   1.281   5.960   4.525  0.3246 -0.0121 -0.0929
15065SOL    HW146636   1.271   6.021   4.598 -2.2981  0.4025 -0.6926
15065SOL    HW246637   1.213   5.895   4.538  0.5467 -0.5814 -1.5542
15066SOL     OW46638   6.468   7.075  10.143 -0.0516  0.0183 -0.4691
15066SOL    HW146639   6.389   7.023  10.129  1.0098 -1.6814 -0.5050
15066SOL    HW246640   6.528   7.046  10.075  0.0921  2.4788 -1.4990
15067SOL     OW46641   5.428   3.809   1.162 -0.3344 -0.7087  0.0106
15067SOL    HW146642   5.391   3.747   1.225  0.0655  0.5438  1.5573
15067SOL    HW246643   5.490   3.757   1.111  0.3996 -1.4886  1.6232
15068SOL     OW46644   2.532   4.188   6.785 -0.0730 -0.2981 -0.2194
15068SOL    HW146645   2.520   4.094   6.774  0.6088 -0.1975 -2.3810
15068SOL    HW246646   2.499   4.226   6.704  2.7379  0.9921 -0.8968
15069SOL     OW46647   0.417   1.434   7.133 -0.5486 -0.3129  0.0595
15069SOL    HW146648   0.348   1.397   7.079 -0.6270  0.8951 -0.6824
15069SOL    HW246649   0.435   1.520   7.095  1.0851 -0.4381  0.4720
15070SOL     OW46650   4.719   6.667   9.976  0.3889 -0.6066  0.1456
15070SOL    HW146651   4.626   6.690   9.970  0.7174  0.5482 -1.0009
15070SOL    HW246652   4.758   6.736  10.029  0.5967 -1.0949  0.6324
15071SOL     OW46653   6.962   6.386   4.593  0.5496 -0.0581  0.1244
15071SOL    HW146654   6.995   6.329   4.524 -1.5314 -0.8889 -0.2693
15071SOL    HW246655   6.867   6.369   4.595  0.2358  1.5411  1.7187
15072SOL     OW46656   3.148   3.587   5.637  0.1015  0.4962  0.0189
15072SOL    HW146657   3.159   3.609   5.545 -0.8406  2.1093  0.2578
15072SOL    HW246658   3.233   3.609   5.677  0.7220 -0.7969 -0.5346
15073SOL     OW46659   2.135   3.489   0.357  0.2445  0.2350 -0.5215
15073SOL    HW146660   2.193   3.439   0.415 -0.6956  2.0229  2.1064
15073SOL    HW246661   2.195   3.547   0.310  0.8715 -0.0468 -0.0998
15074SOL     OW46662   4.399   1.713   7.828  0.6767  0.2519 -0.7150
15074SOL    HW146663   4.396   1.669   7.913  0.5916  1.2420 -0.1885
15074SOL    HW246664   4.447   1.653   7.771 -1.2874 -1.4940 -0.6148
15075SOL     OW46665   3.228   6.866   5.872  0.6831  0.4425  0.4239
15075SOL    HW146666   3.256   6.957   5.863  0.4857  0.3243 -1.8103
15075SOL    HW246667   3.143   6.862   5.827 -0.1223 -0.5008  1.9367
15076SOL     OW46668   5.812   3.075   9.226  0.1203  0.5443 -0.0170
15076SOL    HW146669   5.903   3.097   9.243 -0.0215  0.1211  1.4379
15076SOL    HW246670   5.806   3.068   9.130  1.7926 -0.1886 -0.1082
15077SOL     OW46671   7.020   5.845   0.815  0.3436  0.1131  0.3189
15077SOL    HW146672   7.088   5.899   0.773 -0.3709  0.7190 -0.0848
15077SOL    HW246673   7.065   5.803   0.888  1.2802  0.1142 -0.2313
15078SOL     OW46674   2.589   5.289  10.699 -0.2141  0.2979 -0.6150
15078SOL    HW146675   2.599   5.206  10.653 -0.3673 -0.0232 -0.0807
15078SOL    HW246676   2.590   5.265  10.792  1.7772  1.1142 -0.3846
15079SOL     OW46677   7.853   7.457   8.645 -0.3157 -0.5397 -0.0150
15079SOL    HW146678   7.869   7.533   8.701 -1.2171  0.1306 -0.6458
15079SOL    HW246679   7.886   7.383   8.696  1.8421  0.3908  0.0583
15080SOL     OW46680   5.006   3.496   2.007  0.1371 -0.1224 -0.6553
15080SOL    HW146681   4.924   3.541   1.985  1.1808  1.6152 -1.2065
15080SOL    HW246682   5.061   3.564   2.045  0.7758 -1.6186  1.2509
15081SOL     OW46683   1.214   5.780   5.445  0.3466  0.0404 -0.2657
15081SOL    HW146684   1.150   5.711   5.464  0.2237  0.1997 -0.0965
15081SOL    HW246685   1.269   5.784   5.524 -0.0840  0.6164  0.0144
15082SOL     OW46686   7.196   4.882   5.438  0.0267 -0.1476  0.6506
15082SOL    HW146687   7.257   4.904   5.508  0.6496  0.2245  0.0026
15082SOL    HW246688   7.110   4.905   5.473  0.2213 -0.9036  1.6613
15083SOL     OW46689   1.233   1.400   7.367  0.2918 -0.1769  0.8226
15083SOL    HW146690   1.263   1.404   7.276  2.4369 -2.9955  1.2694
15083SOL    HW246691   1.238   1.490   7.398 -0.8274  0.9309 -1.8807
15084SOL     OW46692   2.904   2.596   2.124 -0.1086  0.4163 -0.0126
15084SOL    HW146693   2.854   2.595   2.205  0.1012  1.7957  0.1721
15084SOL    HW246694   2.841   2.622   2.057 -0.2838 -0.7263 -0.3041
15085SOL     OW46695   1.753   0.282   0.660  0.0330 -0.9836  0.0312
15085SOL    HW146696   1.838   0.253   0.694 -0.6974 -2.3706  0.7360
15085SOL    HW246697   1.768   0.372   0.633  1.4523 -0.8446  1.1613
15086SOL     OW46698   4.302   7.098   4.737 -0.1554  0.2334  0.6045
15086SOL    HW146699   4.391   7.130   4.748 -0.0250 -0.5609  2.1005
15086SOL    HW246700   4.303   7.011   4.776 -1.3562 -0.1940 -0.2410
15087SOL     OW46701   6.751   7.938   1.808  0.5887 -0.7517 -0.1043
15087SOL    HW146702   6.785   7.896   1.887 -0.0700  3.4519  2.7743
15087SOL    HW246703   6.809   8.013   1.794 -1.3592  0.6237 -1.3945
15088SOL     OW46704   1.543   2.612   8.452  0.1556 -0.2373  0.1352
15088SOL    HW146705   1.593   2.588   8.374  0.4512  0.3740  0.1297
15088SOL    HW246706   1.592   2.685   8.490 -0.2158 -0.2570  0.6635
15089SOL     OW46707   4.187   6.213   7.805 -0.2618  0.6178 -0.1300
15089SOL    HW146708   4.251   6.141   7.805 -0.5804  0.3191 -0.8356
15089SOL    HW246709   4.239   6.292   7.791 -0.0840  0.3173 -1.3265
15090SOL     OW46710   7.464   6.872   8.795  0.3971 -0.2247  0.0794
15090SOL    HW146711   7.521   6.946   8.816  1.0358  0.1132 -2.4851
15090SOL    HW246712   7.410   6.903   8.722 -0.6502 -1.6710  0.1900
15091SOL     OW46713   4.330   4.012   5.240 -0.1766  0.8869 -0.1384
15091SOL    HW146714   4.420   3.984   5.224  0.2048  1.4280  0.9662
15091SOL    HW246715   4.300   4.046   5.156  0.7217  0.9104 -0.4615
15092SOL     OW46716   1.878   6.849   7.940 -0.1448  0.7599 -0.1731
15092SOL    HW146717   1.819   6.890   7.877  1.3191  1.1155 -1.4023
15092SOL    HW246718   1.834   6.858   8.024 -2.0150  0.6014 -1.0754
15093SOL     OW46719   4.060   1.364  11.564 -0.0287 -0.0993 -0.2314
15093SOL    HW146720   3.964   1.362  11.569 -0.1751  2.1352 -0.9369
15093SOL    HW246721   4.085   1.274  11.545 -1.8723 -1.0217  1.3512
15094SOL     OW46722   3.915   4.347   7.163 -0.6852  0.1655  0.3350
15094SOL    HW146723   3.957   4.432   7.178  0.1065 -0.3684  1.2517
15094SOL    HW246724   3.937   4.325   7.072 -0.1475  0.5286  0.3770
15095SOL     OW46725   1.272   5.880   1.509 -0.2324 -0.1120 -0.0819
15095SOL    HW146726   1.364   5.907   1.501 -0.3639  1.0420  1.7427
15095SOL    HW246727   1.253   5.835   1.427  1.2565  1.7728 -1.5616
15096SOL     OW46728   4.816   1.411   6.321 -0.0909  0.2941 -0.1542
15096SOL    HW146729   4.896   1.452   6.354  0.8434 -1.2961 -0.2959
15096SOL    HW246730   4.755   1.483   6.310  1.0990  1.4801  0.6046
15097SOL     OW46731   5.410   0.147   2.904  0.3153  0.3698 -0.5804
15097SOL    HW146732   5.390   0.053   2.913  1.2420  0.2001 -0.2513
15097SOL    HW246733   5.497   0.157   2.941 -0.7176  1.8096  1.6890
15098SOL     OW46734   3.053   2.672   4.927 -0.0732 -0.1929 -0.1679
15098SOL    HW146735   3.113   2.735   4.967 -0.2091  1.0544 -1.8285
15098SOL    HW246736   2.966   2.711   4.938 -0.6187 -1.8013  1.8746
15099SOL     OW46737   7.460   2.113   7.255  0.4658  0.0693  0.0799
15099SOL    HW146738   7.383   2.091   7.203  0.2001  1.0088  0.0519
15099SOL    HW246739   7.526   2.050   7.228 -0.5981 -1.4941  0.9181
15100SOL     OW46740   2.548   0.921   4.237 -0.0391 -0.5139 -0.0724
15100SOL    HW146741   2.497   0.877   4.306 -2.1788  0.8966 -0.6621
15100SOL    HW246742   2.519   0.879   4.156  1.0909 -0.8998 -0.2884
15101SOL     OW46743   0.471   2.782   1.485 -0.1067  0.1333  0.4760
15101SOL    HW146744   0.509   2.697   1.506  0.2669  0.6316  1.9326
15101SOL    HW246745   0.378   2.765   1.473  0.1625 -0.6923 -0.6365
15102SOL     OW46746   0.957   7.120   2.075  0.6268 -0.0392 -0.0097
15102SOL    HW146747   1.010   7.160   2.006 -0.9385  0.8911 -0.7094
15102SOL    HW246748   0.984   7.028   2.076  1.4529  0.1739 -1.0865
15103SOL     OW46749   1.311   6.096   6.337  0.6640  0.0279 -0.1311
15103SOL    HW146750   1.235   6.124   6.389 -0.6075 -4.5947  0.9732
15103SOL    HW246751   1.282   6.104   6.246 -0.6513 -0.3450  0.2332
15104SOL     OW46752   0.502   1.142   4.690  0.4737  0.2032 -0.3991
15104SOL    HW146753   0.489   1.069   4.751 -1.5136  0.5879 -0.2993
15104SOL    HW246754   0.588   1.125   4.651  0.6109 -1.5133  0.5266
15105SOL     OW46755   6.304   5.234   6.335  0.5107  0.5219 -0.0212
15105SOL    HW146756   6.298   5.243   6.430  0.6127 -0.0855  0.0465
15105SOL    HW246757   6.397   5.234   6.316  0.4940  3.0354 -0.3790
15106SOL     OW46758   4.176   4.097   2.143  0.2005  0.1802  0.5873
15106SOL    HW146759   4.194   4.135   2.057 -1.1982  0.9739  0.6074
15106SOL    HW246760   4.238   4.025   2.151 -0.0809 -0.3412 -1.3708
15107SOL     OW46761   5.820   4.969  12.394 -0.7768  0.2018 -0.8075
15107SOL    HW146762   5.892   5.020  12.356  0.2083 -0.5758 -0.0305
15107SOL    HW246763   5.836   4.972  12.489 -1.3119 -0.6618 -0.6841
15108SOL     OW46764   0.035   1.689   4.098 -0.6583  0.2595 -0.4748
15108SOL    HW146765  -0.044   1.681   4.152  1.1596 -0.4495  2.3276
15108SOL    HW246766   0.005   1.731   4.017 -3.7196  0.7878  0.7860
15109SOL     OW46767   3.889   4.401  10.071  0.0923 -0.2934 -0.3400
15109SOL    HW146768   3.930   4.379   9.988  0.2060 -1.3482 -0.0147
15109SOL    HW246769   3.963   4.415  10.131  0.0304  1.0880 -0.5448
15110SOL     OW46770   3.283   0.802  11.989 -0.0850  0.5506 -0.4494
15110SOL    HW146771   3.268   0.774  11.899  0.0364 -0.5663 -0.1276
15110SOL    HW246772   3.306   0.722  12.036  0.8298  1.2740  0.3711
15111SOL     OW46773   0.716   1.898   1.314 -0.3066 -0.2356  0.1081
15111SOL    HW146774   0.667   1.820   1.339 -2.8228  1.2222  0.0706
15111SOL    HW246775   0.680   1.923   1.229  0.6234  0.8230  0.0002
15112SOL     OW46776   3.281   6.624  11.218 -0.3318 -0.5231 -0.3993
15112SOL    HW146777   3.358   6.680  11.221 -0.2335 -0.6808  0.4140
15112SOL    HW246778   3.245   6.629  11.307 -0.1042 -2.0438 -0.1985
15113SOL     OW46779   1.472   1.767   2.562  0.2391  0.2209 -0.0294
15113SOL    HW146780   1.522   1.735   2.636 -0.3854  1.7278  1.0977
15113SOL    HW246781   1.538   1.793   2.498  0.8135 -0.2107  0.3804
15114SOL     OW46782   5.023   6.056   8.978 -0.0525 -0.4735  0.3335
15114SOL    HW146783   5.074   6.108   9.040  1.4799  2.1799 -2.8531
15114SOL    HW246784   5.089   6.009   8.927 -1.0335 -0.4060 -1.0466
15115SOL     OW46785   7.243   2.798   7.052 -0.3692  0.4482  0.4475
15115SOL    HW146786   7.235   2.730   7.119 -0.7511  0.5706  0.5300
15115SOL    HW246787   7.184   2.867   7.081  0.1005  0.8673  0.4264
15116SOL     OW46788   2.936   3.335   5.494 -0.5864  0.0801  0.5336
15116SOL    HW146789   2.929   3.314   5.587 -2.3750 -0.3178  0.3472
15116SOL    HW246790   2.911   3.427   5.487 -1.5814 -0.1953  0.3340
15117SOL     OW46791   6.585   5.612  10.395  0.1470  0.2048 -0.6303
15117SOL    HW146792   6.599   5.518  10.401 -2.3268 -0.2431 -0.9792
15117SOL    HW246793   6.562   5.627  10.303 -0.3579  1.0166 -0.3788
15118SOL     OW46794   1.084   0.299   1.914  0.3932  0.3522 -0.1893
15118SOL    HW146795   1.058   0.306   2.006 -0.2794 -1.4772 -0.2062
15118SOL    HW246796   1.110   0.208   1.903  0.5442  0.5639 -1.8006
15119SOL     OW46797   1.443   6.581   7.039  0.2474  0.0314  0.2567
15119SOL    HW146798   1.502   6.657   7.044 -0.6788  0.9162 -1.4556
15119SOL    HW246799   1.460   6.543   6.952 -2.1349  0.7069 -0.5682
15120SOL     OW46800   5.494   7.078   9.422 -0.1234 -0.0598  0.1043
15120SOL    HW146801   5.590   7.083   9.426 -0.0651 -0.9400 -0.0028
15120SOL    HW246802   5.470   7.136   9.350  0.3561 -0.0578 -0.0584
15121SOL     OW46803   2.443   5.783  12.127 -0.9710  0.6653  0.1408
15121SOL    HW146804   2.461   5.814  12.216 -1.7554  2.0623 -0.1702
15121SOL    HW246805   2.526   5.796  12.081 -0.4507 -0.3933  0.7261
15122SOL     OW46806   4.250   0.263  12.169  0.3176  0.3797 -0.1031
15122SOL    HW146807   4.292   0.251  12.254  1.7363  0.7926 -0.7252
15122SOL    HW246808   4.305   0.213  12.108 -2.0257 -1.9682 -0.4516
15123SOL     OW46809   3.648   6.642   8.971  0.3748  0.0988 -0.2863
15123SOL    HW146810   3.593   6.657   9.048  0.8103  0.0438  0.0414
15123SOL    HW246811   3.666   6.729   8.937 -0.1744  0.1008 -0.5842
15124SOL     OW46812   0.867   4.414   8.365  0.2003  0.4526  0.0990
15124SOL    HW146813   0.858   4.412   8.460  0.5471  3.5990  0.3303
15124SOL    HW246814   0.780   4.391   8.332 -0.4084  0.9626  1.2651
15125SOL     OW46815   5.673   6.897   0.499 -0.2304  0.3872 -0.4704
15125SOL    HW146816   5.717   6.976   0.467  0.7466 -0.0550 -0.2667
15125SOL    HW246817   5.743   6.846   0.540 -0.7599 -0.8160 -1.0297
15126SOL     OW46818   6.099   5.550   3.926  0.6671 -0.1935 -0.1205
15126SOL    HW146819   6.182   5.559   3.880  0.1765  0.5349 -0.9053
15126SOL    HW246820   6.036   5.598   3.871  0.3056  1.8898  1.9776
15127SOL     OW46821   0.596   6.373   8.524 -0.2695  0.7377 -0.5959
15127SOL    HW146822   0.594   6.321   8.605 -1.2142  0.4437 -0.8056
15127SOL    HW246823   0.653   6.447   8.546  0.9967 -0.2976 -0.2530
15128SOL     OW46824   7.884   7.292   7.104 -0.1253 -0.0199 -0.1014
15128SOL    HW146825   7.916   7.334   7.184  0.7561  0.6596 -0.7964
15128SOL    HW246826   7.835   7.360   7.058 -4.3292 -1.4323  1.7396
15129SOL     OW46827   1.588   5.822   2.635 -0.0008 -0.4491  0.3404
15129SOL    HW146828   1.621   5.814   2.545  1.2298 -0.5395  0.7915
15129SOL    HW246829   1.590   5.916   2.653 -0.0924 -0.4467  0.3415
15130SOL     OW46830   1.778   1.938   3.970  0.3735 -0.1693 -0.3986
15130SOL    HW146831   1.747   1.899   4.052 -1.4704  1.1943 -0.3868
15130SOL    HW246832   1.764   1.871   3.904 -0.3058 -0.4728  0.0443
15131SOL     OW46833   2.047   1.438   8.551 -0.6687 -0.5898  0.4369
15131SOL    HW146834   2.143   1.445   8.544 -0.3289 -1.8849  2.8834
15131SOL    HW246835   2.027   1.350   8.521 -0.9469 -0.7351  1.0386
15132SOL     OW46836   2.090   4.106   4.406  0.0177 -0.4415  0.0491
15132SOL    HW146837   2.050   4.181   4.450  2.5107  1.7610 -1.1592
15132SOL    HW246838   2.143   4.063   4.474  1.2946  1.0159  0.0207
15133SOL     OW46839   2.590   7.175   6.931  0.4340  0.1587  0.4434
15133SOL    HW146840   2.550   7.089   6.943  1.8181 -0.9167 -1.9592
15133SOL    HW246841   2.517   7.236   6.928 -0.5747 -0.8819  2.2682
15134SOL     OW46842   3.118   5.733   6.382  0.0870  0.3186  0.5344
15134SOL    HW146843   3.168   5.751   6.461  0.2789  1.4803  0.1732
15134SOL    HW246844   3.071   5.652   6.401 -1.7801  1.7921  2.7630
15135SOL     OW46845   6.184   0.443   1.335  0.0569  0.6663 -0.1369
15135SOL    HW146846   6.151   0.370   1.283  0.7975  0.2992 -0.1069
15135SOL    HW246847   6.271   0.460   1.300  0.3763  0.7269  0.6622
15136SOL     OW46848   2.042   6.312   3.401 -0.0145 -0.2901 -0.4935
15136SOL    HW146849   2.062   6.305   3.307  0.2066 -0.5815 -0.4265
15136SOL    HW246850   1.996   6.231   3.422 -0.7053  0.0928 -0.5030
15137SOL     OW46851   1.704   4.757   4.592 -0.0849 -0.1491 -0.8243
15137SOL    HW146852   1.709   4.766   4.497  4.4317 -0.3509 -0.8150
15137SOL    HW246853   1.689   4.846   4.624 -1.2412 -0.0210 -1.6603
15138SOL     OW46854   4.848   1.717   8.392  0.2947  0.2812 -0.0924
15138SOL    HW146855   4.930   1.685   8.354  0.6356  0.2246  0.6812
15138SOL    HW246856   4.855   1.812   8.387  0.6570  0.2864  0.4933
15139SOL     OW46857   0.675   1.658   4.715  0.1520 -0.1218  0.1972
15139SOL    HW146858   0.680   1.599   4.790  0.5872  0.0444  0.3023
15139SOL    HW246859   0.738   1.728   4.735  0.5382 -0.2625 -0.4874
15140SOL     OW46860   4.607   7.192  10.275  0.2613  0.2840 -0.3855
15140SOL    HW146861   4.620   7.216  10.367 -0.1765 -0.5765 -0.0825
15140SOL    HW246862   4.694   7.168  10.244  0.4318  0.6967 -0.2312
15141SOL     OW46863   4.711   4.211  10.639 -0.1282 -0.5300  0.1072
15141SOL    HW146864   4.646   4.205  10.569  0.2610 -0.0349 -0.3064
15141SOL    HW246865   4.742   4.302  10.635  1.2411 -0.9824 -0.3186
15142SOL     OW46866   1.675   7.692   9.604 -0.1458 -0.2958  0.3892
15142SOL    HW146867   1.585   7.683   9.635 -0.0507 -1.1977  0.4406
15142SOL    HW246868   1.720   7.615   9.639  0.8372  0.5406  1.0225
15143SOL     OW46869   3.427   2.539   3.810  0.2819  0.2543 -0.4317
15143SOL    HW146870   3.380   2.622   3.808  1.7666  1.2203  1.4361
15143SOL    HW246871   3.424   2.507   3.720 -2.8634  0.8140 -0.6123
15144SOL     OW46872   3.137   2.861  12.089  0.7179  0.5768  0.5286
15144SOL    HW146873   3.137   2.943  12.139 -0.8372  1.0931 -0.2463
15144SOL    HW246874   3.108   2.795  12.151  0.2080  0.9512  0.6926
15145SOL     OW46875   5.207   1.177   2.729  0.4161  0.1335  0.3030
15145SOL    HW146876   5.216   1.123   2.808 -0.4606  0.3007  0.5250
15145SOL    HW246877   5.278   1.241   2.736  1.6920 -1.1613 -0.1227
15146SOL     OW46878   7.034   3.332   6.569 -0.3187  0.4975  0.4352
15146SOL    HW146879   7.107   3.359   6.625 -1.3163 -0.0653  2.0709
15146SOL    HW246880   6.963   3.311   6.629 -2.0406  1.5177 -1.1125
15147SOL     OW46881   0.340   0.074  11.061  0.0185  0.1671 -0.2233
15147SOL    HW146882   0.414   0.107  11.111 -0.8142  1.8342 -0.0270
15147SOL    HW246883   0.366  -0.014  11.034  2.3259  0.9516 -0.7168
15148SOL     OW46884   1.034   3.661   4.371 -0.5149 -0.0529  0.2473
15148SOL    HW146885   0.986   3.699   4.445 -1.1280 -0.3179 -0.0043
15148SOL    HW246886   1.116   3.710   4.368 -1.1551  1.0449  0.1220
15149SOL     OW46887   3.469   3.037  11.899  0.2310 -0.1670 -0.2723
15149SOL    HW146888   3.520   2.958  11.885  0.4791 -0.0851  0.1448
15149SOL    HW246889   3.378   3.009  11.890  0.3493 -0.2339 -1.4132
15150SOL     OW46890   2.935   3.544   8.974  0.4225 -0.5205  0.3875
15150SOL    HW146891   2.961   3.633   8.950 -0.7286 -0.4020 -0.5363
15150SOL    HW246892   2.896   3.552   9.060  3.1940 -0.6855  1.7744
15151SOL     OW46893   0.153   3.337   2.945  0.0517 -0.3747  0.1648
15151SOL    HW146894   0.112   3.253   2.922 -0.3463 -0.7143  1.9846
15151SOL    HW246895   0.179   3.374   2.860 -0.5737 -1.9071 -0.7547
15152SOL     OW46896   6.312   0.480  11.234  0.3097  0.0833  0.5575
15152SOL    HW146897   6.397   0.491  11.276  1.2727 -1.5531 -0.8154
15152SOL    HW246898   6.324   0.519  11.147  0.2681 -1.7337 -0.2964
15153SOL     OW46899   4.922   6.096   6.768 -0.2631 -0.7434  0.0590
15153SOL    HW146900   4.921   6.164   6.701  3.2696 -0.4767  0.0761
15153SOL    HW246901   4.893   6.140   6.848 -3.2390 -0.7435 -0.9000
15154SOL     OW46902   7.380   1.443   3.263  0.0652  0.5964 -0.0956
15154SOL    HW146903   7.298   1.458   3.310  0.3507 -0.2884  0.7198
15154SOL    HW246904   7.441   1.506   3.299  0.0274  0.5471  0.0562
15155SOL     OW46905   6.873   5.890  11.998  0.3585  0.2410  0.3625
15155SOL    HW146906   6.910   5.977  11.982  0.0515  0.4030  0.5236
15155SOL    HW246907   6.854   5.889  12.092 -0.8949  0.5087  0.1414
15156SOL     OW46908   0.485   2.974   3.283 -0.2285 -0.3289 -0.2277
15156SOL    HW146909   0.406   2.989   3.335 -1.5432 -1.0776 -1.9059
15156SOL    HW246910   0.498   2.879   3.286  0.4306 -0.2430 -0.2303
15157SOL     OW46911   7.630   1.750   0.447  0.3810  0.2454 -0.3651
15157SOL    HW146912   7.539   1.737   0.472  0.6750  0.7257  1.1000
15157SOL    HW246913   7.632   1.737   0.353 -1.6267  2.5750 -0.8142
15158SOL     OW46914   7.526   2.946  11.397 -0.5197  0.3483 -0.2725
15158SOL    HW146915   7.497   2.907  11.480  0.0480  0.9027  0.1918
15158SOL    HW246916   7.463   2.913  11.332 -0.4899 -0.7570  0.2280
15159SOL     OW46917   2.560   5.726   3.495  0.3584  0.0007 -0.1916
15159SOL    HW146918   2.470   5.733   3.465 -0.7377 -0.3409  2.7112
15159SOL    HW246919   2.575   5.806   3.546  0.8819 -1.0091  1.2844
15160SOL     OW46920   0.260   2.196   3.617 -0.3216 -0.6746 -0.5412
15160SOL    HW146921   0.171   2.231   3.626 -0.6345 -1.7091  0.6944
15160SOL    HW246922   0.311   2.270   3.583 -0.8633  1.1624  2.3152
15161SOL     OW46923   4.259   5.448  11.793 -0.1616 -0.4683 -0.8903
15161SOL    HW146924   4.276   5.504  11.717  2.1838 -1.3211 -1.0838
15161SOL    HW246925   4.191   5.387  11.763  0.1129 -0.2416 -2.0298
15162SOL     OW46926   2.453   2.068  11.828 -0.2523  0.5998  0.2738
15162SOL    HW146927   2.486   2.099  11.912  0.2274  0.6323  0.0728
15162SOL    HW246928   2.420   1.980  11.846  0.6174  0.2789  0.3125
15163SOL     OW46929   7.370   6.176   0.345  0.1088  0.5334  0.0889
15163SOL    HW146930   7.305   6.138   0.285 -0.0700  0.5870  0.2501
15163SOL    HW246931   7.441   6.205   0.287  0.2304 -0.0104 -0.0396
15164SOL     OW46932   1.724   2.205   4.091  0.2009  0.1649  0.0401
15164SOL    HW146933   1.687   2.156   4.164  2.2845 -0.7332  0.5645
15164SOL    HW246934   1.701   2.153   4.014 -0.4764  0.1684  0.2296
15165SOL     OW46935   7.851   4.289   6.469 -0.1030 -0.3654 -0.3055
15165SOL    HW146936   7.822   4.203   6.498  0.5810 -0.1051  1.3287
15165SOL    HW246937   7.930   4.272   6.418  0.6056 -0.6942  0.8459
15166SOL     OW46938   4.336   0.828   2.412 -0.2508 -0.2436  0.5679
15166SOL    HW146939   4.358   0.882   2.336 -1.3455 -0.1965  0.2664
15166SOL    HW246940   4.316   0.742   2.376  0.1169 -0.4765  0.9046
15167SOL     OW46941   4.583   2.412   8.209 -0.3231  0.2939 -0.0345
15167SOL    HW146942   4.505   2.464   8.225 -0.9268 -0.1922 -1.2754
15167SOL    HW246943   4.632   2.416   8.291 -1.4468  0.9412  0.6235
15168SOL     OW46944   5.519   1.494   8.284  0.2862 -0.2886  0.2669
15168SOL    HW146945   5.503   1.443   8.205  0.8186 -0.7436  0.4479
15168SOL    HW246946   5.605   1.466   8.314  0.8768  1.1786  0.0259
15169SOL     OW46947   7.915   2.144   5.946  0.0639 -0.1742 -0.3109
15169SOL    HW146948   7.993   2.129   6.000 -0.1023 -0.9461 -0.2674
15169SOL    HW246949   7.949   2.161   5.858  0.3147  0.5215 -0.0828
15170SOL     OW46950   5.859   2.277   6.918  0.2351 -0.2235  0.0946
15170SOL    HW146951   5.825   2.351   6.867  3.4666  0.2545 -1.6546
15170SOL    HW246952   5.836   2.200   6.866 -0.0279 -0.1257  0.0628
15171SOL     OW46953   7.840   5.986   1.625  0.5726  0.2955  0.1742
15171SOL    HW146954   7.920   5.990   1.573 -0.1037 -0.9835 -1.0345
15171SOL    HW246955   7.770   6.005   1.563 -0.1762 -0.2382  0.8345
15172SOL     OW46956   6.524   0.870   0.648  0.1322  0.2536  0.1149
15172SOL    HW146957   6.449   0.873   0.708  0.2131  1.4554  0.1702
15172SOL    HW246958   6.601   0.880   0.704  0.3765 -1.1423  0.0766
15173SOL     OW46959   1.126   0.091   8.081  0.2813 -0.1508 -0.5986
15173SOL    HW146960   1.172   0.143   8.148  1.4072 -1.2310 -0.5045
15173SOL    HW246961   1.163   0.003   8.089 -0.7534 -0.7003 -1.5521
15174SOL     OW46962   0.530   6.745   7.806 -0.2265  0.1737  0.1388
15174SOL    HW146963   0.490   6.662   7.781 -0.9298  0.6466 -0.3748
15174SOL    HW246964   0.619   6.741   7.772  0.2778 -0.9903  1.4914
15175SOL     OW46965   7.723   3.997   6.480 -0.0572 -0.1699  0.0093
15175SOL    HW146966   7.808   4.015   6.521  0.0129  0.5033 -0.4200
15175SOL    HW246967   7.742   3.996   6.386 -0.4242 -0.5940 -0.0621
15176SOL     OW46968   2.212   7.289   3.830 -0.1029  0.0287 -0.1083
15176SOL    HW146969   2.136   7.237   3.857 -1.1049  0.9798 -1.0382
15176SOL    HW246970   2.216   7.361   3.893 -0.7221  0.6568 -0.7729
15177SOL     OW46971   6.152   6.305  10.402 -0.1313 -0.1692  0.3597
15177SOL    HW146972   6.220   6.237  10.406 -0.0413 -0.2326 -1.2734
15177SOL    HW246973   6.092   6.283  10.472 -0.3095 -2.2071 -0.3678
15178SOL     OW46974   4.285   7.502   4.805  0.4933 -0.2792  0.6122
15178SOL    HW146975   4.373   7.466   4.806  0.7644  0.2145 -1.2427
15178SOL    HW246976   4.265   7.522   4.896  1.2780 -2.7678  1.4185
15179SOL     OW46977   7.840   0.746   4.384 -0.6798 -0.2580 -0.0077
15179SOL    HW146978   7.852   0.707   4.470 -0.4261  0.7947  0.4540
15179SOL    HW246979   7.768   0.696   4.345 -1.7120  0.0963  1.3483
15180SOL     OW46980   6.360   2.522   6.802 -0.4166 -0.1785  0.0428
15180SOL    HW146981   6.337   2.541   6.711  0.0470  0.4652  0.0523
15180SOL    HW246982   6.306   2.582   6.853 -0.9666 -0.8119  0.2188
15181SOL     OW46983   2.025   0.930   6.609 -0.2954  0.2112  0.5336
15181SOL    HW146984   2.115   0.937   6.578 -0.2791  1.7149  0.8225
15181SOL    HW246985   1.974   0.910   6.530  0.0755  1.2173  0.0254
15182SOL     OW46986   1.049   6.814   5.675 -0.5586  0.5095 -0.0452
15182SOL    HW146987   1.013   6.807   5.587  0.4113 -1.1596 -0.3410
15182SOL    HW246988   0.979   6.783   5.732 -0.4316 -0.5213 -0.4286
15183SOL     OW46989   2.100   6.254   6.087 -0.1414 -0.3746  0.0121
15183SOL    HW146990   2.184   6.249   6.042  0.5658  0.2446  1.2377
15183SOL    HW246991   2.110   6.325   6.151 -1.6060 -0.2545  0.1521
15184SOL     OW46992   0.650   4.702  11.314  0.2226 -0.5031  0.0797
15184SOL    HW146993   0.661   4.628  11.254 -1.3704 -1.7832  1.2806
15184SOL    HW246994   0.602   4.666  11.388  0.0135  1.6000  1.0326
15185SOL     OW46995   7.508   2.242   8.845  0.0285 -0.0505 -0.7928
15185SOL    HW146996   7.551   2.171   8.798  3.2922 -0.5638  2.4839
15185SOL    HW246997   7.462   2.292   8.777  0.0800 -3.4945 -3.6375
15186SOL     OW46998   2.227   7.961   6.751 -0.1331 -0.7160  0.1148
15186SOL    HW146999   2.200   7.906   6.678  0.6965 -0.7735 -0.1618
15186SOL    HW247000   2.153   7.959   6.812 -0.8163 -0.6862 -0.7067
15187SOL     OW47001   5.829   6.941   8.967 -0.0466 -0.1038 -0.5845
15187SOL    HW147002   5.924   6.941   8.975 -0.0806  0.1221 -0.1785
15187SOL    HW247003   5.797   6.979   9.049 -0.5146 -0.8649 -0.4010
15188SOL     OW47004   3.452   5.032   2.014  0.5820  0.4489 -0.0075
15188SOL    HW147005   3.486   5.022   2.103  2.4468  1.7661 -0.5183
15188SOL    HW247006   3.389   4.960   2.005  0.3119  0.2927  2.3643
15189SOL     OW47007   1.073   1.801   9.629 -0.1167 -0.3156  0.3033
15189SOL    HW147008   1.037   1.732   9.685 -0.4590 -2.4510 -2.3529
15189SOL    HW247009   1.164   1.776   9.614 -0.2409 -0.2065 -0.6923
15190SOL     OW47010   5.028   5.227   3.834 -0.3931  0.5224  0.2393
15190SOL    HW147011   5.076   5.146   3.853 -0.3521 -0.1685 -2.3998
15190SOL    HW247012   4.936   5.203   3.848 -0.3166  0.3319  0.4394
15191SOL     OW47013   3.212   2.853   6.818  0.0023  0.0298 -0.0805
15191SOL    HW147014   3.308   2.854   6.817 -0.0010  0.1441 -0.3018
15191SOL    HW247015   3.188   2.919   6.883  0.0940 -1.0596  1.0751
15192SOL     OW47016   1.806   3.989  11.544 -0.5356 -0.0995  0.1990
15192SOL    HW147017   1.859   3.915  11.514 -0.0956  0.4949 -0.5444
15192SOL    HW247018   1.719   3.971  11.508 -0.6575 -0.6804  0.7560
15193SOL     OW47019   5.057   2.172  11.090 -0.0364  0.1425  0.6466
15193SOL    HW147020   5.070   2.264  11.067 -0.0268 -0.3793 -1.6698
15193SOL    HW247021   4.965   2.156  11.071  0.3127 -0.6804 -0.4607
15194SOL     OW47022   4.994   7.085   6.816 -0.4044 -0.0456 -0.0440
15194SOL    HW147023   5.018   7.025   6.745  0.5099 -0.1607  0.3490
15194SOL    HW247024   5.044   7.165   6.796  0.6556 -0.4195  0.9930
15195SOL     OW47025   1.937   1.653   0.798  0.3315  0.1515 -0.0290
15195SOL    HW147026   1.868   1.592   0.772 -0.5658  1.7798 -1.6998
15195SOL    HW247027   1.984   1.671   0.718  2.9321 -1.0616  1.1057
15196SOL     OW47028   0.405   5.844   9.318 -0.4366 -0.0165 -0.3476
15196SOL    HW147029   0.430   5.753   9.306 -1.0934 -0.3954  0.9246
15196SOL    HW247030   0.344   5.862   9.247 -1.3609 -1.0112  0.1598
15197SOL     OW47031   1.176   0.028   0.307 -0.2183 -0.8185  0.3939
15197SOL    HW147032   1.207   0.040   0.397  1.3506 -3.7658  0.4078
15197SOL    HW247033   1.256   0.007   0.258 -1.2690 -0.9863 -1.3091
15198SOL     OW47034   0.333   0.156   0.626 -0.1231  0.5838  0.3530
15198SOL    HW147035   0.422   0.133   0.649 -0.2874  0.5401  0.9483
15198SOL    HW247036   0.281   0.132   0.702 -0.7339  0.0245 -0.2202
15199SOL     OW47037   4.008   0.857   7.651 -0.3700  0.2061 -0.1010
15199SOL    HW147038   3.964   0.852   7.566 -0.4960  1.0976 -0.0963
15199SOL    HW247039   3.959   0.922   7.700  1.3042  1.7269 -0.3342
15200SOL     OW47040   0.397   0.450   5.790 -0.0682  0.1593 -0.1033
15200SOL    HW147041   0.443   0.510   5.849 -1.1333 -0.0570  0.9794
15200SOL    HW247042   0.381   0.501   5.710  0.7768  0.6737  0.0439
15201SOL     OW47043   1.699   1.151   7.321  0.3815  0.2724 -0.0304
15201SOL    HW147044   1.747   1.080   7.363 -3.0398 -0.8822  2.3541
15201SOL    HW247045   1.678   1.119   7.234 -1.3119 -1.8380  1.0890
15202SOL     OW47046   7.859   3.097   7.050  0.2689  0.2537  0.3385
15202SOL    HW147047   7.853   3.191   7.032 -0.5139  0.3178  0.8495
15202SOL    HW247048   7.775   3.062   7.021  1.2400 -0.6207 -1.5527
15203SOL     OW47049   3.150   3.463   8.504  0.3724  0.4698 -0.2367
15203SOL    HW147050   3.184   3.435   8.589 -0.8725 -1.0851 -0.2286
15203SOL    HW247051   3.228   3.470   8.448  0.9711 -0.6245  0.4389
15204SOL     OW47052   6.968   5.109   8.859 -0.2448  0.5577 -0.4998
15204SOL    HW147053   6.944   5.112   8.767 -1.9474  1.6867 -0.0502
15204SOL    HW247054   7.046   5.054   8.861  1.0683  2.1398 -2.8754
15205SOL     OW47055   7.887   4.733   2.789 -0.0046  0.9070 -0.0003
15205SOL    HW147056   7.924   4.735   2.701  0.5178 -0.3543  0.1682
15205SOL    HW247057   7.875   4.826   2.812 -0.5182  1.2503 -1.5284
15206SOL     OW47058   7.410   4.641   2.645  0.4567  0.6712 -0.4169
15206SOL    HW147059   7.320   4.608   2.638  0.2193  1.3603 -0.6371
15206SOL    HW247060   7.436   4.620   2.735  0.1670  0.2432 -0.4289
15207SOL     OW47061   6.473   2.629   8.714 -0.4964 -0.6314  0.3345
15207SOL    HW147062   6.558   2.667   8.691  0.8424 -1.4510  3.3604
15207SOL    HW247063   6.421   2.703   8.745 -0.8099 -0.1800 -1.1895
15208SOL     OW47064   1.281   5.535   9.731 -0.1824  0.0141  0.6665
15208SOL    HW147065   1.256   5.444   9.744  0.2672 -0.3183 -0.6574
15208SOL    HW247066   1.240   5.559   9.647 -0.5140  1.1105  1.1290
15209SOL     OW47067   4.994   4.324   1.365  0.8968 -0.1039 -0.0741
15209SOL    HW147068   5.085   4.324   1.393  0.2859 -1.7472  2.2623
15209SOL    HW247069   4.967   4.232   1.371 -1.3652  0.5464  1.1695
15210SOL     OW47070   5.703   0.325   4.874 -0.7477  0.5713  0.2138
15210SOL    HW147071   5.703   0.323   4.778  2.4247 -1.5668  0.1222
15210SOL    HW247072   5.747   0.407   4.896 -1.7921  1.2365 -0.1049
15211SOL     OW47073   7.269   0.789   7.579  0.0351 -0.2513  0.1213
15211SOL    HW147074   7.300   0.723   7.641 -1.9991 -1.1481  0.2677
15211SOL    HW247075   7.241   0.739   7.503  1.1533  0.7294 -0.9878
15212SOL     OW47076   5.054   0.507   3.695 -0.3006  0.0657  0.1272
15212SOL    HW147077   4.979   0.565   3.683 -0.5529 -0.6340 -2.1422
15212SOL    HW247078   5.015   0.421   3.713 -0.0476 -0.2126 -0.6209
15213SOL     OW47079   6.600   3.480  11.883  0.1447 -0.0411 -0.2407
15213SOL    HW147080   6.629   3.483  11.974 -0.5897 -1.4783  0.0534
15213SOL    HW247081   6.626   3.566  11.847 -2.5564  1.9965  2.2104
15214SOL     OW47082   7.160   1.140   5.668 -0.5093  0.4078 -0.1839
15214SOL    HW147083   7.227   1.202   5.696 -0.7670  0.7732 -0.3704
15214SOL    HW247084   7.192   1.106   5.584 -0.2062  0.0345  0.0793
15215SOL     OW47085   0.278   3.564   4.792 -0.5305 -0.4563 -0.1638
15215SOL    HW147086   0.235   3.563   4.706  0.0066  0.6252 -0.4666
15215SOL    HW247087   0.340   3.491   4.790  0.5025  0.4047 -1.2661
15216SOL     OW47088   4.254   2.752   9.321 -0.4170 -1.0441  0.5232
15216SOL    HW147089   4.277   2.786   9.234 -1.6626  0.9173  0.8760
15216SOL    HW247090   4.325   2.692   9.344  1.1942  0.2489 -0.8283
15217SOL     OW47091   1.764   4.257   5.003  0.4058  0.5412 -0.1856
15217SOL    HW147092   1.692   4.209   5.044  1.2289  0.3545  1.0672
15217SOL    HW247093   1.805   4.305   5.074  1.8497  0.2261 -0.7714
15218SOL     OW47094   6.219   5.149  10.455 -0.4395  0.1557  0.1754
15218SOL    HW147095   6.209   5.119  10.365  0.2445 -0.3859  0.2745
15218SOL    HW247096   6.215   5.244  10.449  2.6588  0.3481 -0.8848
15219SOL     OW47097   7.664   2.572   7.280 -0.4829  0.1798 -0.4461
15219SOL    HW147098   7.592   2.629   7.307 -0.2746  0.3610 -0.2605
15219SOL    HW247099   7.732   2.588   7.345 -1.1188 -1.7427  0.7780
15220SOL     OW47100   1.017   7.391   5.394  0.3508  0.0964 -0.2352
15220SOL    HW147101   0.957   7.432   5.456 -0.3941 -0.8808 -0.2762
15220SOL    HW247102   1.046   7.311   5.438  0.7407 -0.0117 -0.6769
15221SOL     OW47103   0.592   1.904   2.977 -0.2208  0.3634 -0.0138
15221SOL    HW147104   0.541   1.829   2.947  0.4569  0.3888 -1.2919
15221SOL    HW247105   0.661   1.867   3.031  0.1122  0.0609 -0.6418
15222SOL     OW47106   6.974   5.113   1.868 -0.1963 -0.3939  0.0242
15222SOL    HW147107   7.046   5.075   1.816 -0.0633  1.7281 -1.5001
15222SOL    HW247108   6.900   5.056   1.851  0.3241 -0.7811 -1.0982
15223SOL     OW47109   4.488   5.741   5.795  0.1294 -0.5864  0.2046
15223SOL    HW147110   4.449   5.746   5.708  1.5430  1.0357 -0.3864
15223SOL    HW247111   4.415   5.758   5.855 -0.5873 -0.2547 -0.7414
15224SOL     OW47112   4.830   5.077  10.220 -0.6037  1.1144 -0.4139
15224SOL    HW147113   4.845   5.130  10.298 -1.4662  0.5085  0.1797
15224SOL    HW247114   4.768   5.010  10.248  0.4549 -0.2085 -1.1521
15225SOL     OW47115   7.809   7.014   1.457 -0.4193 -0.2878 -0.4378
15225SOL    HW147116   7.889   7.020   1.406 -0.1443  0.5315  0.0863
15225SOL    HW247117   7.783   6.922   1.450 -0.0358 -0.3231 -1.5099
15226SOL     OW47118   6.414   5.125  11.594 -0.0114 -0.0605  0.2797
15226SOL    HW147119   6.442   5.190  11.529  0.4016 -1.2579 -0.8003
15226SOL    HW247120   6.321   5.142  11.607  0.0253  0.5508 -0.2208
15227SOL     OW47121   7.404   4.655   8.064  0.3035 -0.0062  0.3733
15227SOL    HW147122   7.317   4.647   8.104  0.7833 -2.5084  1.0816
15227SOL    HW247123   7.391   4.716   7.992 -1.7442  0.6929  1.2566
15228SOL     OW47124   4.334   4.476   2.132  0.2343 -0.2298  0.2526
15228SOL    HW147125   4.322   4.438   2.219 -0.0077  2.7831  1.6814
15228SOL    HW247126   4.429   4.481   2.121  0.2727 -0.0647  0.6289
15229SOL     OW47127   6.578   6.469   2.908 -0.3304 -0.3006  0.3705
15229SOL    HW147128   6.646   6.401   2.899  0.3722 -0.4306  4.6791
15229SOL    HW247129   6.627   6.551   2.906 -0.1625 -0.3284  1.9237
15230SOL     OW47130   1.911   5.598  11.523  0.1192 -0.7862  0.2699
15230SOL    HW147131   1.848   5.613  11.593 -0.5103 -3.7884  0.4661
15230SOL    HW247132   1.871   5.637  11.446 -0.1300  0.7405  1.1300
15231SOL     OW47133   6.727   7.514   6.992  0.6247  0.2097 -0.2216
15231SOL    HW147134   6.632   7.519   6.997  0.7093  1.0952  1.0338
15231SOL    HW247135   6.756   7.605   6.984  1.4603  0.4172  3.2655
15232SOL     OW47136   0.823   3.440  12.294 -0.2053 -0.0734 -0.1280
15232SOL    HW147137   0.866   3.377  12.236 -0.0169 -0.6320  0.6061
15232SOL    HW247138   0.841   3.525  12.255  2.8128 -0.1308  0.8852
15233SOL     OW47139   0.432   6.821  10.661  0.5944 -0.5192 -0.2324
15233SOL    HW147140   0.458   6.791  10.574 -0.6108  0.5056 -0.9792
15233SOL    HW247141   0.381   6.749  10.697  1.2214 -1.0064 -0.3020
15234SOL     OW47142   2.663   5.803   9.861  0.1589 -0.1813 -0.1686
15234SOL    HW147143   2.639   5.804   9.953 -0.1961  0.2017 -0.2628
15234SOL    HW247144   2.665   5.895   9.835 -3.7489 -0.3240 -1.5481
15235SOL     OW47145   7.743   0.630  12.218  0.6387  0.1677  0.1528
15235SOL    HW147146   7.744   0.661  12.127 -0.1194 -0.1443  0.0320
15235SOL    HW247147   7.739   0.710  12.270 -0.4674  0.3172 -0.1394
15236SOL     OW47148   7.548   5.266  10.763 -0.1515  0.6060  0.2563
15236SOL    HW147149   7.538   5.277  10.857  2.5124 -1.4131  0.8664
15236SOL    HW247150   7.574   5.353  10.731  0.0556  1.0326  1.5400
15237SOL     OW47151   2.680   4.242  12.022 -0.0880 -0.0210  0.1462
15237SOL    HW147152   2.753   4.188  11.991 -1.1069 -0.7241 -1.1506
15237SOL    HW247153   2.650   4.288  11.944  1.0700  2.9150  1.2951
15238SOL     OW47154   7.286   2.787   1.997 -0.2343  0.0495  0.2551
15238SOL    HW147155   7.254   2.856   1.938 -0.3080  0.7137  1.0634
15238SOL    HW247156   7.320   2.721   1.938 -2.4074 -0.3737 -0.6494
15239SOL     OW47157   6.831   2.213   7.458  0.0194 -0.3218  0.0238
15239SOL    HW147158   6.808   2.296   7.417  2.0912  0.4163  0.2705
15239SOL    HW247159   6.758   2.195   7.518  0.9834  3.1355  2.5904
15240SOL     OW47160   4.962   2.441   6.384  0.2682 -0.3581 -0.1230
15240SOL    HW147161   4.909   2.508   6.427  1.6797  0.5339  0.3344
15240SOL    HW247162   4.969   2.471   6.293  3.9474  2.3425  0.8035
15241SOL     OW47163   7.878   2.940  11.871  0.3162  0.4319  0.1149
15241SOL    HW147164   7.856   2.996  11.796  1.9082  0.0662 -0.6811
15241SOL    HW247165   7.973   2.946  11.878  0.2139  0.4581  2.1548
15242SOL     OW47166   5.334   7.157   0.353  0.5660 -0.3130  0.3092
15242SOL    HW147167   5.414   7.192   0.313  0.4588 -0.3041  0.0983
15242SOL    HW247168   5.292   7.107   0.282  0.2336 -0.0665  0.3307
15243SOL     OW47169   7.136   4.245   0.872  0.3060  0.1384 -0.0418
15243SOL    HW147170   7.145   4.332   0.909  1.6068 -0.1025  0.2420
15243SOL    HW247171   7.060   4.251   0.814  0.6921  1.5853 -0.4243
15244SOL     OW47172   1.735   7.876  10.999  0.1452  0.0111  0.5862
15244SOL    HW147173   1.807   7.918  11.046  0.0674  1.1546 -0.2737
15244SOL    HW247174   1.672   7.946  10.985 -0.7349 -0.7751  0.5253
15245SOL     OW47175   2.124   3.046  10.229 -0.1396 -0.1192 -0.4778
15245SOL    HW147176   2.120   3.139  10.206  1.2678  0.5723  1.7161
15245SOL    HW247177   2.203   3.014  10.185  0.9057  0.4686  0.8744
15246SOL     OW47178   4.165   0.532   9.745  0.1482  0.0703  0.4642
15246SOL    HW147179   4.167   0.625   9.770 -1.1159 -0.1753  1.5753
15246SOL    HW247180   4.138   0.486   9.824  1.8833 -1.4036  0.2502
15247SOL     OW47181   2.307   0.773   6.810  0.0561 -0.0900  0.7080
15247SOL    HW147182   2.340   0.705   6.753 -1.4827  0.9087 -1.5079
15247SOL    HW247183   2.372   0.779   6.881  1.5454 -2.0117 -0.4112
15248SOL     OW47184   2.443   7.659   5.967  0.7468  0.2224  0.0389
15248SOL    HW147185   2.361   7.622   6.001  0.8011  0.6806  0.6846
15248SOL    HW247186   2.428   7.667   5.872  0.6605 -1.2192 -0.0838
15249SOL     OW47187   5.112   3.048   9.269 -0.1740 -0.7694 -0.4481
15249SOL    HW147188   5.032   3.042   9.322  0.4736 -1.0124  0.5446
15249SOL    HW247189   5.179   3.003   9.322  0.8533  0.3102 -0.7779
15250SOL     OW47190   4.933   2.785   1.043  0.2081 -0.7143 -0.0967
15250SOL    HW147191   5.025   2.803   1.057  0.3706 -1.6831  0.1673
15250SOL    HW247192   4.891   2.806   1.127  0.4406 -1.7993  0.3066
15251SOL     OW47193   1.047   6.291   3.790  0.2580 -0.0954  0.8603
15251SOL    HW147194   1.110   6.329   3.729 -1.5370  3.0875  0.7507
15251SOL    HW247195   1.071   6.198   3.795  1.4246 -0.2578 -3.5193
15252SOL     OW47196   0.248   0.808   4.189 -0.0229  0.1268 -0.7844
15252SOL    HW147197   0.169   0.822   4.137  1.1346  2.1151 -2.1536
15252SOL    HW247198   0.308   0.878   4.162  1.3302  0.1895  1.9847
15253SOL     OW47199   7.241   5.281   2.452 -0.1031  0.2880  0.1231
15253SOL    HW147200   7.187   5.211   2.487 -0.5322  1.2539  1.4925
15253SOL    HW247201   7.282   5.244   2.374 -1.1761 -1.1041  0.1928
15254SOL     OW47202   5.817   5.142  11.459  0.5617  0.4423  0.6110
15254SOL    HW147203   5.879   5.171  11.526 -0.9396  1.0613  1.7845
15254SOL    HW247204   5.832   5.203  11.386  0.2559  1.6139  1.4936
15255SOL     OW47205   1.179   4.677   3.255  0.0254  0.5599 -0.3627
15255SOL    HW147206   1.141   4.650   3.171 -0.5030  0.6055 -0.1441
15255SOL    HW247207   1.211   4.595   3.294 -1.0714  0.3053  0.0496
15256SOL     OW47208   0.567   5.989  12.226  0.2715 -0.0250 -0.4896
15256SOL    HW147209   0.662   5.975  12.217  0.5200  1.3039 -0.2540
15256SOL    HW247210   0.539   6.016  12.139  0.3607  0.8168 -0.2674
15257SOL     OW47211   2.628   7.214   7.207 -0.6116 -0.2238 -0.1720
15257SOL    HW147212   2.596   7.124   7.213 -1.2013 -0.1108 -1.3001
15257SOL    HW247213   2.642   7.228   7.113  0.3724  0.5601  0.0741
15258SOL     OW47214   5.025   2.580   1.871 -0.0151 -0.5278 -0.1798
15258SOL    HW147215   4.954   2.618   1.922  1.7224  0.4191  1.6626
15258SOL    HW247216   4.993   2.583   1.780 -1.7310  1.2145  0.3997
15259SOL     OW47217   3.952   4.884  11.500 -0.5143 -0.1817 -0.0710
15259SOL    HW147218   3.996   4.800  11.513  2.3726  1.1947  0.0201
15259SOL    HW247219   3.989   4.918  11.419 -1.5808  1.0447 -0.0758
15260SOL     OW47220   6.202   2.264  10.309  0.2853  0.1647 -0.0619
15260SOL    HW147221   6.110   2.257  10.333  0.4505  2.4645  1.6079
15260SOL    HW247222   6.229   2.174  10.290 -2.1442 -0.6266 -0.0885
15261SOL     OW47223   2.232   4.506   8.898  0.0632 -0.2750 -0.5188
15261SOL    HW147224   2.226   4.544   8.985  0.0392  0.7011 -0.9433
15261SOL    HW247225   2.325   4.490   8.884  0.2901  1.3462 -1.0511
15262SOL     OW47226   7.113   3.173   3.701 -0.2760  0.1027 -0.1843
15262SOL    HW147227   7.154   3.087   3.696  1.3237  0.8627 -4.8257
15262SOL    HW247228   7.185   3.235   3.696 -1.4861  1.8084  1.6572
15263SOL     OW47229   6.890   5.383   4.639 -0.3013  0.0042  0.1888
15263SOL    HW147230   6.961   5.343   4.690 -0.2289 -2.2927 -1.5284
15263SOL    HW247231   6.810   5.340   4.672 -0.6775  1.0671  0.6995
15264SOL     OW47232   6.432   0.760   6.144  0.3856  0.0142  0.0993
15264SOL    HW147233   6.395   0.672   6.142 -1.1537  0.6140  0.7766
15264SOL    HW247234   6.417   0.791   6.234  1.0242  0.9265 -0.0849
15265SOL     OW47235   0.705   7.820   4.471  0.1201  0.6611  0.1331
15265SOL    HW147236   0.613   7.825   4.495  0.0146  0.5272 -0.2389
15265SOL    HW247237   0.706   7.780   4.384  0.5577  0.1534  0.3559
15266SOL     OW47238   2.625   6.004   6.527  0.3582  0.1795  0.0864
15266SOL    HW147239   2.565   6.045   6.589 -1.0020 -0.5635 -0.6762
15266SOL    HW247240   2.674   5.940   6.579 -0.1635  0.1621  0.5674
15267SOL     OW47241   1.584   6.683   7.599 -0.3476 -0.1457 -0.1501
15267SOL    HW147242   1.587   6.773   7.565  1.8591 -0.0596  0.0976
15267SOL    HW247243   1.548   6.692   7.687  1.8777  0.8762  0.7389
15268SOL     OW47244   0.385   7.838  11.290 -0.4019  0.1934 -0.1264
15268SOL    HW147245   0.318   7.825  11.223 -0.5190 -3.2945  0.4599
15268SOL    HW247246   0.337   7.865  11.368 -1.1295 -1.5944  0.0950
15269SOL     OW47247   2.981   1.872   5.492 -0.0325 -0.6836  0.4112
15269SOL    HW147248   2.928   1.846   5.417  1.4884 -1.4924 -0.4368
15269SOL    HW247249   2.921   1.869   5.567 -1.0562 -1.9922 -0.4277
15270SOL     OW47250   4.302   5.037   9.305 -0.0389 -0.4189 -0.2261
15270SOL    HW147251   4.253   5.032   9.387  0.7453 -0.0196  0.2768
15270SOL    HW247252   4.243   5.081   9.244 -0.0087  0.8030  0.6069
15271SOL     OW47253   1.610   0.107   8.704  0.6697  0.0611 -0.3382
15271SOL    HW147254   1.522   0.101   8.667  1.5186 -0.3957 -2.4418
15271SOL    HW247255   1.622   0.201   8.720 -0.5692  0.0197  1.0634
15272SOL     OW47256   4.329   7.241   9.692  0.1023 -0.4467 -0.0272
15272SOL    HW147257   4.335   7.310   9.758 -0.7349  0.7655 -1.1821
15272SOL    HW247258   4.413   7.244   9.646 -0.0558  0.0402 -0.2906
15273SOL     OW47259   7.690   2.209  12.068  0.5985 -0.0028  0.0750
15273SOL    HW147260   7.736   2.289  12.044 -0.3386  0.8111  0.9098
15273SOL    HW247261   7.597   2.231  12.062  0.3230 -0.7121  1.2772
15274SOL     OW47262   6.280   3.031   4.638 -0.1617  0.4070 -0.7130
15274SOL    HW147263   6.235   3.032   4.722  0.0286 -1.0951 -0.5728
15274SOL    HW247264   6.209   3.031   4.573 -0.3294  0.3207 -0.5311
15275SOL     OW47265   6.439   3.978   9.035  0.5492  0.1053 -0.0758
15275SOL    HW147266   6.344   3.991   9.025  0.7242  0.1011 -2.4312
15275SOL    HW247267   6.474   4.064   9.055  0.1008  0.2059  0.2811
15276SOL     OW47268   6.013   3.326   7.047 -0.0184 -0.0811  0.3076
15276SOL    HW147269   6.097   3.320   7.093 -1.0563  0.6878  2.4514
15276SOL    HW247270   6.014   3.252   6.986  1.2548 -1.5034  1.9342
15277SOL     OW47271   6.650   2.727   5.792  0.3841 -0.1691  0.8875
15277SOL    HW147272   6.592   2.793   5.831  0.1433  0.2409 -0.1422
15277SOL    HW247273   6.591   2.666   5.748  0.7091  0.2112 -0.1023
15278SOL     OW47274   0.923   5.934  10.339 -0.4096 -0.2413 -0.4344
15278SOL    HW147275   0.887   5.949  10.426 -1.1742  0.3385 -0.8382
15278SOL    HW247276   0.933   5.839  10.333  1.3225 -0.1817  0.9265
15279SOL     OW47277   3.034   3.645   1.337 -0.0756 -0.3704  0.2458
15279SOL    HW147278   3.056   3.701   1.411  1.6495 -1.4965  0.6472
15279SOL    HW247279   2.982   3.701   1.279 -0.9082  0.7213  1.9854
15280SOL     OW47280   4.513   3.885   5.469  0.4020 -0.4544 -0.3530
15280SOL    HW147281   4.493   3.829   5.544  0.2733 -1.1022 -0.8751
15280SOL    HW247282   4.609   3.893   5.470  0.2949  1.6754  1.4271
15281SOL     OW47283   3.757   2.841   6.838 -0.0582  0.1796  0.6006
15281SOL    HW147284   3.724   2.836   6.748  1.1215  0.6428  0.1262
15281SOL    HW247285   3.729   2.927   6.868  1.9823  1.2274 -0.3457
15282SOL     OW47286   0.471   6.867   5.981  0.3839 -0.0461  0.7065
15282SOL    HW147287   0.527   6.797   5.948  1.8059  1.2956  0.1747
15282SOL    HW247288   0.475   6.857   6.077  2.4462  0.6579  0.7395
15283SOL     OW47289   7.480   0.775   4.930 -0.6737 -0.3966  0.7248
15283SOL    HW147290   7.416   0.705   4.934 -0.6349 -0.4821 -0.0089
15283SOL    HW247291   7.514   0.783   5.019  0.8416 -2.7191  0.4407
15284SOL     OW47292   1.176   4.253   7.293 -0.2040 -0.3265 -0.0295
15284SOL    HW147293   1.258   4.205   7.303 -0.2622 -0.2186  1.0546
15284SOL    HW247294   1.172   4.311   7.370 -1.3556 -0.4221  0.0045
15285SOL     OW47295   3.926   3.479  10.573  0.3395  0.5919 -1.1084
15285SOL    HW147296   3.838   3.510  10.552  0.6622  1.1133 -1.7117
15285SOL    HW247297   3.968   3.465  10.488  0.4466 -0.8439 -0.8576
15286SOL     OW47298   0.089   0.855   9.423 -0.3859 -0.2568 -0.3477
15286SOL    HW147299   0.168   0.897   9.457  0.3909  0.6285 -3.0084
15286SOL    HW247300   0.019   0.887   9.480  0.7003  1.7320 -0.0398
15287SOL     OW47301   5.027   0.795  11.395 -1.0525  0.1812 -0.3745
15287SOL    HW147302   5.015   0.745  11.476  0.0681  1.8292  0.8973
15287SOL    HW247303   4.939   0.822  11.370 -1.3423  0.4903  0.8999
15288SOL     OW47304   2.442   5.232  10.364 -0.2005  0.1083  0.2151
15288SOL    HW147305   2.526   5.189  10.347  0.3636  0.1946  2.4767
15288SOL    HW247306   2.377   5.165  10.345  0.4096 -0.2165 -0.8045
15289SOL     OW47307   1.353   0.300  11.700 -0.3115 -0.8335  0.5556
15289SOL    HW147308   1.302   0.226  11.670  0.5621 -1.6119  0.9351
15289SOL    HW247309   1.377   0.347  11.620 -0.2632 -1.3767  0.2477
15290SOL     OW47310   0.122   6.111  12.131 -0.3694  0.3289  0.5882
15290SOL    HW147311   0.131   6.199  12.169 -1.1984  1.0136 -0.7373
15290SOL    HW247312   0.071   6.124  12.052 -1.2808 -1.5008  0.8282
15291SOL     OW47313   4.893   6.285   1.899 -0.4528 -0.1626 -0.3767
15291SOL    HW147314   4.907   6.370   1.939 -0.5301  0.4929 -1.6964
15291SOL    HW247315   4.971   6.271   1.844 -0.0063 -1.3648  0.4884
15292SOL     OW47316   7.055   4.058  12.398  0.8087  0.1444 -0.5218
15292SOL    HW147317   6.974   4.083  12.353  1.0502  0.0925 -0.9866
15292SOL    HW247318   7.052   3.962  12.401  0.2993  0.1762  0.4952
15293SOL     OW47319   1.551   2.979   1.759 -0.4985 -0.3068  0.2285
15293SOL    HW147320   1.645   2.960   1.755 -0.1749  0.8708  1.7098
15293SOL    HW247321   1.515   2.936   1.681  1.2725 -0.6963 -0.4170
15294SOL     OW47322   7.677   4.667   0.392  0.2854 -0.1650  0.2522
15294SOL    HW147323   7.724   4.631   0.317  0.6114 -1.1045  0.8789
15294SOL    HW247324   7.627   4.740   0.357  0.8589 -0.2443 -0.7687
15295SOL     OW47325   3.630   4.065   1.607 -0.3148 -0.6662 -0.3447
15295SOL    HW147326   3.548   4.107   1.633 -2.0942 -3.9042 -0.1927
15295SOL    HW247327   3.680   4.058   1.688 -0.5561 -0.0030 -0.1343
15296SOL     OW47328   2.483   0.386   0.733 -0.2252 -0.2100 -0.1946
15296SOL    HW147329   2.453   0.421   0.816 -1.1484 -1.0836 -0.1529
15296SOL    HW247330   2.556   0.329   0.756  0.2226  0.3822 -0.1065
15297SOL     OW47331   6.443   1.126  12.435  0.3482 -0.1660  0.0624
15297SOL    HW147332   6.455   1.217  12.462 -1.1572  0.2401 -0.5533
15297SOL    HW247333   6.462   1.126  12.341 -1.3055 -0.1210 -0.2910
15298SOL     OW47334   3.415   1.891   9.835  0.3621  0.0591 -0.0158
15298SOL    HW147335   3.420   1.961   9.770  0.9257 -1.2088 -1.4072
15298SOL    HW247336   3.488   1.833   9.813  0.3394 -0.5961  1.5373
15299SOL     OW47337   0.709   3.267   8.623  0.4579  0.3895 -0.1374
15299SOL    HW147338   0.732   3.177   8.598 -0.9469 -0.1148  0.3137
15299SOL    HW247339   0.644   3.293   8.558 -0.9286  0.1850  1.1115
15300SOL     OW47340   4.875   2.284   8.261  0.4511  0.5902 -0.0721
15300SOL    HW147341   4.954   2.259   8.307  1.3079  1.2427 -1.1278
15300SOL    HW247342   4.894   2.268   8.169 -0.4930  1.1401 -0.3876
15301SOL     OW47343   7.621   3.390   4.013  0.2590 -0.0075  0.0472
15301SOL    HW147344   7.640   3.347   4.096 -0.9959  1.3851  1.1197
15301SOL    HW247345   7.604   3.319   3.952 -1.5929 -1.0975  1.7124
15302SOL     OW47346   6.440   6.014   8.194  0.2128 -0.0416  0.1089
15302SOL    HW147347   6.532   6.018   8.221 -0.7612  0.9698  3.8110
15302SOL    HW247348   6.392   6.058   8.265 -3.1722 -0.6335 -1.6158
15303SOL     OW47349   4.387   6.700  12.281 -0.2182 -0.3743 -0.0186
15303SOL    HW147350   4.473   6.689  12.240  0.1244 -1.0229  0.8450
15303SOL    HW247351   4.370   6.794  12.275 -0.3539 -0.4736 -1.9445
15304SOL     OW47352   7.213   5.740   7.387  0.0074  0.2570  0.7610
15304SOL    HW147353   7.299   5.709   7.357  0.0383  0.0324  1.0770
15304SOL    HW247354   7.208   5.830   7.355  0.3250  0.2449  0.6692
15305SOL     OW47355   1.655   7.346   2.447  0.2671 -0.4630  0.1411
15305SOL    HW147356   1.721   7.295   2.401 -0.1637 -0.2058 -0.7911
15305SOL    HW247357   1.704   7.420   2.484  0.7516 -1.1054  0.7991
15306SOL     OW47358   0.689   6.242   8.751 -0.3392  0.0389 -0.1800
15306SOL    HW147359   0.670   6.162   8.800 -0.1178  0.4574  0.5982
15306SOL    HW247360   0.736   6.212   8.673 -0.4086 -0.6013  0.0199
15307SOL     OW47361   7.011   6.792   6.678 -0.0178  0.2440 -0.2792
15307SOL    HW147362   6.974   6.761   6.596  1.4651 -1.2401 -0.4431
15307SOL    HW247363   6.997   6.886   6.677 -0.5382  0.1792 -1.9671
15308SOL     OW47364   2.830   3.063   6.598 -0.0538  0.1116 -0.3949
15308SOL    HW147365   2.793   3.151   6.606 -0.2176 -0.0591  0.7888
15308SOL    HW247366   2.924   3.077   6.600 -0.0733  0.3024 -0.7112
15309SOL     OW47367   1.498   2.830   0.318  0.1382 -1.0059  0.4272
15309SOL    HW147368   1.523   2.853   0.408  0.9972 -0.1948  0.0058
15309SOL    HW247369   1.433   2.760   0.328  0.0218 -0.7457  1.6791
15310SOL     OW47370   0.348   7.103  11.727 -0.1424 -0.1870 -0.2138
15310SOL    HW147371   0.258   7.127  11.749  0.2624  1.1768  0.0650
15310SOL    HW247372   0.345   7.077  11.635 -0.6892  0.6191 -0.4331
15311SOL     OW47373   0.360   2.546   1.376  0.1368  0.1181 -0.3887
15311SOL    HW147374   0.315   2.467   1.407 -0.2305  0.4266 -0.1353
15311SOL    HW247375   0.437   2.554   1.432 -0.1574  0.2873 -0.0078
15312SOL     OW47376   6.474   7.719   0.563  0.7248  0.1562 -0.0506
15312SOL    HW147377   6.516   7.655   0.620  1.9896 -0.3153 -1.4523
15312SOL    HW247378   6.451   7.670   0.484 -0.4593  0.9206 -0.2058
15313SOL     OW47379   7.867   4.311   7.266 -0.3500  0.4690 -0.2782
15313SOL    HW147380   7.860   4.221   7.236 -1.2689  0.4138  0.0696
15313SOL    HW247381   7.905   4.305   7.353  1.7395  0.5893 -1.1240
15314SOL     OW47382   1.799   5.614   6.898  0.5983  0.0706 -0.6149
15314SOL    HW147383   1.763   5.703   6.907 -1.6662 -0.8725  0.5109
15314SOL    HW247384   1.759   5.581   6.817  0.7075 -0.2217 -0.5492
15315SOL     OW47385   2.304   4.566  10.037  0.4583 -0.2876 -0.2520
15315SOL    HW147386   2.225   4.523  10.004  0.2824  0.6659 -1.1065
15315SOL    HW247387   2.333   4.623   9.966  1.2154  0.3044  0.5012
15316SOL     OW47388   7.911   1.703   5.880  0.0033  0.2473 -0.3883
15316SOL    HW147389   7.818   1.724   5.891  0.0286  0.3711 -0.4089
15316SOL    HW247390   7.913   1.608   5.871  0.0011  0.1036  0.8834
15317SOL     OW47391   4.872   4.932   5.932  0.1644  0.1201  0.4739
15317SOL    HW147392   4.846   4.853   5.883 -0.7373  0.3937  0.4855
15317SOL    HW247393   4.794   4.988   5.930  0.5842  0.7399  1.0181
15318SOL     OW47394   2.096   2.055   7.034 -0.5378  0.3857  0.0706
15318SOL    HW147395   2.129   1.995   7.101  0.0351  1.1722  0.5091
15318SOL    HW247396   2.002   2.060   7.052 -0.5895 -0.3512  0.0441
15319SOL     OW47397   4.178   2.831  10.002  0.3910  0.0494  0.2127
15319SOL    HW147398   4.223   2.916   9.995 -1.2933  0.9268 -0.3844
15319SOL    HW247399   4.234   2.770   9.954  1.7641  0.7413  0.8650
15320SOL     OW47400   1.747   0.748   9.210 -0.0635 -0.1729 -0.4176
15320SOL    HW147401   1.829   0.794   9.228 -1.4657  2.9848 -1.3043
15320SOL    HW247402   1.679   0.813   9.227 -2.4219 -2.5863  0.0602
15321SOL     OW47403   2.237   3.664   6.937  0.3872  0.2917 -0.1175
15321SOL    HW147404   2.259   3.612   6.859  1.3483 -0.3631  0.5661
15321SOL    HW247405   2.242   3.755   6.907  0.5370  0.0438 -0.8758
15322SOL     OW47406   4.257   5.763   4.869  0.4089 -0.4003 -0.1453
15322SOL    HW147407   4.241   5.672   4.847 -0.8758 -0.2894  0.2406
15322SOL    HW247408   4.235   5.812   4.790 -2.8431 -0.1234  0.7847
15323SOL     OW47409   2.161   7.700  11.884  0.6733 -0.0959  0.5510
15323SOL    HW147410   2.173   7.778  11.939 -1.7236  0.8164 -0.0869
15323SOL    HW247411   2.115   7.639  11.941  0.9365 -0.3557  0.4868
15324SOL     OW47412   6.884   7.497  11.115 -0.5686  0.7014  0.0316
15324SOL    HW147413   6.890   7.528  11.205 -0.4101 -0.5609  0.4722
15324SOL    HW247414   6.974   7.502  11.082  0.1609 -2.3521  1.2021
15325SOL     OW47415   0.046   7.016   2.321  0.3981 -0.4087  0.0797
15325SOL    HW147416   0.002   7.101   2.317  0.7942 -0.2323 -1.0012
15325SOL    HW247417   0.001   6.963   2.256  0.3443 -0.9389  0.5431
15326SOL     OW47418   1.840   5.996   6.628  0.4607  0.3317 -0.0943
15326SOL    HW147419   1.930   5.986   6.597  0.5087  0.7828 -0.1068
15326SOL    HW247420   1.793   5.924   6.587  0.4495  1.1133 -1.5323
15327SOL     OW47421   7.452   7.284   2.127 -0.5732 -0.2890  0.2234
15327SOL    HW147422   7.534   7.271   2.079  0.2723  0.7749  1.3236
15327SOL    HW247423   7.435   7.199   2.168  0.4765 -0.2788  0.7131
15328SOL     OW47424   1.501   0.190   9.052 -0.1770 -0.3207 -0.6336
15328SOL    HW147425   1.566   0.120   9.045  1.1570  0.7686  0.3766
15328SOL    HW247426   1.426   0.158   9.001 -0.0407 -2.9473  0.6300
15329SOL     OW47427   3.942   2.823   9.854 -0.2351  0.3669 -0.0902
15329SOL    HW147428   4.016   2.797   9.909 -1.3190 -1.0842  0.7418
15329SOL    HW247429   3.925   2.914   9.879  1.8586  1.0881 -1.0251
15330SOL     OW47430   6.531   6.248   6.320 -0.0693 -0.3461 -0.0038
15330SOL    HW147431   6.615   6.281   6.288 -0.4150  0.9934  0.3959
15330SOL    HW247432   6.478   6.237   6.242 -0.0698  0.4474 -0.1252
15331SOL     OW47433   0.609   2.727   7.214  0.1265 -0.2493  0.2311
15331SOL    HW147434   0.563   2.717   7.298  0.2418 -0.3159  0.2870
15331SOL    HW247435   0.652   2.642   7.200 -1.8561 -1.1008 -1.0905
15332SOL     OW47436   0.337   0.925  11.451  0.6745  0.3600  0.0828
15332SOL    HW147437   0.326   0.830  11.451 -0.5534  0.4861  0.2399
15332SOL    HW247438   0.423   0.939  11.412  1.4604 -0.8698  1.2624
15333SOL     OW47439   2.841   5.118   2.326  0.0366  0.7850 -0.3380
15333SOL    HW147440   2.753   5.144   2.296  0.3411 -1.2624 -3.5193
15333SOL    HW247441   2.900   5.181   2.285  0.1708  3.1369  3.0473
15334SOL     OW47442   0.233   1.412  10.701  0.1159  0.1760  0.0027
15334SOL    HW147443   0.262   1.417  10.610  0.0964  0.5284  0.0149
15334SOL    HW247444   0.237   1.502  10.733 -1.5445  0.3564 -0.1769
15335SOL     OW47445   6.988   0.885   0.214 -0.1544 -0.4698  0.3987
15335SOL    HW147446   7.031   0.825   0.275 -0.4631  0.9635  2.0945
15335SOL    HW247447   7.054   0.901   0.146  0.7642 -0.8968  1.1692
15336SOL     OW47448   0.988   3.316   3.047 -0.4422 -0.3652  0.2203
15336SOL    HW147449   0.893   3.325   3.053 -0.4245 -0.9385  2.4997
15336SOL    HW247450   1.021   3.405   3.046 -0.9991 -0.1439 -1.5254
15337SOL     OW47451   2.456   1.372   4.075 -0.0566  0.5869  0.1653
15337SOL    HW147452   2.375   1.416   4.099 -0.2632  1.3177 -1.7114
15337SOL    HW247453   2.461   1.297   4.134 -0.5249  2.1682  2.3591
15338SOL     OW47454   2.505   3.166   8.706  0.3767 -0.5200  0.0054
15338SOL    HW147455   2.515   3.236   8.641  1.2538 -1.5789 -1.0705
15338SOL    HW247456   2.547   3.200   8.785 -1.8867  1.3289  0.5210
15339SOL     OW47457   0.846   4.399   0.402  0.3237 -0.4010 -0.2549
15339SOL    HW147458   0.753   4.392   0.382  0.1789 -1.6259  0.7163
15339SOL    HW247459   0.853   4.471   0.464  0.1408  0.2147 -0.9364
15340SOL     OW47460   6.700   1.227  12.290 -0.4353  0.2097 -0.0125
15340SOL    HW147461   6.712   1.317  12.323  1.0224  0.1055 -0.2036
15340SOL    HW247462   6.617   1.230  12.243 -1.2975  1.0094  1.4632
15341SOL     OW47463   1.495   0.030  11.682 -0.2539 -0.3916 -0.0101
15341SOL    HW147464   1.439   0.036  11.758 -0.2105  0.3486 -0.0316
15341SOL    HW247465   1.437   0.047  11.607 -0.1074 -0.1596 -0.0719
15342SOL     OW47466   2.858   4.105   1.838  0.6541  0.0195  0.1492
15342SOL    HW147467   2.844   4.166   1.911  0.2699  0.8874 -0.6215
15342SOL    HW247468   2.823   4.022   1.869 -0.9104  0.7412  0.4031
15343SOL     OW47469   0.110   2.137   3.872 -0.2479 -1.0344 -0.2778
15343SOL    HW147470   0.051   2.074   3.830  1.4420 -2.6771 -0.3116
15343SOL    HW247471   0.191   2.088   3.887  0.6689  0.7527  0.9878
15344SOL     OW47472   2.521   6.467   3.274 -0.0715 -0.0116  0.2918
15344SOL    HW147473   2.451   6.511   3.225 -1.2962 -1.8621  0.2650
15344SOL    HW247474   2.592   6.531   3.278 -0.8497  1.0622 -1.8019
15345SOL     OW47475   4.379   3.265   8.333  0.2174 -0.0979  0.2541
15345SOL    HW147476   4.385   3.217   8.416  0.8459  1.1260  0.9463
15345SOL    HW247477   4.395   3.356   8.357 -0.7027  0.4401 -1.0593
15346SOL     OW47478   1.580   4.263   5.945 -0.3359  0.6398  0.0985
15346SOL    HW147479   1.614   4.204   6.012 -0.1581 -0.7827 -1.1809
15346SOL    HW247480   1.487   4.240   5.938  0.0895 -0.7630 -1.5972
15347SOL     OW47481   6.107   7.770   3.285  0.6042 -0.5431 -0.5550
15347SOL    HW147482   6.112   7.679   3.257  0.2441 -1.5116  2.2232
15347SOL    HW247483   6.190   7.786   3.330  0.4785  0.3675 -0.6315
15348SOL     OW47484   5.672   6.450   4.721 -0.0980 -0.2779  1.2946
15348SOL    HW147485   5.666   6.361   4.688 -1.0941 -0.1348  1.0629
15348SOL    HW247486   5.613   6.501   4.666 -0.4705  0.2897  2.1892
15349SOL     OW47487   2.575   0.618   1.320 -0.0501 -0.4291 -0.5455
15349SOL    HW147488   2.634   0.679   1.275 -0.6529 -0.3306 -1.2148
15349SOL    HW247489   2.598   0.532   1.286 -0.1043 -0.4228 -0.5978
15350SOL     OW47490   3.271   4.203   0.584 -0.0373  0.0055  0.0758
15350SOL    HW147491   3.359   4.224   0.614  0.4722 -0.7914 -0.8270
15350SOL    HW247492   3.283   4.133   0.520 -1.1408  1.0742 -1.3771
15351SOL     OW47493   5.208   5.566   0.328 -0.3405  0.0220  0.0312
15351SOL    HW147494   5.152   5.611   0.392 -0.1979  0.8756 -0.4398
15351SOL    HW247495   5.272   5.632   0.301  0.8344 -0.8955  0.4538
15352SOL     OW47496   7.380   1.875   5.004  0.4761  0.5250  0.9105
15352SOL    HW147497   7.431   1.810   4.956 -2.5706 -1.5140  0.1814
15352SOL    HW247498   7.355   1.832   5.085 -0.7711  1.1158  0.8636
15353SOL     OW47499   6.690   6.453   1.423  0.3230  0.3679 -0.5871
15353SOL    HW147500   6.757   6.446   1.491  0.3329 -0.4741 -0.6714
15353SOL    HW247501   6.608   6.462   1.471  0.2538 -0.8708 -0.4251
15354SOL     OW47502   1.633   4.290   3.572  0.2285 -0.3554 -0.1427
15354SOL    HW147503   1.699   4.354   3.543  0.1109 -1.0224 -2.0387
15354SOL    HW247504   1.553   4.342   3.581  0.4020 -0.0043 -0.5141
15355SOL     OW47505   3.920   7.315   1.361 -0.0194  0.1393 -0.0942
15355SOL    HW147506   3.841   7.284   1.405  0.5335  1.3354  1.9020
15355SOL    HW247507   3.888   7.367   1.287 -1.0756 -0.1124  0.1802
15356SOL     OW47508   7.633   7.552   3.777  0.7953 -0.1464  0.0328
15356SOL    HW147509   7.643   7.463   3.745  0.7717  0.1640 -0.8602
15356SOL    HW247510   7.539   7.559   3.798  0.7276 -0.2290 -0.2335
15357SOL     OW47511   7.377   1.713   1.178 -0.4703 -0.4116 -0.0908
15357SOL    HW147512   7.379   1.665   1.095  1.4340  0.2759 -0.4939
15357SOL    HW247513   7.468   1.738   1.194 -1.1704  1.8981  0.7882
15358SOL     OW47514   6.166   6.131   6.065 -0.0893  0.4156 -0.0169
15358SOL    HW147515   6.090   6.114   6.120 -0.1862 -1.5098 -0.6803
15358SOL    HW247516   6.165   6.061   6.000  1.7524  0.8714 -0.5980
15359SOL     OW47517   5.173   0.119   1.718  0.4189 -0.3896  0.3415
15359SOL    HW147518   5.181   0.025   1.699  0.7754 -0.4530  0.7910
15359SOL    HW247519   5.157   0.123   1.812  0.7159  0.0185  0.3771
15360SOL     OW47520   6.261   3.178   1.377 -0.1342 -0.3203  0.7687
15360SOL    HW147521   6.304   3.229   1.446  0.3694  0.0196  0.2132
15360SOL    HW247522   6.302   3.091   1.382  0.7746  0.0512  0.1283
15361SOL     OW47523   4.797   4.838   2.589 -0.0451  0.2889  0.7660
15361SOL    HW147524   4.737   4.815   2.660 -1.9957  2.1055 -0.1772
15361SOL    HW247525   4.884   4.817   2.623 -1.1419 -2.0701  2.3614
15362SOL     OW47526   4.000   0.486   0.716 -0.5801  0.1961  0.0859
15362SOL    HW147527   3.996   0.393   0.695 -0.5426  0.2826 -0.3138
15362SOL    HW247528   3.947   0.495   0.795 -0.4677 -0.1869  0.2035
15363SOL     OW47529   6.264   7.412   3.511  0.3573  0.1777  0.3869
15363SOL    HW147530   6.275   7.436   3.419  0.9186  0.4928  0.5274
15363SOL    HW247531   6.334   7.459   3.556 -0.6892  1.0315  1.1576
15364SOL     OW47532   4.585   5.620   9.616  0.5470  0.1588  0.5435
15364SOL    HW147533   4.533   5.612   9.536  1.6192  0.8795 -0.2499
15364SOL    HW247534   4.621   5.533   9.631 -2.1143 -0.8064  2.0255
15365SOL     OW47535   3.098   2.320   4.415 -0.3048 -0.3383  0.1611
15365SOL    HW147536   3.097   2.402   4.366 -0.2719 -1.0569 -1.1165
15365SOL    HW247537   3.190   2.294   4.415 -0.5299 -1.2193 -0.9814
15366SOL     OW47538   0.095   0.098   8.921  0.0180 -0.2126 -0.3555
15366SOL    HW147539   0.174   0.142   8.953  0.6479 -1.4705 -0.1049
15366SOL    HW247540   0.088   0.020   8.976 -1.5989  0.0429 -0.1551
15367SOL     OW47541   1.013   3.153  12.075 -0.1203  0.1335  0.0100
15367SOL    HW147542   1.102   3.161  12.041 -0.0117 -0.3778  0.1801
15367SOL    HW247543   1.014   3.074  12.129 -0.7178  0.0307 -0.1227
15368SOL     OW47544   3.284   5.667   9.204 -0.0563 -0.1212 -0.3470
15368SOL    HW147545   3.246   5.720   9.134  0.1867  1.2900  0.5552
15368SOL    HW247546   3.374   5.701   9.213  0.5013 -1.4863 -0.5310
15369SOL     OW47547   6.380   3.042   7.134 -0.5505  0.1585  0.2469
15369SOL    HW147548   6.327   3.121   7.133 -2.6308 -1.1745 -0.4142
15369SOL    HW247549   6.470   3.074   7.126 -1.3949  2.3706 -1.3727
15370SOL     OW47550   3.493   6.477   9.169  0.1852  0.3164 -0.1515
15370SOL    HW147551   3.523   6.391   9.140 -0.5017 -0.2210  0.7034
15370SOL    HW247552   3.441   6.510   9.096 -1.5831 -1.0547  0.4374
15371SOL     OW47553   7.497   6.321   3.979 -0.1791  0.1378  0.5339
15371SOL    HW147554   7.479   6.404   4.022  0.4258  1.2300 -1.2482
15371SOL    HW247555   7.469   6.334   3.888  1.9419 -0.8611 -0.3201
15372SOL     OW47556   3.054   2.910   5.704  0.5514  0.2347  0.2718
15372SOL    HW147557   3.102   2.989   5.681  0.2921 -0.1651 -1.8605
15372SOL    HW247558   3.122   2.850   5.736  0.9694  0.7616  0.3937
15373SOL     OW47559   0.322   0.189   8.454 -0.2793  0.0315  0.3858
15373SOL    HW147560   0.365   0.113   8.492 -0.3958 -0.8540 -1.1488
15373SOL    HW247561   0.265   0.153   8.386 -1.5213  1.3741  0.6510
15374SOL     OW47562   1.614   1.904   1.522  0.5415  0.2061  0.4862
15374SOL    HW147563   1.610   1.868   1.433 -0.6595 -0.0237  0.6069
15374SOL    HW247564   1.681   1.972   1.518 -0.0520  0.7536 -0.8156
15375SOL     OW47565   1.782   6.641   4.740 -0.1703  0.7434  0.5599
15375SOL    HW147566   1.784   6.735   4.760 -1.0499  0.4195  2.3909
15375SOL    HW247567   1.704   6.630   4.685 -0.7405  0.9514  1.3018
15376SOL     OW47568   5.866   1.561   6.279  0.4098 -1.1450  0.5585
15376SOL    HW147569   5.780   1.532   6.308  0.0309 -0.3854  0.2407
15376SOL    HW247570   5.896   1.492   6.220 -0.5041 -0.8851 -0.2500
15377SOL     OW47571   4.079   1.421   9.364  0.0206 -0.4323 -0.2372
15377SOL    HW147572   4.046   1.343   9.320  1.1726  0.0146 -1.9776
15377SOL    HW247573   4.162   1.441   9.320 -0.3401  1.8964  0.0167
15378SOL     OW47574   0.712   1.568   0.641  0.0494 -0.5820 -0.8940
15378SOL    HW147575   0.807   1.561   0.639  0.0501 -1.9377  0.9947
15378SOL    HW247576   0.691   1.605   0.727 -1.1395 -1.2514 -0.8608
15379SOL     OW47577   5.387   1.202   1.729 -0.1188  0.1352 -0.0504
15379SOL    HW147578   5.482   1.197   1.717  0.1429 -2.7674  2.0259
15379SOL    HW247579   5.352   1.133   1.673 -0.7929 -0.0402  0.5738
15380SOL     OW47580   4.958   2.518  11.300 -0.4251 -0.2221  0.0247
15380SOL    HW147581   4.900   2.446  11.324  0.7709 -0.8483  1.2028
15380SOL    HW247582   4.912   2.565  11.231 -2.0550 -1.0283  0.5221
15381SOL     OW47583   3.058   6.959  11.553 -0.1433  1.1493  0.3298
15381SOL    HW147584   3.134   6.988  11.502  0.6579  1.6843  1.7796
15381SOL    HW247585   3.002   7.037  11.560 -1.6653  0.3784 -2.0616
15382SOL     OW47586   0.159   6.947   5.392  0.1102  0.4250 -0.5928
15382SOL    HW147587   0.194   6.898   5.467 -0.9928  1.5308  0.6967
15382SOL    HW247588   0.198   7.034   5.399  0.4159  0.3872 -1.6452
15383SOL     OW47589   4.684   7.896   0.309  0.0701 -0.0493  0.4233
15383SOL    HW147590   4.672   7.873   0.217  0.1614 -1.0622  0.6493
15383SOL    HW247591   4.758   7.843   0.338  0.1377  0.3659  1.0448
15384SOL     OW47592   7.477   7.932   7.291 -0.3184  0.0130 -0.2528
15384SOL    HW147593   7.551   7.873   7.299 -0.8958 -0.7011 -0.0965
15384SOL    HW247594   7.450   7.948   7.382  1.2117  2.3336 -0.1095
15385SOL     OW47595   4.927   4.115   8.439 -0.4168  0.3593  0.6455
15385SOL    HW147596   4.956   4.066   8.362 -0.7283 -1.5252  1.6676
15385SOL    HW247597   4.835   4.135   8.421 -0.2544  0.6987  0.1667
15386SOL     OW47598   2.309   0.273   7.805 -0.2629 -0.0487 -0.3081
15386SOL    HW147599   2.364   0.348   7.829  0.7369 -0.6171 -0.7755
15386SOL    HW247600   2.308   0.218   7.884 -2.2345  1.1236  0.5758
15387SOL     OW47601   1.336   2.994  12.299  0.2975 -0.5870  0.3522
15387SOL    HW147602   1.287   3.076  12.299 -1.2467 -1.4795  0.3959
15387SOL    HW247603   1.281   2.933  12.347  2.3608 -1.1386  2.1820
15388SOL     OW47604   1.220   1.744   6.278  0.4066 -0.1503 -0.2205
15388SOL    HW147605   1.300   1.728   6.329 -0.4333  0.3185  1.2827
15388SOL    HW247606   1.252   1.773   6.193  1.8516 -1.0800 -0.0354
15389SOL     OW47607   1.584   1.838   9.274  0.5690 -0.8303 -0.1013
15389SOL    HW147608   1.564   1.928   9.301  0.4226 -0.5343 -1.1414
15389SOL    HW247609   1.618   1.796   9.353 -1.5639 -0.5565  1.0437
15390SOL     OW47610   1.097   6.575   3.404 -0.0986 -0.2739  0.6083
15390SOL    HW147611   1.036   6.639   3.367  1.3079  0.9486  0.2713
15390SOL    HW247612   1.179   6.592   3.358  1.1236 -0.2509  2.6663
15391SOL     OW47613   0.093   6.391  10.121 -0.4708 -0.0101  0.0893
15391SOL    HW147614   0.147   6.391  10.042  2.0005 -0.8632  1.6787
15391SOL    HW247615   0.003   6.381  10.089  0.4946 -0.8420 -2.5645
15392SOL     OW47616   7.329   5.060  11.628  0.0758 -0.5963 -1.1634
15392SOL    HW147617   7.385   5.027  11.698  0.9164 -0.2577 -1.6564
15392SOL    HW247618   7.255   5.000  11.625 -0.0679 -0.4968  0.1404
15393SOL     OW47619   3.659   4.875  11.470  0.3888 -0.0522  0.0298
15393SOL    HW147620   3.634   4.824  11.547  0.8907 -2.0121 -1.0398
15393SOL    HW247621   3.753   4.891  11.481  0.9831 -2.3192 -1.1861
15394SOL     OW47622   4.655   2.675   0.212 -0.0532  0.1206 -0.0027
15394SOL    HW147623   4.603   2.633   0.280 -2.0044  0.4562 -1.2186
15394SOL    HW247624   4.599   2.674   0.134  1.4059  1.3448 -1.1427
15395SOL     OW47625   1.651   2.828   3.421 -0.3962 -0.5304 -0.2904
15395SOL    HW147626   1.727   2.884   3.436 -0.0440 -0.5062 -1.9897
15395SOL    HW247627   1.653   2.766   3.494  1.3754 -0.6507 -0.3819
15396SOL     OW47628   2.598   7.453  12.200  0.2107 -0.8465  0.0503
15396SOL    HW147629   2.524   7.451  12.140 -0.7153  0.5908  1.0916
15396SOL    HW247630   2.592   7.538  12.243  1.2346 -1.5576  1.6952
15397SOL     OW47631   6.561   4.400   2.050  0.0993  0.0365 -0.0280
15397SOL    HW147632   6.533   4.310   2.068  0.0630 -0.6557 -2.9404
15397SOL    HW247633   6.504   4.428   1.978  1.9917  1.3247 -1.0994
15398SOL     OW47634   4.294   6.793   4.300  0.2063  0.2508 -0.1202
15398SOL    HW147635   4.313   6.836   4.217  0.8461 -1.8351 -1.1302
15398SOL    HW247636   4.380   6.772   4.337 -0.0678  1.1756  1.1147
15399SOL     OW47637   2.334   4.358   7.997 -0.0073  0.6236  0.0487
15399SOL    HW147638   2.367   4.445   8.020  1.0434  0.2036  0.1770
15399SOL    HW247639   2.385   4.333   7.919  1.3572 -0.8166  1.3403
15400SOL     OW47640   6.409   0.349   6.477  0.5244 -0.2013 -0.2029
15400SOL    HW147641   6.497   0.372   6.506 -0.3744  0.6183  2.1216
15400SOL    HW247642   6.408   0.254   6.477  1.6638 -0.2358 -1.1997
15401SOL     OW47643   4.692   5.799  11.069 -0.1053 -0.1461  0.2454
15401SOL    HW147644   4.634   5.774  10.997 -1.3942 -0.6995  1.4091
15401SOL    HW247645   4.704   5.718  11.119  0.4241  0.3041  0.8663
15402SOL     OW47646   0.732   1.704  10.548 -0.2629 -0.2771  0.6190
15402SOL    HW147647   0.683   1.692  10.629 -1.5699 -2.3624 -0.4023
15402SOL    HW247648   0.818   1.667  10.567 -0.2686  0.0150  1.2786
15403SOL     OW47649   0.660   7.602   7.157  0.2660  0.3524 -0.1499
15403SOL    HW147650   0.735   7.639   7.111 -1.1139  0.8878 -2.1035
15403SOL    HW247651   0.639   7.522   7.108 -0.7754  0.5314 -0.0243
15404SOL     OW47652   0.009   6.654   8.269  0.5337  0.0507  0.0016
15404SOL    HW147653  -0.050   6.678   8.198 -1.9553  0.0295  1.9008
15404SOL    HW247654   0.023   6.560   8.258 -0.6503 -0.1530  0.0427
15405SOL     OW47655   3.050   1.627   3.284  0.3698  0.5424 -0.4176
15405SOL    HW147656   3.042   1.646   3.377 -0.5480 -0.8496 -0.1756
15405SOL    HW247657   3.026   1.535   3.276  1.1085  0.4416 -1.9506
15406SOL     OW47658   4.091   5.302  10.143  0.1092  0.3162  0.3842
15406SOL    HW147659   4.093   5.283  10.049 -0.9986  0.9515  0.2178
15406SOL    HW247660   4.182   5.314  10.167  0.3312  1.2614 -0.8482
15407SOL     OW47661   4.395   6.733   5.976  0.0588 -0.7384  0.6899
15407SOL    HW147662   4.437   6.763   6.057  0.4910 -1.6690  0.8192
15407SOL    HW247663   4.376   6.641   5.991 -0.2189 -0.8241 -0.1258
15408SOL     OW47664   7.291   4.688   7.118 -0.3306  0.3435  0.0928
15408SOL    HW147665   7.244   4.605   7.126  0.8382 -0.2538  1.2265
15408SOL    HW247666   7.374   4.664   7.075 -0.5239  1.1658 -0.7834
15409SOL     OW47667   2.047   1.455   2.797 -0.0253  0.2855  0.2186
15409SOL    HW147668   2.005   1.534   2.829 -0.3761  0.0545  0.3341
15409SOL    HW247669   2.024   1.388   2.861  0.2764  0.0903  0.1273
15410SOL     OW47670   4.509   0.160   2.107 -0.1578  0.2202 -0.2186
15410SOL    HW147671   4.450   0.131   2.176  0.9541 -0.1724  0.5875
15410SOL    HW247672   4.594   0.168   2.149  0.5645 -0.0884 -1.5612
15411SOL     OW47673   7.342   7.739  12.259 -0.5280 -0.2074 -0.0915
15411SOL    HW147674   7.316   7.758  12.168 -1.2915  1.0704  0.3609
15411SOL    HW247675   7.393   7.816  12.285 -2.8848  0.9644  1.5101
15412SOL     OW47676   0.623   6.911  12.374 -0.1249  0.7157 -0.0658
15412SOL    HW147677   0.543   6.907  12.426  0.2386  1.0027  0.5172
15412SOL    HW247678   0.694   6.906  12.437  0.3259  0.3657 -0.5883
15413SOL     OW47679   1.287   7.140   5.224 -0.5310 -0.1017 -0.2960
15413SOL    HW147680   1.248   7.218   5.264  0.6290 -0.4130  1.5577
15413SOL    HW247681   1.349   7.174   5.160  1.4600  0.6532  1.9005
15414SOL     OW47682   5.800   2.389   4.881  0.2779 -0.5129 -0.5364
15414SOL    HW147683   5.887   2.397   4.920  0.1750 -0.1083 -0.3840
15414SOL    HW247684   5.815   2.361   4.791  0.5108 -1.8778 -0.0951
15415SOL     OW47685   2.324   2.011   8.756  0.0444 -0.0078  0.7255
15415SOL    HW147686   2.352   1.926   8.721  2.1306  0.6928  0.5767
15415SOL    HW247687   2.253   2.038   8.699 -0.4545 -1.4926  0.5837
15416SOL     OW47688   3.006   3.511  11.878 -0.0993 -0.2769  0.6294
15416SOL    HW147689   2.945   3.483  11.810  0.6172 -1.7965  0.5881
15416SOL    HW247690   2.958   3.499  11.960 -0.2967 -0.2673  0.5161
15417SOL     OW47691   1.652   4.107   5.702  0.0077  0.0206  0.0887
15417SOL    HW147692   1.653   4.165   5.778  0.8744 -0.8879  0.7998
15417SOL    HW247693   1.719   4.042   5.721 -0.3849 -0.7492 -1.0592
15418SOL     OW47694   1.382   7.860   6.860 -0.2958 -0.0091 -0.3242
15418SOL    HW147695   1.446   7.875   6.791  0.2590 -0.2479  0.1402
15418SOL    HW247696   1.427   7.807   6.925 -1.3320 -1.2418 -0.5625
15419SOL     OW47697   1.885   6.023   3.957 -0.7594  0.0849  0.1908
15419SOL    HW147698   1.943   6.069   4.017  0.6204 -1.9103  0.4935
15419SOL    HW247699   1.840   5.959   4.012  0.6452 -1.8839 -0.8253
15420SOL     OW47700   5.524   2.347   7.160  0.1063 -0.6390  0.2242
15420SOL    HW147701   5.464   2.291   7.209  2.3825 -2.2545  1.3827
15420SOL    HW247702   5.486   2.435   7.166 -2.4978 -1.6737  0.1552
15421SOL     OW47703   7.787   3.639  11.265 -0.1921 -0.1649  0.2245
15421SOL    HW147704   7.713   3.599  11.220 -1.4766  0.3807  1.7656
15421SOL    HW247705   7.753   3.720  11.302  0.4818 -1.0112  2.9438
15422SOL     OW47706   2.588   3.619   8.946 -0.2757  0.5059  0.3227
15422SOL    HW147707   2.518   3.578   8.895 -1.0158  1.9789  0.1032
15422SOL    HW247708   2.588   3.573   9.030 -0.7322 -0.2585 -0.0900
15423SOL     OW47709   2.173   2.225   0.307  0.0389 -0.1397 -0.6009
15423SOL    HW147710   2.189   2.259   0.219  1.8374 -0.1156 -0.3099
15423SOL    HW247711   2.235   2.273   0.363 -0.8180 -0.4081  0.6215
15424SOL     OW47712   5.190   3.262   0.306  0.3875 -0.1868 -0.1561
15424SOL    HW147713   5.167   3.269   0.399  2.6532  0.2419  0.4339
15424SOL    HW247714   5.247   3.337   0.290  0.6633 -0.6902 -1.6835
15425SOL     OW47715   3.946   1.714   4.148 -0.0424 -0.4083 -0.2753
15425SOL    HW147716   4.007   1.769   4.099 -2.3783  1.3342 -1.4251
15425SOL    HW247717   3.877   1.694   4.086 -0.0270 -3.5085  0.5741
15426SOL     OW47718   0.833   2.637   4.946 -0.4184  0.4835  1.0166
15426SOL    HW147719   0.846   2.561   4.889  0.5130  1.2501  0.1668
15426SOL    HW247720   0.760   2.684   4.907  0.0151  0.8420  0.6323
15427SOL     OW47721   7.817   1.099   2.742  0.3018 -0.1155 -0.5560
15427SOL    HW147722   7.892   1.147   2.777  0.1291  0.4975 -1.0049
15427SOL    HW247723   7.747   1.115   2.806  0.0857  0.7145 -0.9801
15428SOL     OW47724   5.011   3.143   8.179 -0.2534  0.0341 -0.4877
15428SOL    HW147725   4.979   3.231   8.197  0.2854  0.1439 -0.0433
15428SOL    HW247726   5.056   3.150   8.095 -0.7694  0.0290 -0.7755
15429SOL     OW47727   5.016   2.733  10.596  0.0877  0.0247 -0.4248
15429SOL    HW147728   4.984   2.678  10.669 -0.1765  1.3212  0.4739
15429SOL    HW247729   4.953   2.805  10.592  2.8009  2.7280  1.4458
15430SOL     OW47730   4.611   1.244   8.827 -1.0659 -0.6242 -0.3976
15430SOL    HW147731   4.605   1.234   8.732  0.4770 -0.2064 -0.5620
15430SOL    HW247732   4.668   1.172   8.855 -0.9645 -0.3472  0.1199
15431SOL     OW47733   5.167   5.971   8.158 -0.1305 -0.3641  0.2076
15431SOL    HW147734   5.122   6.026   8.223  0.5573  2.2370 -1.3696
15431SOL    HW247735   5.230   5.921   8.209  0.0534  1.2243  1.6479
15432SOL     OW47736   1.688   1.939  10.328 -0.4472 -0.3640  0.4203
15432SOL    HW147737   1.664   2.025  10.293 -0.7030 -1.0070 -1.0660
15432SOL    HW247738   1.740   1.958  10.406  0.3728  1.1603 -0.4575
15433SOL     OW47739   3.470   5.935   5.265  0.4908 -0.0039 -0.0487
15433SOL    HW147740   3.462   5.971   5.353 -0.1591 -0.4195  0.0726
15433SOL    HW247741   3.544   5.875   5.270 -1.3673 -2.3746  1.0713
15434SOL     OW47742   1.461   2.345  11.840  0.1374  0.9705 -0.4484
15434SOL    HW147743   1.521   2.420  11.844 -0.9783  1.8706  0.2818
15434SOL    HW247744   1.448   2.321  11.932 -1.5324  1.5768 -0.4894
15435SOL     OW47745   7.949   1.268   0.085 -0.0759 -0.2416  0.6310
15435SOL    HW147746   8.016   1.313   0.136 -1.5650  0.8404  1.7199
15435SOL    HW247747   7.983   1.269  -0.005  1.3158  0.3452  1.1316
15436SOL     OW47748   3.943   6.457   7.757  0.2839 -0.2687 -0.4422
15436SOL    HW147749   4.032   6.449   7.791  0.5603 -0.2556 -1.1447
15436SOL    HW247750   3.912   6.542   7.789  0.7463 -0.0030 -0.6996
15437SOL     OW47751   5.591   1.025   4.062  0.0422  0.0287  0.2542
15437SOL    HW147752   5.502   1.021   4.097 -0.1530 -0.7908 -0.2958
15437SOL    HW247753   5.640   1.074   4.127 -1.1910  2.0495 -0.2586
15438SOL     OW47754   1.839   0.908   5.812  0.0269 -0.0472  0.0855
15438SOL    HW147755   1.748   0.936   5.823 -0.1407 -0.7705  0.6252
15438SOL    HW247756   1.891   0.983   5.841 -0.3915  0.3147 -0.0833
15439SOL     OW47757   2.379   0.507   5.060  0.3739 -0.6117 -0.3216
15439SOL    HW147758   2.374   0.483   5.152  0.4557  0.2631 -0.0846
15439SOL    HW247759   2.308   0.458   5.018 -0.8727  0.4005  0.5222
15440SOL     OW47760   1.351   4.482   5.058 -0.1115 -0.4315  0.1461
15440SOL    HW147761   1.259   4.507   5.061  0.1018  0.2887  2.9953
15440SOL    HW247762   1.358   4.407   5.116  1.0568 -0.7246 -0.3392
15441SOL     OW47763   7.316   2.278   9.224  0.1734 -0.0687 -1.0158
15441SOL    HW147764   7.288   2.212   9.288  1.8442 -2.5329 -2.6196
15441SOL    HW247765   7.279   2.248   9.141  0.2475  1.5586 -1.6736
15442SOL     OW47766   6.531   4.848   0.616 -0.2429  0.0710  0.2546
15442SOL    HW147767   6.624   4.839   0.592 -0.5782  0.3179 -1.2602
15442SOL    HW247768   6.533   4.891   0.701  1.0464 -0.4699  0.5272
15443SOL     OW47769   7.457   4.223   7.064  0.3412 -0.8075  0.1574
15443SOL    HW147770   7.543   4.208   7.024  0.9486 -2.6224  1.9694
15443SOL    HW247771   7.472   4.291   7.129  0.3319 -0.9492  0.3056
15444SOL     OW47772   0.641   3.683  12.165 -0.1293  0.0043  0.0342
15444SOL    HW147773   0.644   3.626  12.088 -0.8100  0.2710 -0.1951
15444SOL    HW247774   0.549   3.706  12.174  0.0137  0.3478  0.6602
15445SOL     OW47775   5.197   2.601   9.642 -0.0760 -0.2673  0.3616
15445SOL    HW147776   5.105   2.593   9.619 -0.3179  1.2858  0.6634
15445SOL    HW247777   5.243   2.555   9.572 -0.9884  0.9183 -1.0841
15446SOL     OW47778   3.620   2.547  11.815  0.7135 -0.5382 -0.1851
15446SOL    HW147779   3.598   2.495  11.738 -0.4930 -2.4301  1.3258
15446SOL    HW247780   3.624   2.484  11.887  1.8826  1.1205  1.3149
15447SOL     OW47781   2.061   7.886   7.478 -0.2515 -0.2620 -0.0435
15447SOL    HW147782   2.080   7.974   7.510 -0.1876 -0.7262  1.2453
15447SOL    HW247783   2.140   7.836   7.499  0.8442 -0.0602 -3.1973
15448SOL     OW47784   6.731   5.113   3.856 -0.1278 -0.2367  0.0095
15448SOL    HW147785   6.679   5.033   3.851 -0.7136  0.0992  0.7180
15448SOL    HW247786   6.731   5.136   3.948  2.2779 -0.8777  0.2324
15449SOL     OW47787   2.860   3.045  12.073 -0.0708  0.0531  0.1077
15449SOL    HW147788   2.824   2.966  12.033 -1.6222  0.4636  0.6360
15449SOL    HW247789   2.911   3.013  12.147 -2.2858 -0.4145  1.5180
15450SOL     OW47790   3.826   1.694  12.026  0.2664  0.6305 -0.0859
15450SOL    HW147791   3.740   1.653  12.012 -0.6341  2.1278  0.8040
15450SOL    HW247792   3.885   1.643  11.971 -1.5902  0.9882 -2.6555
15451SOL     OW47793   5.129   1.299   6.245 -0.1855  0.2304  0.0708
15451SOL    HW147794   5.084   1.356   6.183 -0.0459 -0.7262 -0.9470
15451SOL    HW247795   5.060   1.254   6.292 -0.2939  0.3170 -0.0066
15452SOL     OW47796   6.097   2.696  11.160  0.2132  0.1423  0.4728
15452SOL    HW147797   6.020   2.748  11.182  0.5658  0.5236  0.8032
15452SOL    HW247798   6.170   2.741  11.202  1.0293  1.2964 -2.0033
15453SOL     OW47799   6.839   5.224   2.086  0.1223  0.3241 -0.6322
15453SOL    HW147800   6.895   5.209   2.010  2.2621 -0.7693  1.0192
15453SOL    HW247801   6.866   5.309   2.119  0.8045 -0.1710  0.1237
15454SOL     OW47802   0.451   7.465   4.593  0.2804  0.5599  0.0514
15454SOL    HW147803   0.443   7.493   4.684  0.2246 -0.1874  0.2836
15454SOL    HW247804   0.530   7.411   4.591  1.1666  1.8361 -0.6740
15455SOL     OW47805   3.591   1.815   5.966  0.5395  0.6465 -0.3541
15455SOL    HW147806   3.553   1.729   5.984  2.2372 -0.2483 -0.8376
15455SOL    HW247807   3.564   1.834   5.876  0.9406  0.1781 -0.5769
15456SOL     OW47808   1.211   2.341   0.652  0.1368 -0.1870  0.5867
15456SOL    HW147809   1.203   2.288   0.732  0.5055  0.5483  1.1267
15456SOL    HW247810   1.301   2.326   0.622 -0.1072 -0.7207  0.1222
15457SOL     OW47811   2.726   4.614   7.106 -0.1510 -0.5733 -0.8135
15457SOL    HW147812   2.672   4.693   7.104 -0.9730 -1.0919 -0.0289
15457SOL    HW247813   2.676   4.549   7.057  0.7245 -0.4967 -1.8301
15458SOL     OW47814   2.343   5.847  11.123  0.2869  0.4595 -0.1686
15458SOL    HW147815   2.352   5.758  11.156  0.0575  0.5990  0.2797
15458SOL    HW247816   2.254   5.872  11.147  0.4451  0.9075 -0.0355
15459SOL     OW47817   4.149   5.708   1.221 -0.6204  0.2917  0.6008
15459SOL    HW147818   4.175   5.625   1.181 -0.6404  0.7488 -0.4073
15459SOL    HW247819   4.080   5.684   1.283 -1.9823 -0.2653 -1.0310
15460SOL     OW47820   6.368   7.894   4.886 -0.1965 -0.8484 -0.2524
15460SOL    HW147821   6.449   7.932   4.919 -1.0443  1.4331 -0.6266
15460SOL    HW247822   6.331   7.846   4.960  2.0454 -3.0150 -0.4259
15461SOL     OW47823   2.094   1.298   7.655  0.1083 -0.1651 -0.1081
15461SOL    HW147824   2.138   1.378   7.686 -1.7665  1.8377 -2.2345
15461SOL    HW247825   2.029   1.279   7.722 -0.1811  0.8116 -0.0858
15462SOL     OW47826   7.035   2.399   8.888 -0.1605  0.5229  0.3012
15462SOL    HW147827   7.017   2.480   8.936  1.2643  0.8697  0.3069
15462SOL    HW247828   7.087   2.346   8.949  0.0667  0.1777 -0.1882
15463SOL     OW47829   2.844   4.158   1.157 -0.2056  0.1980 -0.0487
15463SOL    HW147830   2.833   4.098   1.083  1.3542 -0.5159  0.2768
15463SOL    HW247831   2.833   4.245   1.118  0.5020 -0.1685 -1.1105
15464SOL     OW47832   0.784   7.778   8.327 -0.0163 -0.0649 -0.2258
15464SOL    HW147833   0.720   7.846   8.304 -0.0520  0.2919  0.8849
15464SOL    HW247834   0.755   7.701   8.279  0.2417  0.7834 -1.8160
15465SOL     OW47835   4.414   5.022   4.605  0.2231  0.3636 -0.3884
15465SOL    HW147836   4.432   4.928   4.599  1.2083  0.4831  0.3579
15465SOL    HW247837   4.330   5.033   4.562  1.9114 -0.2597 -4.3279
15466SOL     OW47838   7.661   5.876   5.009  0.3564 -0.8820 -0.5816
15466SOL    HW147839   7.628   5.831   4.931 -1.6547 -0.0427 -0.2690
15466SOL    HW247840   7.613   5.959   5.012  2.5649  0.4817 -0.0748
15467SOL     OW47841   5.668   3.469  10.707  0.3899 -0.2407  0.7045
15467SOL    HW147842   5.706   3.552  10.681 -2.5397  0.9028 -0.3155
15467SOL    HW247843   5.641   3.482  10.798 -0.4754  0.1156  0.4056
15468SOL     OW47844   1.369   4.738   8.987 -0.4940 -0.0879  0.2486
15468SOL    HW147845   1.400   4.758   9.075  0.4754 -1.3685  0.2331
15468SOL    HW247846   1.276   4.720   8.998 -1.1262  2.7966  0.4735
15469SOL     OW47847   0.604   1.732   6.138  0.3054 -0.3489  0.0670
15469SOL    HW147848   0.673   1.770   6.083  0.6740 -2.9660 -1.4239
15469SOL    HW247849   0.524   1.776   6.108  0.7961 -0.1849 -1.0467
15470SOL     OW47850   6.641   6.919  12.405 -0.1300  0.0833  0.1375
15470SOL    HW147851   6.570   6.978  12.382 -0.1768 -0.5221 -1.3558
15470SOL    HW247852   6.604   6.832  12.397  0.9035 -0.2698 -1.2969
15471SOL     OW47853   3.699   3.217   9.338 -0.1861 -0.0531  0.0898
15471SOL    HW147854   3.753   3.292   9.311 -1.1105  0.6155  0.0624
15471SOL    HW247855   3.706   3.216   9.434 -0.9104  0.6462  0.1578
15472SOL     OW47856   1.738   5.968   4.392 -0.4445 -0.1285 -0.3429
15472SOL    HW147857   1.661   6.024   4.403 -1.3050 -1.1433 -0.9479
15472SOL    HW247858   1.718   5.916   4.313 -0.5352 -2.5664  1.1807
15473SOL     OW47859   6.623   1.559   2.384 -0.1854  0.5502 -0.7025
15473SOL    HW147860   6.643   1.644   2.423 -1.0185  0.4625 -0.0561
15473SOL    HW247861   6.701   1.506   2.401  0.1404  1.0289 -0.6757
15474SOL     OW47862   4.494   2.370   2.838 -0.1641  0.1967 -0.8156
15474SOL    HW147863   4.450   2.285   2.837 -1.4130  0.8259 -1.0979
15474SOL    HW247864   4.572   2.357   2.785  0.6628 -1.2698  0.6747
15475SOL     OW47865   0.631   1.830   2.249  0.4008  0.0701 -0.7534
15475SOL    HW147866   0.539   1.854   2.259  0.7730  1.2284 -0.0600
15475SOL    HW247867   0.655   1.864   2.163  0.3510  0.2983 -0.6763
15476SOL     OW47868   7.385   4.458   6.884 -0.5758  0.5730  0.1705
15476SOL    HW147869   7.328   4.453   6.807 -0.9360  1.0981  0.3966
15476SOL    HW247870   7.393   4.368   6.914 -0.3814  0.3530 -0.5132
15477SOL     OW47871   2.774   6.820   7.474  0.2972 -0.6057 -0.2824
15477SOL    HW147872   2.715   6.748   7.492 -2.9456  1.5464 -1.4264
15477SOL    HW247873   2.840   6.783   7.416 -1.1188 -2.6938 -0.6581
15478SOL     OW47874   0.601   5.435   0.604 -1.0283  0.0315  0.1899
15478SOL    HW147875   0.661   5.382   0.656  0.3883  0.9362 -0.4543
15478SOL    HW247876   0.558   5.492   0.668 -2.8254 -2.0378  0.9351
15479SOL     OW47877   0.634   3.422   6.280 -0.2758  0.3039  0.6229
15479SOL    HW147878   0.709   3.377   6.319  0.5349 -0.9762 -2.1457
15479SOL    HW247879   0.571   3.429   6.351  1.1817 -1.5852  2.2294
15480SOL     OW47880   3.043   1.894   8.751  0.2307 -0.6221  0.2420
15480SOL    HW147881   2.976   1.947   8.795 -0.4731 -0.3490 -1.1222
15480SOL    HW247882   3.123   1.946   8.757  0.1791 -0.6246  1.2376
15481SOL     OW47883   3.477   2.401   0.078 -0.4068  0.2727  0.2641
15481SOL    HW147884   3.517   2.326   0.035 -1.2902 -0.1840  0.2056
15481SOL    HW247885   3.454   2.460   0.006 -0.4694  0.2133  0.2344
15482SOL     OW47886   3.270   7.663   3.227  0.4656  0.0736 -0.3010
15482SOL    HW147887   3.274   7.757   3.209 -0.9470 -0.0821 -1.6450
15482SOL    HW247888   3.324   7.624   3.159  0.6116 -0.1162 -0.0740
15483SOL     OW47889   2.652   7.463   9.334 -0.2150  0.2939 -0.4541
15483SOL    HW147890   2.730   7.451   9.280 -0.4194 -0.4196 -0.6039
15483SOL    HW247891   2.580   7.465   9.271 -0.3730  0.3378 -0.2704
15484SOL     OW47892   1.012   2.732   2.765 -0.0073 -0.5283 -0.8558
15484SOL    HW147893   1.098   2.767   2.785 -0.4685  0.3050 -0.2475
15484SOL    HW247894   1.028   2.660   2.705  1.0350  0.2223 -1.5000
15485SOL     OW47895   1.207   7.734   3.775 -0.1367  0.6842  0.2245
15485SOL    HW147896   1.248   7.815   3.744 -0.3320  0.0539 -1.8008
15485SOL    HW247897   1.116   7.759   3.793  0.2386  1.2970  1.4180
15486SOL     OW47898   2.931   7.757   7.888 -0.8193 -0.0627 -0.1305
15486SOL    HW147899   2.972   7.727   7.807  2.1926  0.6604  1.0216
15486SOL    HW247900   2.913   7.676   7.937 -2.0409 -0.4579 -1.1524
15487SOL     OW47901   4.246   2.035   8.145  0.1685 -0.0614 -0.5154
15487SOL    HW147902   4.198   2.084   8.078  0.2200  0.2715 -0.3112
15487SOL    HW247903   4.316   1.990   8.096  1.3177  1.5849 -0.4754
15488SOL     OW47904   5.617   0.609   8.979  0.0682  0.0238 -0.0908
15488SOL    HW147905   5.690   0.671   8.977 -0.0118  0.1640  1.0415
15488SOL    HW247906   5.651   0.531   9.022 -0.9652  0.8230  2.3435
15489SOL     OW47907   4.608   5.880   6.182 -0.3033 -0.0675 -0.5718
15489SOL    HW147908   4.645   5.793   6.194  0.6151  0.2511 -1.0534
15489SOL    HW247909   4.659   5.919   6.111  0.5212  1.5521  0.8418
15490SOL     OW47910   4.285   6.270   8.297 -0.0911  0.0433 -0.0022
15490SOL    HW147911   4.296   6.231   8.384 -0.7939 -0.0490  0.0564
15490SOL    HW247912   4.360   6.328   8.286 -0.0140  0.0770  0.6802
15491SOL     OW47913   2.439   4.773   4.628  0.3588 -0.1770  0.2136
15491SOL    HW147914   2.390   4.748   4.706  2.3720 -0.4136  1.4883
15491SOL    HW247915   2.382   4.834   4.582 -0.7734  0.2437  2.0678
15492SOL     OW47916   3.919   5.950   6.985  0.1345 -0.2482  0.2891
15492SOL    HW147917   3.928   5.855   6.989 -0.6407 -0.3042  0.9757
15492SOL    HW247918   3.907   5.977   7.076  1.3162  0.6194  0.2135
15493SOL     OW47919   5.376   6.212   5.547  0.0546  0.9956 -0.3906
15493SOL    HW147920   5.348   6.120   5.554  0.1953  0.9877  0.1551
15493SOL    HW247921   5.326   6.257   5.614  2.0589  0.7945  1.3737
15494SOL     OW47922   0.023   2.029   9.493 -0.2039  1.0054 -0.3936
15494SOL    HW147923  -0.041   2.041   9.423 -0.5148 -1.2040 -0.5513
15494SOL    HW247924   0.030   2.115   9.534 -0.4966  2.2145 -2.6994
15495SOL     OW47925   0.467   6.145   9.728 -0.5304  0.5914  0.2762
15495SOL    HW147926   0.395   6.197   9.693  0.2881  2.0141  0.6388
15495SOL    HW247927   0.536   6.208   9.747  0.5922 -0.6592  0.5349
15496SOL     OW47928   0.563   6.328   3.131  0.0317 -0.2116 -0.2071
15496SOL    HW147929   0.616   6.316   3.209  3.3726 -0.2281 -2.2782
15496SOL    HW247930   0.598   6.265   3.067 -4.2018 -2.0632 -1.1363
15497SOL     OW47931   3.920   1.372   0.862  0.0583 -0.0013 -0.3073
15497SOL    HW147932   3.965   1.401   0.783 -0.3855 -0.4781 -0.7492
15497SOL    HW247933   3.965   1.291   0.886 -0.8594 -0.7631 -1.0512
15498SOL     OW47934   0.969   7.629   3.460  0.3503 -0.0421 -0.3136
15498SOL    HW147935   1.037   7.597   3.401  0.8079  0.3783 -0.0276
15498SOL    HW247936   1.009   7.623   3.547 -0.2221 -0.4103 -0.0755
15499SOL     OW47937   1.756   0.679   3.254 -0.4082 -0.4722  0.3610
15499SOL    HW147938   1.792   0.605   3.205 -1.2611 -0.6189 -0.0639
15499SOL    HW247939   1.818   0.750   3.239  0.9508 -1.3339  1.5653
15500SOL     OW47940   1.006   3.537  10.284  0.1364 -0.2803 -0.7308
15500SOL    HW147941   1.058   3.529  10.204  0.8121 -0.8815 -0.2344
15500SOL    HW247942   0.999   3.448  10.318  0.3776  0.0448  0.2126
15501SOL     OW47943   1.076   0.829   8.427 -0.2972 -0.2093  1.0627
15501SOL    HW147944   1.014   0.900   8.442 -1.5233 -0.8305 -0.8324
15501SOL    HW247945   1.098   0.835   8.334  0.0913 -1.9012  1.0137
15502SOL     OW47946   7.119   1.070   0.503  0.1184 -0.7998  0.0324
15502SOL    HW147947   7.195   1.027   0.464  0.2061  0.0709 -0.7981
15502SOL    HW247948   7.066   1.097   0.428  0.3493  1.0256  0.4756
15503SOL     OW47949   4.226   7.977   1.678  0.0062 -0.5085  0.1498
15503SOL    HW147950   4.182   7.895   1.654 -0.9742 -0.0557  0.3623
15503SOL    HW247951   4.203   7.991   1.770 -0.8103  0.6066 -0.2060
15504SOL     OW47952   2.380   1.985   6.923 -0.1121  0.1448  0.1941
15504SOL    HW147953   2.329   1.928   6.981 -1.8005  0.5542 -0.8159
15504SOL    HW247954   2.373   2.072   6.963 -0.5231  0.2660 -0.1345
15505SOL     OW47955   7.154   1.694   9.824 -0.1588  0.5870  0.2438
15505SOL    HW147956   7.203   1.612   9.831 -0.8378  0.3287  3.5963
15505SOL    HW247957   7.220   1.760   9.803  1.2021 -0.1619  2.0127
15506SOL     OW47958   2.838   0.903   4.389  0.3407 -0.2556 -0.1045
15506SOL    HW147959   2.822   0.812   4.366 -1.8597 -0.0080  0.2280
15506SOL    HW247960   2.822   0.951   4.308  1.1962 -0.1382 -0.2044
15507SOL     OW47961   7.060   4.158   4.460 -0.2905  0.1868  0.3120
15507SOL    HW147962   7.022   4.240   4.429  0.1458  1.4971  3.0083
15507SOL    HW247963   6.989   4.094   4.451 -1.2656  1.2880 -0.0615
15508SOL     OW47964   2.593   2.079   9.239  0.4794  0.3904  0.2436
15508SOL    HW147965   2.647   2.154   9.219 -0.5071  0.7232 -1.3113
15508SOL    HW247966   2.606   2.019   9.165 -2.1932  1.0377 -0.8461
15509SOL     OW47967   7.340   2.173   5.414 -0.2609 -0.3920 -0.2339
15509SOL    HW147968   7.309   2.251   5.462  1.2790 -0.6548  1.2951
15509SOL    HW247969   7.326   2.195   5.322  0.6980  1.9880  0.1137
15510SOL     OW47970   0.730   5.360   8.136  0.4386  0.0466 -0.1485
15510SOL    HW147971   0.818   5.335   8.165  1.0426 -0.2094 -2.0937
15510SOL    HW247972   0.680   5.370   8.218  1.5352 -2.4206  0.9362
15511SOL     OW47973   4.246   2.590   2.179 -0.4065 -0.0333  0.5868
15511SOL    HW147974   4.224   2.499   2.162  2.1227 -0.1698 -3.1550
15511SOL    HW247975   4.173   2.640   2.141  0.5873 -0.5661 -2.2607
15512SOL     OW47976   7.399   7.829   8.500  0.2967  0.0369 -0.3768
15512SOL    HW147977   7.315   7.851   8.541  0.0199  0.0295 -0.9257
15512SOL    HW247978   7.375   7.802   8.411  0.6904 -1.6595 -0.0075
15513SOL     OW47979   6.153   3.424   9.323 -0.4632  0.5032  0.0985
15513SOL    HW147980   6.211   3.474   9.266 -0.5957  0.1194 -0.3836
15513SOL    HW247981   6.119   3.488   9.385  0.8115  0.6635  0.6754
15514SOL     OW47982   4.773   2.354   4.976 -0.6919  0.3991  0.1932
15514SOL    HW147983   4.839   2.420   4.957 -2.3142  1.8690 -0.6699
15514SOL    HW247984   4.742   2.325   4.890  0.0834 -1.6708  0.5436
15515SOL     OW47985   2.859   1.288   8.030  0.4604  0.2510  0.0436
15515SOL    HW147986   2.864   1.192   8.028  1.6454  0.3158 -1.5154
15515SOL    HW247987   2.768   1.306   8.053  0.1661 -1.2518  0.1699
15516SOL     OW47988   6.235   0.690   4.380 -0.7884  0.1618  0.2065
15516SOL    HW147989   6.298   0.708   4.450 -2.9041  0.2319  2.2133
15516SOL    HW247990   6.168   0.636   4.421 -1.5170 -0.8425 -2.1361
15517SOL     OW47991   3.887   5.012   9.020 -0.0473  0.1298  0.3408
15517SOL    HW147992   3.821   4.943   9.021  0.6362 -0.5309  0.9318
15517SOL    HW247993   3.916   5.016   8.929 -1.3649  0.8987 -0.0704
15518SOL     OW47994   1.617   2.952   2.113  0.3929  0.2070  0.7565
15518SOL    HW147995   1.658   2.996   2.187 -0.7023  1.1348  0.8360
15518SOL    HW247996   1.665   2.983   2.037  0.6844  0.2662  0.9656
15519SOL     OW47997   0.048   3.998  11.813 -0.0478  0.5735 -0.2224
15519SOL    HW147998   0.001   3.926  11.772 -0.8547  0.4100  0.9418
15519SOL    HW247999   0.081   4.051  11.739 -0.2844 -0.4308 -1.0673
15520SOL     OW48000   7.498   2.537  10.967  0.0423  0.4068 -0.0763
15520SOL    HW148001   7.410   2.536  10.929 -0.2235  0.0012  0.5291
15520SOL    HW248002   7.557   2.537  10.891 -0.4609  2.1449 -0.5029
15521SOL     OW48003   2.874   5.180   4.494  0.7870  0.3104  0.5089
15521SOL    HW148004   2.835   5.211   4.576 -0.2237 -1.3630  0.6934
15521SOL    HW248005   2.957   5.141   4.521  0.9447  0.6895  0.5836
15522SOL     OW48006   2.630   1.376  10.163 -0.2619 -0.2166  0.0619
15522SOL    HW148007   2.537   1.363  10.182 -0.6472  0.7154 -1.0685
15522SOL    HW248008   2.635   1.382  10.068  1.0542 -0.8367  0.0673
15523SOL     OW48009   3.017   3.706  12.258  0.2797 -0.0900  0.2051
15523SOL    HW148010   3.010   3.709  12.353 -1.2012 -0.5911  0.1462
15523SOL    HW248011   3.109   3.723  12.240  0.6847 -0.4588  1.7464
15524SOL     OW48012   3.488   6.176  10.756  0.0308  0.1429 -0.3005
15524SOL    HW148013   3.507   6.204  10.666 -1.6160  0.5771 -0.5539
15524SOL    HW248014   3.422   6.108  10.746  1.0582 -1.0014  0.5281
15525SOL     OW48015   3.140   7.512   8.451  0.1115  1.2210 -0.1988
15525SOL    HW148016   3.217   7.457   8.436  0.1003  1.9635 -3.6416
15525SOL    HW248017   3.066   7.451   8.445  0.2463  0.5835  2.7078
15526SOL     OW48018   7.731   2.299   5.428 -0.1334  0.6431 -0.2089
15526SOL    HW148019   7.825   2.303   5.442 -0.0124  0.7196 -0.9942
15526SOL    HW248020   7.700   2.233   5.491  0.7770 -1.1653 -1.5595
15527SOL     OW48021   0.851   1.727   3.510 -0.3260 -0.2966 -0.0802
15527SOL    HW148022   0.884   1.706   3.598 -2.0026 -0.0432  0.6514
15527SOL    HW248023   0.893   1.811   3.489 -0.3068 -0.0851  0.7291
15528SOL     OW48024   2.340   5.800   5.100  0.1989 -0.0779  0.3228
15528SOL    HW148025   2.283   5.740   5.052  0.1912 -0.2181  0.5060
15528SOL    HW248026   2.280   5.860   5.144  0.2313  1.0634 -1.1265
15529SOL     OW48027   1.317   6.356   8.739 -0.1691  0.0933  0.2624
15529SOL    HW148028   1.319   6.419   8.810 -0.3653  1.5630 -0.9941
15529SOL    HW248029   1.395   6.376   8.687 -0.8950  0.1424 -0.8418
15530SOL     OW48030   4.328   4.840  10.188  0.3656 -0.5548  0.0969
15530SOL    HW148031   4.404   4.799  10.229 -0.4198 -0.1123  2.1077
15530SOL    HW248032   4.357   4.862  10.099  1.4733 -3.5063 -0.3906
15531SOL     OW48033   2.907   7.500   3.450  0.1645  0.0091 -0.2123
15531SOL    HW148034   2.837   7.520   3.512 -0.4350  0.8955 -1.1466
15531SOL    HW248035   2.879   7.420   3.406  0.0665 -0.0132 -0.1090
15532SOL     OW48036   1.992   3.416   9.586 -0.0593 -0.3605  1.0956
15532SOL    HW148037   2.064   3.459   9.539 -0.8348 -1.4743 -1.2583
15532SOL    HW248038   2.017   3.324   9.591 -1.6168 -0.9382 -0.5476
15533SOL     OW48039   5.574   6.961  10.422 -0.1304  0.5880  0.0779
15533SOL    HW148040   5.553   7.042  10.375 -1.8495 -0.0351 -0.3065
15533SOL    HW248041   5.525   6.893  10.376 -0.0494 -0.4154  1.4065
15534SOL     OW48042   3.090   7.742   2.559 -0.2164 -0.2480 -0.6722
15534SOL    HW148043   3.177   7.753   2.599 -0.6232  0.8893 -0.0740
15534SOL    HW248044   3.084   7.812   2.495 -0.2345 -1.0565 -1.5675
15535SOL     OW48045   6.908   1.971   9.540 -0.3716 -0.2046 -0.1794
15535SOL    HW148046   6.842   1.928   9.486  1.0405 -2.0774 -0.5576
15535SOL    HW248047   6.891   1.940   9.629 -0.7633  0.3230 -0.0699
15536SOL     OW48048   2.851   7.369   3.776  0.2893  0.0647 -0.2508
15536SOL    HW148049   2.795   7.331   3.709 -0.8747  0.3073  0.5513
15536SOL    HW248050   2.927   7.311   3.780 -0.0675 -0.4791 -1.1078
15537SOL     OW48051   5.206   0.221   3.889 -0.2222  0.0920 -0.3136
15537SOL    HW148052   5.147   0.236   3.815 -0.0862 -0.2604 -0.4950
15537SOL    HW248053   5.165   0.150   3.939 -1.1802  1.4167  0.8792
15538SOL     OW48054   3.631   6.999   1.864 -0.1077 -0.2670  0.6442
15538SOL    HW148055   3.558   7.031   1.811 -0.8098  1.7038  2.6548
15538SOL    HW248056   3.648   7.069   1.927  2.5675 -1.2907  1.2153
15539SOL     OW48057   6.554   3.253   7.007 -0.4680  0.2757  0.2031
15539SOL    HW148058   6.578   3.180   6.950  0.9051  2.7667 -2.6373
15539SOL    HW248059   6.572   3.220   7.096  1.2906 -2.3953 -1.0018
15540SOL     OW48060   6.034   3.260   1.215 -0.2868  0.0225 -0.1256
15540SOL    HW148061   6.118   3.260   1.260  1.1577 -0.4964 -2.6668
15540SOL    HW248062   5.970   3.240   1.284  1.7336 -0.4591  1.7080
15541SOL     OW48063   2.766   3.634   8.535  0.0614 -0.0434 -0.1072
15541SOL    HW148064   2.748   3.543   8.557  0.2730  0.2112  1.2149
15541SOL    HW248065   2.812   3.630   8.451  1.4315 -1.2684  0.6550
15542SOL     OW48066   5.597   5.250   6.118  0.5827  0.1210  0.2400
15542SOL    HW148067   5.680   5.209   6.098  0.8393  1.6826 -2.3131
15542SOL    HW248068   5.616   5.310   6.191  1.9598  1.1124 -0.8880
15543SOL     OW48069   1.117   5.362   8.468 -0.7708 -0.4743 -0.1926
15543SOL    HW148070   1.202   5.362   8.514 -2.0159 -0.5818  2.2988
15543SOL    HW248071   1.081   5.449   8.485 -1.1411 -0.3884 -1.3417
15544SOL     OW48072   2.058   0.044   1.325  0.3441  0.9063 -0.3972
15544SOL    HW148073   2.092  -0.017   1.390 -0.5975  2.1082  1.3125
15544SOL    HW248074   2.135   0.093   1.295  0.5334  1.8995  1.5669
15545SOL     OW48075   2.303   5.841   3.421 -0.2389 -0.2076 -0.0927
15545SOL    HW148076   2.210   5.830   3.441 -0.5423  0.6917 -0.9674
15545SOL    HW248077   2.317   5.936   3.419  0.3303 -0.2998 -1.6059
15546SOL     OW48078   5.361   2.810   9.936  0.3239 -0.3301 -0.0631
15546SOL    HW148079   5.275   2.769   9.931 -0.0882  0.3974  0.8174
15546SOL    HW248080   5.419   2.741   9.968  0.0459 -0.7742 -0.4996
15547SOL     OW48081   1.757   2.429   2.002 -0.3769 -0.0151 -0.5366
15547SOL    HW148082   1.757   2.348   2.054  1.1504  0.4186  0.1746
15547SOL    HW248083   1.733   2.498   2.065  0.8818  0.4300 -0.5324
15548SOL     OW48084   1.206   5.732   1.751  0.1560 -0.3307  0.3686
15548SOL    HW148085   1.201   5.637   1.736 -2.2789 -0.3674  0.9313
15548SOL    HW248086   1.237   5.768   1.669  0.5594 -1.5853 -0.0476
15549SOL     OW48087   7.877   0.622  10.281  0.1155 -0.3626 -0.3854
15549SOL    HW148088   7.800   0.576  10.315 -0.1169 -1.1406 -1.9001
15549SOL    HW248089   7.950   0.589  10.334 -0.4491 -0.3410  0.4228
15550SOL     OW48090   3.861   5.374   7.133  0.4555 -0.4951  0.7494
15550SOL    HW148091   3.861   5.291   7.086 -2.5287 -0.1101 -0.1316
15550SOL    HW248092   3.952   5.403   7.131  1.0245 -2.1412 -1.8339
15551SOL     OW48093   6.161   7.100   5.212 -0.5951  0.6023 -0.3416
15551SOL    HW148094   6.146   7.020   5.162  0.7132 -0.5441  1.0118
15551SOL    HW248095   6.234   7.143   5.166 -1.1290  0.9182 -0.9160
15552SOL     OW48096   4.561   0.891   5.323  0.3891  0.3214 -0.6559
15552SOL    HW148097   4.619   0.967   5.331 -0.9429  1.2131  1.0926
15552SOL    HW248098   4.474   0.927   5.308 -0.1717 -0.8816 -0.4832
15553SOL     OW48099   5.579   6.388   2.739 -0.3881 -0.1533 -0.2863
15553SOL    HW148100   5.537   6.454   2.683 -1.9749 -0.8606  0.0116
15553SOL    HW248101   5.506   6.347   2.786  0.7394 -0.8338  0.9375
15554SOL     OW48102   6.618   0.945   5.734  0.2236 -0.0086 -0.3724
15554SOL    HW148103   6.589   1.004   5.804  1.2434 -0.1124  0.1609
15554SOL    HW248104   6.537   0.907   5.700 -0.3185  0.2240  0.6047
15555SOL     OW48105   7.479   5.033   4.685 -0.5134 -0.5441  0.1586
15555SOL    HW148106   7.574   5.029   4.674 -0.7116 -1.7951 -1.7978
15555SOL    HW248107   7.466   5.063   4.774  1.7276 -1.3117  0.8200
15556SOL     OW48108   5.249   7.642   9.645 -0.6116  0.1833  0.4659
15556SOL    HW148109   5.339   7.652   9.615 -0.9116  1.3910 -0.0990
15556SOL    HW248110   5.247   7.688   9.730 -0.5664 -0.3184  0.7413
15557SOL     OW48111   4.696   1.941  12.184 -0.0438  0.3468  0.4715
15557SOL    HW148112   4.725   1.894  12.106 -0.0347  2.0558 -0.5958
15557SOL    HW248113   4.628   2.000  12.153 -1.1275  0.0018  2.0501
15558SOL     OW48114   6.437   1.876  10.756 -0.0245 -0.4682  0.2889
15558SOL    HW148115   6.457   1.877  10.662 -1.6390  0.7222 -0.0908
15558SOL    HW248116   6.514   1.915  10.798 -1.1863  3.9811 -1.0881
15559SOL     OW48117   1.095   3.645   2.022  0.2313 -0.1339 -0.2879
15559SOL    HW148118   1.130   3.583   1.958  0.3998  0.6432 -0.9690
15559SOL    HW248119   1.056   3.715   1.969  0.5731  0.6348  0.4472
15560SOL     OW48120   7.028   1.792   2.237 -0.0840  0.2106 -0.3582
15560SOL    HW148121   6.975   1.804   2.316  0.0251  0.4637 -0.3212
15560SOL    HW248122   6.973   1.741   2.178 -0.0251 -0.3054  0.0274
15561SOL     OW48123   5.995   1.076   2.625  0.6603 -0.4614 -0.4243
15561SOL    HW148124   6.063   1.014   2.599  0.4436 -0.5226 -0.8556
15561SOL    HW248125   5.932   1.075   2.553  0.9348  0.6734 -0.7084
15562SOL     OW48126   7.935   3.775   9.110 -0.3752  0.0132 -0.0184
15562SOL    HW148127   7.997   3.794   9.180  1.0057  0.4642 -1.3083
15562SOL    HW248128   7.855   3.747   9.155  1.0716 -1.6319  1.6689
15563SOL     OW48129   1.567   7.598   6.026 -0.5605 -0.0338  0.5463
15563SOL    HW148130   1.647   7.586   5.975 -0.2893  0.1804  0.9186
15563SOL    HW248131   1.558   7.693   6.035 -2.6113  0.1364 -2.2511
15564SOL     OW48132   2.259   4.926   5.970 -0.0762 -0.0924 -0.3470
15564SOL    HW148133   2.343   4.966   5.992  0.0871 -0.2759 -0.6312
15564SOL    HW248134   2.264   4.837   6.006  1.1763 -1.2919 -3.1383
15565SOL     OW48135   5.365   3.157  12.302 -0.0728 -0.1482  0.0635
15565SOL    HW148136   5.433   3.124  12.244 -0.7616  0.6287 -1.2561
15565SOL    HW248137   5.353   3.249  12.275 -0.6865  0.1218  1.1853
15566SOL     OW48138   7.480   1.768   3.096  0.6775  0.2028 -0.1152
15566SOL    HW148139   7.393   1.794   3.125  1.7021  1.4429  2.0717
15566SOL    HW248140   7.519   1.725   3.172  1.4615 -1.8282 -1.5478
15567SOL     OW48141   6.398   5.699   4.474 -0.0172 -0.2468  0.3641
15567SOL    HW148142   6.491   5.723   4.481  0.0216  0.0459 -0.8884
15567SOL    HW248143   6.363   5.712   4.562  1.0284  0.0746  0.7490
15568SOL     OW48144   7.753   2.887   7.544 -0.7983  0.0637  0.2374
15568SOL    HW148145   7.724   2.978   7.554 -2.6737 -0.7007  2.6186
15568SOL    HW248146   7.673   2.838   7.524  0.0649 -1.1774 -0.3057
15569SOL     OW48147   3.683   0.462   5.184  0.2154 -0.1878 -0.0092
15569SOL    HW148148   3.715   0.534   5.128  2.0032  0.0610  1.2482
15569SOL    HW248149   3.654   0.395   5.122 -2.4128  1.9212 -1.2359
15570SOL     OW48150   0.210   5.759   9.145 -0.2780  0.5050 -0.3004
15570SOL    HW148151   0.200   5.768   9.051  4.0489  1.0547 -0.9082
15570SOL    HW248152   0.241   5.669   9.158  0.9959  1.0058  0.3098
15571SOL     OW48153   2.384   4.173   3.642  0.7915  0.2279 -0.9094
15571SOL    HW148154   2.478   4.180   3.656  0.6309  0.5007  0.1591
15571SOL    HW248155   2.367   4.080   3.630  1.0347  0.0112  0.3036
15572SOL     OW48156   4.055   1.193   7.797  0.3209 -0.0177  0.1377
15572SOL    HW148157   4.122   1.261   7.798  0.0879  0.2112  0.3298
15572SOL    HW248158   4.089   1.126   7.738  0.5515  0.2643 -0.0479
15573SOL     OW48159   3.395   5.529   6.890  0.3729  0.0369 -0.5868
15573SOL    HW148160   3.447   5.600   6.851 -0.8618  0.4115 -1.6378
15573SOL    HW248161   3.325   5.574   6.938 -0.4942 -0.4403 -1.3670
15574SOL     OW48162   0.741   7.634  11.581 -0.3138  0.7005  0.6108
15574SOL    HW148163   0.785   7.718  11.590  0.6659  0.3269 -0.4105
15574SOL    HW248164   0.669   7.637  11.644  1.1546  1.3332  2.3437
15575SOL     OW48165   6.395   3.202   0.474  0.2898  0.2790  0.7393
15575SOL    HW148166   6.386   3.295   0.494  0.6093  0.1626  1.4519
15575SOL    HW248167   6.315   3.162   0.508 -0.7178  0.5388 -1.2254
15576SOL     OW48168   1.767   2.414   6.680  0.7976  0.4018  0.4513
15576SOL    HW148169   1.674   2.395   6.671  1.0269 -0.6598  0.2072
15576SOL    HW248170   1.774   2.509   6.669 -0.2423  0.4806  0.4244
15577SOL     OW48171   3.023   0.741  11.495 -0.0898 -0.2430  0.1370
15577SOL    HW148172   3.054   0.659  11.456  0.8698 -0.2451  0.8731
15577SOL    HW248173   3.085   0.807  11.462 -1.4741  0.3906 -1.3104
15578SOL     OW48174   0.424   6.262   9.051  0.4326  0.5135 -0.1411
15578SOL    HW148175   0.352   6.322   9.034  1.3793  1.7555  0.1300
15578SOL    HW248176   0.397   6.213   9.128  0.3779  1.8380  0.7159
15579SOL     OW48177   5.896   6.673   6.960  0.5037  0.0657 -0.6478
15579SOL    HW148178   5.826   6.737   6.974 -0.1071 -0.4476 -1.2562
15579SOL    HW248179   5.910   6.633   7.045  0.7739  0.8908 -0.3012
15580SOL     OW48180   2.677   6.236   4.597 -0.1774  0.0180 -0.7178
15580SOL    HW148181   2.631   6.247   4.681  0.4995  0.9045 -0.4461
15580SOL    HW248182   2.730   6.157   4.609  0.7887  0.7574  0.1339
15581SOL     OW48183   6.431   5.369   2.054  0.1581  0.3048 -0.1252
15581SOL    HW148184   6.518   5.379   2.017  0.1503 -0.6233 -0.4024
15581SOL    HW248185   6.422   5.275   2.072 -0.4793  0.4990  0.6413
15582SOL     OW48186   3.654   1.719   9.870 -0.3482  0.1250 -0.4052
15582SOL    HW148187   3.608   1.667   9.804 -3.2365 -0.1925  1.6535
15582SOL    HW248188   3.661   1.662   9.946 -0.0370  1.4839  0.6366
15583SOL     OW48189   7.963   4.206   9.454  0.6058 -0.1097  0.2122
15583SOL    HW148190   7.906   4.171   9.386  2.1772 -1.1352 -0.6304
15583SOL    HW248191   8.000   4.128   9.497  1.6936  0.5192  0.4510
15584SOL     OW48192   3.059   1.108   6.693 -0.3079  0.6413  0.0100
15584SOL    HW148193   3.095   1.101   6.604  1.7290 -0.0666  0.8285
15584SOL    HW248194   3.002   1.032   6.702 -0.4429  0.6597 -0.6617
15585SOL     OW48195   5.123   1.568   7.103  0.4306  0.4363 -0.0175
15585SOL    HW148196   5.027   1.565   7.101  0.4001  1.3319 -2.1979
15585SOL    HW248197   5.150   1.518   7.026  1.7638 -0.3532  0.9313
15586SOL     OW48198   1.838   4.237   4.314 -0.4637 -0.1520  0.0274
15586SOL    HW148199   1.821   4.293   4.238  2.8466 -0.1605 -0.8620
15586SOL    HW248200   1.887   4.293   4.374  2.0907 -1.7164 -0.4742
15587SOL     OW48201   6.049   7.881   5.269  0.0945 -0.1899 -0.2294
15587SOL    HW148202   6.014   7.927   5.193 -0.7049 -0.9549 -0.3411
15587SOL    HW248203   5.973   7.864   5.324  0.4497 -0.9421  0.0390
15588SOL     OW48204   3.660   7.390   0.598 -0.2101 -0.2397 -0.1289
15588SOL    HW148205   3.586   7.425   0.548  0.6434  0.7802 -0.7091
15588SOL    HW248206   3.733   7.390   0.536  0.9420  1.3278  1.1429
15589SOL     OW48207   7.496   2.042   6.492  0.5327  0.0898 -0.1618
15589SOL    HW148208   7.481   2.032   6.398 -1.0805  1.0140 -0.0300
15589SOL    HW248209   7.528   2.132   6.502 -0.6723  0.4770  0.3068
15590SOL     OW48210   2.839   4.154   9.612 -0.2829  0.2586 -0.2776
15590SOL    HW148211   2.867   4.239   9.580  1.8316 -0.0775  0.5067
15590SOL    HW248212   2.829   4.165   9.706  1.1330 -0.5939  0.0042
15591SOL     OW48213   0.449   5.992   0.823 -0.5156  0.0677  0.1839
15591SOL    HW148214   0.520   6.055   0.810 -0.1377 -0.2390  0.7500
15591SOL    HW248215   0.414   6.012   0.909 -2.2039  1.2687 -0.7067
15592SOL     OW48216   1.111   3.122   3.927 -0.2942 -0.1462  0.0295
15592SOL    HW148217   1.125   3.182   4.001 -1.7404  0.4386 -0.1299
15592SOL    HW248218   1.148   3.039   3.956  0.3344  0.4213  0.8937
15593SOL     OW48219   1.991   0.177   3.972 -0.1967  0.1262  0.2541
15593SOL    HW148220   1.933   0.241   4.013 -0.2511  0.8033 -0.8569
15593SOL    HW248221   2.079   0.210   3.989 -0.0819 -1.0094  2.1202
15594SOL     OW48222   3.868   0.135   8.295  0.1755 -0.0344 -0.0308
15594SOL    HW148223   3.902   0.205   8.239 -0.2525  0.3636  0.2062
15594SOL    HW248224   3.880   0.055   8.243  0.3933  0.2483 -0.4211
15595SOL     OW48225   4.669   3.200   0.292  0.4365  0.5203  0.4217
15595SOL    HW148226   4.650   3.109   0.313  2.0211 -0.0417 -0.4214
15595SOL    HW248227   4.762   3.201   0.270  0.4939  2.3763  0.5404
15596SOL     OW48228   1.871   3.510  12.357 -0.7502  0.1020 -0.0197
15596SOL    HW148229   1.812   3.538  12.426 -0.3764 -0.3253  0.4871
15596SOL    HW248230   1.959   3.525  12.393 -0.5456  0.6482 -0.7241
15597SOL     OW48231   6.622   3.117   6.197  0.0642 -0.1222 -0.1905
15597SOL    HW148232   6.627   3.024   6.220 -0.2928 -0.0591  0.1632
15597SOL    HW248233   6.640   3.163   6.279  2.3222  0.1521 -0.7926
15598SOL     OW48234   5.838   2.012   0.152 -0.4877 -0.3820  0.0607
15598SOL    HW148235   5.871   2.102   0.155 -0.4080 -0.2286 -2.8389
15598SOL    HW248236   5.915   1.958   0.167  0.2956  0.0513 -2.0176
15599SOL     OW48237   0.069   0.943   2.913  0.4064  0.1257 -0.0200
15599SOL    HW148238   0.111   0.909   2.992 -0.4633  0.4714  0.6070
15599SOL    HW248239   0.107   1.030   2.901 -2.1268  1.6990  2.2392
15600SOL     OW48240   4.824   5.001   4.851 -0.2957  0.1142  0.6116
15600SOL    HW148241   4.903   4.947   4.851  0.9193  1.6969  3.0092
15600SOL    HW248242   4.835   5.057   4.774 -0.0142 -0.8953 -0.1097
15601SOL     OW48243   3.524   7.282   8.063  0.4135 -0.1546 -0.1096
15601SOL    HW148244   3.495   7.241   8.145  0.5597 -0.4831 -0.2191
15601SOL    HW248245   3.562   7.210   8.013  1.0260  0.1870 -0.1457
15602SOL     OW48246   0.538   4.611   4.763  0.1913 -0.0512  0.2432
15602SOL    HW148247   0.442   4.613   4.758  0.2137 -0.9031 -1.1069
15602SOL    HW248248   0.562   4.531   4.717  1.5332 -0.1926  1.1497
15603SOL     OW48249   0.718   3.223  12.090 -0.3791 -0.1419 -0.6988
15603SOL    HW148250   0.809   3.203  12.112 -1.2116 -0.9421  2.4737
15603SOL    HW248251   0.696   3.161  12.021  1.1990 -0.6002 -0.8308
15604SOL     OW48252   5.317   0.305  12.137 -0.3667 -0.6982 -0.7943
15604SOL    HW148253   5.270   0.373  12.088 -1.5214 -0.2436  0.8362
15604SOL    HW248254   5.316   0.336  12.228  1.8054 -1.4349 -0.4517
15605SOL     OW48255   1.934   5.473   0.632 -0.0092 -0.6716  0.5341
15605SOL    HW148256   1.880   5.400   0.603 -1.1467 -0.1961  1.3741
15605SOL    HW248257   1.978   5.440   0.710 -0.6745 -0.4229  1.0285
15606SOL     OW48258   7.781   5.121   7.300 -0.5117 -0.2363 -0.3834
15606SOL    HW148259   7.719   5.140   7.370 -0.9283 -0.5558 -0.6600
15606SOL    HW248260   7.772   5.194   7.239  0.1730  0.2672  0.1122
15607SOL     OW48261   6.312   3.989  10.730  0.1909 -0.0569 -0.0580
15607SOL    HW148262   6.270   4.030  10.653 -0.2568  1.4473  0.9353
15607SOL    HW248263   6.399   4.029  10.733  0.0060  0.3220  0.5140
15608SOL     OW48264   3.832   1.451   1.117  0.0791  0.0059  0.8027
15608SOL    HW148265   3.859   1.543   1.125 -2.1518  1.0047 -1.6479
15608SOL    HW248266   3.845   1.431   1.024 -2.5768 -1.0453  0.5790
15609SOL     OW48267   5.455   0.993   6.532 -0.0323  0.1288  0.2663
15609SOL    HW148268   5.400   0.994   6.610 -1.3711  0.8008 -0.6477
15609SOL    HW248269   5.531   1.047   6.555 -0.5996  0.6465  0.9682
15610SOL     OW48270   7.501   2.242  10.743  0.2151  0.1727 -0.1909
15610SOL    HW148271   7.567   2.209  10.804 -0.2955  0.2729  0.4304
15610SOL    HW248272   7.438   2.288  10.799 -0.5861 -0.2604 -0.7236
15611SOL     OW48273   5.844   2.415   9.126 -0.0520  0.1324  0.2760
15611SOL    HW148274   5.906   2.404   9.054 -1.3681 -0.8745 -0.7527
15611SOL    HW248275   5.798   2.496   9.106 -0.9676 -0.5443 -0.5089
15612SOL     OW48276   0.529   7.666  12.349  1.1504  0.3972 -0.0723
15612SOL    HW148277   0.558   7.660  12.440 -0.2729 -0.9684  0.3267
15612SOL    HW248278   0.498   7.578  12.328  1.4292  0.7046 -1.8782
15613SOL     OW48279   4.725   3.965   7.885 -0.1977 -0.0791 -0.4140
15613SOL    HW148280   4.801   3.912   7.864  0.3911  1.0177 -1.1603
15613SOL    HW248281   4.740   3.996   7.974 -0.1631 -0.5111 -0.2694
15614SOL     OW48282   4.709   4.709   7.263  0.3346 -0.1753  0.4914
15614SOL    HW148283   4.694   4.725   7.356  1.3873  1.2976  0.4292
15614SOL    HW248284   4.621   4.696   7.227 -0.1120 -0.3249  1.6035
15615SOL     OW48285   4.145   3.002   9.467  0.4559 -0.0171 -0.3463
15615SOL    HW148286   4.054   3.002   9.437  0.0680  1.7577  0.7186
15615SOL    HW248287   4.178   2.916   9.440 -1.1295 -0.1981 -1.9086
15616SOL     OW48288   1.249   1.494   1.426  0.1558 -0.0954 -0.2659
15616SOL    HW148289   1.284   1.446   1.351 -0.0873 -0.7052  0.0065
15616SOL    HW248290   1.241   1.428   1.495  0.5062  0.4853  0.3381
15617SOL     OW48291   0.842   7.143  11.940 -0.5289 -0.4627  0.2102
15617SOL    HW148292   0.861   7.050  11.926 -0.8791 -0.6753  1.0848
15617SOL    HW248293   0.828   7.151  12.034 -2.8791  0.0190 -0.1173
15618SOL     OW48294   0.999   0.591  10.875  0.3536 -0.4125 -0.0802
15618SOL    HW148295   1.050   0.670  10.888 -0.7427  0.3207 -0.0968
15618SOL    HW248296   0.978   0.590  10.781 -1.2385  0.3177  0.2412
15619SOL     OW48297   7.547   0.633   6.882  0.1921  0.2337  0.4012
15619SOL    HW148298   7.640   0.656   6.877 -0.1208  1.9004  1.6511
15619SOL    HW248299   7.522   0.617   6.791  1.6432 -0.0431  0.0252
15620SOL     OW48300   3.703   0.587  12.208  0.3703 -0.0246  0.7256
15620SOL    HW148301   3.653   0.617  12.133 -0.0933  1.0104  1.4340
15620SOL    HW248302   3.644   0.595  12.283  1.4074  0.7445  1.4997
15621SOL     OW48303   1.583   5.829   5.645 -0.3459 -0.0042  0.2150
15621SOL    HW148304   1.554   5.834   5.554  0.3838  0.3545 -0.0078
15621SOL    HW248305   1.669   5.871   5.645  0.0686 -0.8197  0.8992
15622SOL     OW48306   5.953   5.687  10.668 -0.3554 -0.1946  0.6866
15622SOL    HW148307   5.920   5.745  10.599  0.0734 -0.4542  0.2594
15622SOL    HW248308   5.931   5.732  10.750 -1.1775 -0.0471  0.3956
15623SOL     OW48309   2.940   3.170  11.633  0.0470 -0.5170 -0.3116
15623SOL    HW148310   2.899   3.225  11.567 -0.8226 -0.4260  0.2926
15623SOL    HW248311   2.984   3.101  11.583  2.7890  1.7193 -1.2138
15624SOL     OW48312   5.055   3.318   6.033 -0.3099 -0.6063 -0.6149
15624SOL    HW148313   5.149   3.314   6.014 -0.4043  0.2418 -1.3511
15624SOL    HW248314   5.019   3.375   5.964 -1.3091 -0.6408 -0.1431
15625SOL     OW48315   0.329   5.511   9.540 -0.1600 -0.0417 -0.0081
15625SOL    HW148316   0.262   5.495   9.474 -0.0970 -0.3180 -0.0067
15625SOL    HW248317   0.280   5.525   9.621 -0.2413  0.3822 -0.1257
15626SOL     OW48318   4.674   6.260   7.651 -0.0518  1.0950 -0.3517
15626SOL    HW148319   4.760   6.226   7.624 -0.7476 -1.3159  0.2628
15626SOL    HW248320   4.693   6.347   7.686  2.5728 -0.2599  2.0066
15627SOL     OW48321   2.849   3.108   2.499  0.0953 -0.1707  0.8465
15627SOL    HW148322   2.865   3.194   2.460  1.0839 -1.1239 -0.9785
15627SOL    HW248323   2.754   3.103   2.508 -0.1639  0.2947 -1.0897
15628SOL     OW48324   0.182   6.752   5.015  0.4381 -0.2114 -0.3512
15628SOL    HW148325   0.200   6.680   4.954 -0.4516 -0.7712  0.0202
15628SOL    HW248326   0.243   6.737   5.087  2.1624  0.9975 -1.4775
15629SOL     OW48327   4.626   2.275   1.534 -0.0463 -0.2117 -0.1083
15629SOL    HW148328   4.620   2.346   1.470 -0.7178 -0.9309 -0.8688
15629SOL    HW248329   4.568   2.303   1.605 -1.7575 -0.7809 -1.2123
15630SOL     OW48330   2.815   0.437  10.730 -0.1451  0.3384  0.1895
15630SOL    HW148331   2.842   0.348  10.756 -1.2052 -0.1295 -0.2555
15630SOL    HW248332   2.721   0.430  10.716 -0.1050  1.3382 -0.6786
15631SOL     OW48333   0.958   2.757  11.285 -0.3543 -0.9758 -0.3016
15631SOL    HW148334   0.999   2.841  11.304 -0.5270 -1.0201  0.2746
15631SOL    HW248335   1.032   2.696  11.279 -0.3430 -1.1487  1.2247
15632SOL     OW48336   3.288   2.776   8.248 -0.4788 -0.4893  0.5418
15632SOL    HW148337   3.231   2.813   8.316 -1.6805 -1.6861  0.2221
15632SOL    HW248338   3.229   2.733   8.187  0.7347 -1.3322 -0.0910
15633SOL     OW48339   2.153   1.270   9.962  0.0462 -0.5942  0.3230
15633SOL    HW148340   2.168   1.365   9.970  1.2606 -0.6846 -0.5919
15633SOL    HW248341   2.187   1.248   9.875  0.6286 -2.0324  0.8865
15634SOL     OW48342   2.259   6.972  10.549  0.2804  0.6186  0.1261
15634SOL    HW148343   2.338   7.005  10.505  0.1949 -1.1683 -1.4733
15634SOL    HW248344   2.187   7.002  10.494 -0.1933  1.8309  1.3267
15635SOL     OW48345   0.269   4.201   3.635  0.1252 -0.4749 -0.6884
15635SOL    HW148346   0.250   4.165   3.549  0.2495 -0.4106 -0.7437
15635SOL    HW248347   0.206   4.272   3.646  0.0667 -0.5254 -0.6993
15636SOL     OW48348   5.980   1.765   3.167  0.6248  0.1395  0.0108
15636SOL    HW148349   5.914   1.705   3.202  0.7902 -0.6197 -0.9393
15636SOL    HW248350   5.977   1.841   3.225  0.5311 -0.8559  1.3382
15637SOL     OW48351   6.717   4.717   0.467 -0.2079 -0.2797 -0.0019
15637SOL    HW148352   6.711   4.808   0.437  0.4332 -0.8333 -1.9447
15637SOL    HW248353   6.672   4.667   0.400  2.2653 -1.7173 -0.6850
15638SOL     OW48354   4.844   4.110   5.553 -0.4206 -0.0423 -0.3850
15638SOL    HW148355   4.915   4.165   5.520  0.0610 -0.7772 -0.5781
15638SOL    HW248356   4.867   4.021   5.527 -2.2241 -0.1316 -1.8794
15639SOL     OW48357   7.652   1.462   3.129 -0.3711 -0.4014 -0.4143
15639SOL    HW148358   7.647   1.527   3.200 -1.0383 -1.5217  0.6054
15639SOL    HW248359   7.575   1.406   3.143 -0.6748 -0.4838 -2.2063
15640SOL     OW48360   6.914   0.734   8.947  0.1660  0.2049 -0.3968
15640SOL    HW148361   6.828   0.772   8.930  0.0666  0.6280  0.9445
15640SOL    HW248362   6.940   0.769   9.033  0.9621 -1.1758 -0.0375
15641SOL     OW48363   1.974   1.994   3.142  0.1934 -0.1251 -0.3051
15641SOL    HW148364   2.041   1.926   3.136  1.6337  1.1932  0.2665
15641SOL    HW248365   1.986   2.047   3.063  0.1052  0.3838  0.0209
15642SOL     OW48366   7.971   6.287   1.556  0.2493  0.0235  0.2232
15642SOL    HW148367   7.999   6.199   1.532  2.1782  0.0168  2.1251
15642SOL    HW248368   7.996   6.295   1.648 -2.6385  1.5234  1.0162
15643SOL     OW48369   6.978   0.908  11.290  0.6572 -0.2189 -0.1557
15643SOL    HW148370   6.966   0.941  11.379  0.2830 -0.3436 -0.1582
15643SOL    HW248371   7.037   0.971  11.248  0.5680  0.0188  0.0778
15644SOL     OW48372   5.208   5.724   4.441  0.3812 -0.2263  0.4554
15644SOL    HW148373   5.125   5.709   4.395  1.8167 -1.7154 -1.8845
15644SOL    HW248374   5.183   5.749   4.530 -2.5585  0.3852 -0.4462
15645SOL     OW48375   7.561   7.863  10.166 -0.1735 -0.2569  0.1019
15645SOL    HW148376   7.621   7.789  10.159 -0.4741 -0.4874 -0.0751
15645SOL    HW248377   7.504   7.855  10.089  0.1312  0.4604 -0.2106
15646SOL     OW48378   0.866   0.396  11.452 -0.0776  0.0532  0.1792
15646SOL    HW148379   0.885   0.470  11.394  2.4236 -0.4212  0.2638
15646SOL    HW248380   0.777   0.370  11.429  0.5996  0.1972 -3.1714
15647SOL     OW48381   4.852   6.321   5.500  0.1182 -0.2128 -0.6718
15647SOL    HW148382   4.936   6.333   5.455  0.3655  1.1138  0.0905
15647SOL    HW248383   4.793   6.287   5.432  1.4379 -1.8754 -1.0420
15648SOL     OW48384   6.036   7.982   0.670  0.2188  0.2057 -0.2356
15648SOL    HW148385   6.117   8.005   0.715  0.2029 -0.4562  0.1406
15648SOL    HW248386   6.036   8.036   0.591  0.1758  1.4849  0.6141
15649SOL     OW48387   1.094   2.250   2.381  0.0892  0.3194  0.6589
15649SOL    HW148388   1.160   2.308   2.419  0.6302  0.2440 -0.1429
15649SOL    HW248389   1.057   2.203   2.455  0.3273  0.9939  1.2126
15650SOL     OW48390   5.518   5.566   7.865  0.4251 -0.0894 -0.4790
15650SOL    HW148391   5.465   5.615   7.803  0.4909  0.1115 -0.3798
15650SOL    HW248392   5.589   5.528   7.813  1.8047  1.9542 -0.2131
15651SOL     OW48393   0.997   3.893   9.903 -0.0567  0.2496 -0.2729
15651SOL    HW148394   1.007   3.984   9.931 -2.3176  0.1566  1.1373
15651SOL    HW248395   0.992   3.843   9.985  2.5583 -1.4188 -1.0073
15652SOL     OW48396   6.752   4.127   9.762 -0.1459 -0.2706 -0.0139
15652SOL    HW148397   6.715   4.195   9.819  1.3484  2.1787 -1.7645
15652SOL    HW248398   6.783   4.059   9.822 -1.8626  0.4664  1.8213
15653SOL     OW48399   0.862   4.589   0.625 -0.2609 -0.1402 -0.8158
15653SOL    HW148400   0.872   4.683   0.641 -1.2154 -0.1911  0.1797
15653SOL    HW248401   0.768   4.573   0.635 -0.1032 -1.2139 -0.9506
15654SOL     OW48402   5.923   4.297  10.624  0.1227 -0.3848 -0.1890
15654SOL    HW148403   5.934   4.331  10.713  0.1649  0.5527 -0.5417
15654SOL    HW248404   5.863   4.358  10.582 -2.1602 -2.3416  0.0118
15655SOL     OW48405   5.901   3.901   5.681  0.0429 -0.3607  0.7082
15655SOL    HW148406   5.993   3.929   5.684  0.1984 -0.4950 -1.3389
15655SOL    HW248407   5.905   3.807   5.662 -0.4858 -0.0317 -1.2085
15656SOL     OW48408   0.479   4.396   7.232 -0.7888 -0.1010 -0.0060
15656SOL    HW148409   0.493   4.314   7.280  0.9011 -0.1646 -0.5353
15656SOL    HW248410   0.550   4.398   7.167 -0.6509  1.8917  0.1515
15657SOL     OW48411   1.220   6.766   7.933 -0.3195 -0.1162  0.3083
15657SOL    HW148412   1.154   6.828   7.901  0.9689  1.1552  0.0319
15657SOL    HW248413   1.170   6.685   7.948 -1.8053  0.5644 -0.6137
15658SOL     OW48414   7.478   5.312   5.602 -0.4453 -0.4241 -0.2791
15658SOL    HW148415   7.384   5.297   5.593 -0.2833 -1.3016 -0.6232
15658SOL    HW248416   7.510   5.316   5.512 -0.4311  1.9710 -0.2420
15659SOL     OW48417   1.760   5.504   0.205  0.7123  0.3840 -0.1805
15659SOL    HW148418   1.847   5.522   0.240  0.6975 -1.9347  1.3161
15659SOL    HW248419   1.701   5.557   0.258  0.9783 -0.6458  1.2051
15660SOL     OW48420   5.476   7.337   5.716  0.0308 -0.0117  0.1112
15660SOL    HW148421   5.526   7.359   5.795 -1.7551 -0.9416  1.6023
15660SOL    HW248422   5.399   7.394   5.722 -0.4818 -0.6323 -0.5596
15661SOL     OW48423   5.837   4.386   1.838 -0.4443 -0.0786  0.8857
15661SOL    HW148424   5.896   4.410   1.909  1.0514  0.0052 -0.3214
15661SOL    HW248425   5.852   4.292   1.825 -0.6130 -0.0683  0.6066
15662SOL     OW48426   2.111   6.367   5.803  0.1595 -0.2068  0.6084
15662SOL    HW148427   2.106   6.287   5.750 -0.2844  0.9044 -1.0750
15662SOL    HW248428   2.021   6.400   5.805  0.5406  0.8660  0.3142
15663SOL     OW48429   5.919   0.114   9.559 -0.3465  0.0683  0.4965
15663SOL    HW148430   5.881   0.187   9.608  1.9264  0.8878  1.1713
15663SOL    HW248431   5.917   0.143   9.468  1.3084  1.4207  0.8389
15664SOL     OW48432   5.504   4.690  12.040  0.4122 -0.3248  0.2615
15664SOL    HW148433   5.495   4.710  12.134  3.9529 -0.0273  0.6892
15664SOL    HW248434   5.482   4.597  12.034 -1.1397 -0.0464  1.1242
15665SOL     OW48435   5.652   1.210  11.177  0.0924 -0.6398  0.3246
15665SOL    HW148436   5.661   1.135  11.235  0.0975 -0.1524  0.9588
15665SOL    HW248437   5.702   1.186  11.099  0.7431 -0.9760  0.8351
15666SOL     OW48438   4.342   1.453   9.239 -0.3556  0.1876 -0.5678
15666SOL    HW148439   4.370   1.393   9.307 -2.0872 -1.0956 -0.9262
15666SOL    HW248440   4.352   1.404   9.158 -2.7711 -0.0907 -0.7782
15667SOL     OW48441   0.641   4.387   3.295  0.2048  0.3837 -0.4628
15667SOL    HW148442   0.603   4.377   3.382  3.4521  0.6146  1.1178
15667SOL    HW248443   0.637   4.299   3.256 -0.6998  0.1438  0.1463
15668SOL     OW48444   2.622   6.235   5.757  0.2990 -0.1356 -0.1589
15668SOL    HW148445   2.701   6.202   5.713  0.4065 -0.8780  0.5863
15668SOL    HW248446   2.563   6.160   5.761 -0.0069  0.1255  0.3059
15669SOL     OW48447   7.560   0.025   2.122  0.3882 -0.0081 -0.2456
15669SOL    HW148448   7.574  -0.068   2.140 -1.9559  0.0620  2.8934
15669SOL    HW248449   7.630   0.070   2.171  0.2040 -0.0864  0.0934
15670SOL     OW48450   7.419   0.817   9.808 -0.2735  0.1595 -0.2180
15670SOL    HW148451   7.505   0.846   9.838 -0.8366  0.6139  1.0168
15670SOL    HW248452   7.376   0.896   9.776  0.0629 -0.2088 -1.6894
15671SOL     OW48453   6.806   5.473   3.023 -0.1828  0.0584 -0.6250
15671SOL    HW148454   6.828   5.563   3.001  1.4880 -0.4946 -1.3780
15671SOL    HW248455   6.814   5.469   3.118  0.2122  0.5909 -0.6288
15672SOL     OW48456   4.895   0.501   5.920 -0.2761 -0.2654  0.4337
15672SOL    HW148457   4.969   0.552   5.887 -2.1943  3.5157  1.4194
15672SOL    HW248458   4.820   0.535   5.872 -1.8941 -1.0992  2.2733
15673SOL     OW48459   7.854   7.691   6.269 -0.3979  0.0371 -0.0182
15673SOL    HW148460   7.898   7.692   6.354 -0.3617 -2.3033  0.0432
15673SOL    HW248461   7.816   7.779   6.261  1.3447  1.0000  1.4514
15674SOL     OW48462   6.474   1.025   8.309  0.4990  0.0451  0.6194
15674SOL    HW148463   6.478   1.067   8.224  0.7030 -1.6872 -0.2678
15674SOL    HW248464   6.454   1.096   8.370 -0.6550  1.1745 -0.9811
15675SOL     OW48465   4.338   0.885   8.961 -0.0185  0.3769 -0.0602
15675SOL    HW148466   4.421   0.863   9.003  0.8107  1.5689 -1.0208
15675SOL    HW248467   4.290   0.802   8.959  0.3279  0.0656  2.2566
15676SOL     OW48468   3.223   4.638   9.595  0.3124  0.5858  0.1114
15676SOL    HW148469   3.317   4.638   9.582  0.2222  1.3886 -0.6949
15676SOL    HW248470   3.187   4.605   9.512 -0.1034 -0.1381  0.5682
15677SOL     OW48471   3.250   2.527   1.052  0.4916 -0.0466  0.2923
15677SOL    HW148472   3.327   2.584   1.042 -0.8190  1.6752 -0.6602
15677SOL    HW248473   3.189   2.578   1.104  0.6821 -2.2014  2.8130
15678SOL     OW48474   5.626   4.227   1.815  0.1651  0.6079  0.0071
15678SOL    HW148475   5.698   4.291   1.813  0.0824  0.7205  0.5558
15678SOL    HW248476   5.633   4.185   1.901  0.2591 -0.1764 -0.3710
15679SOL     OW48477   2.609   1.577  11.765  0.0506 -0.3419  0.7051
15679SOL    HW148478   2.585   1.486  11.748 -0.9861  0.1704 -0.9201
15679SOL    HW248479   2.704   1.579  11.757 -0.0591 -0.9156 -1.6198
15680SOL     OW48480   2.429   0.509   1.535 -0.0106  0.1735 -0.1808
15680SOL    HW148481   2.483   0.435   1.564 -1.3043 -0.0245  1.8977
15680SOL    HW248482   2.486   0.557   1.475  2.5250 -0.0167  1.8694
15681SOL     OW48483   5.790   3.661   8.596  0.3851 -0.2113 -0.1332
15681SOL    HW148484   5.768   3.752   8.574 -1.3569 -0.4003  0.6410
15681SOL    HW248485   5.743   3.609   8.531 -1.0693 -0.6080  1.1500
15682SOL     OW48486   5.830   7.025   8.329 -0.2107  0.0421 -0.1397
15682SOL    HW148487   5.846   7.038   8.423  1.1181 -0.7933 -0.2300
15682SOL    HW248488   5.776   7.100   8.304  0.1707  0.7669  1.0942
15683SOL     OW48489   3.108   7.864  11.947  0.2449 -0.0274  0.2514
15683SOL    HW148490   3.082   7.782  11.989  1.0674 -0.6283 -0.3820
15683SOL    HW248491   3.109   7.928  12.018 -0.8632 -0.4584  0.6643
15684SOL     OW48492   6.957   4.174   0.620 -0.5966 -0.2397  0.2296
15684SOL    HW148493   7.022   4.140   0.559 -0.9126 -0.9325  0.2750
15684SOL    HW248494   6.886   4.207   0.565 -0.5715 -0.2299  0.2032
15685SOL     OW48495   4.701   4.638  12.438 -0.5462  0.2557  0.0822
15685SOL    HW148496   4.606   4.650  12.447 -0.4157  1.9654 -0.5312
15685SOL    HW248497   4.714   4.544  12.452 -2.7616 -0.7312 -3.2070
15686SOL     OW48498   6.747   1.476   4.372 -0.2971  0.0988  0.1739
15686SOL    HW148499   6.828   1.450   4.329  0.5927 -1.2564  2.5016
15686SOL    HW248500   6.770   1.556   4.420 -0.9418  0.8666 -0.7380
15687SOL     OW48501   3.632   6.362   8.854  0.2053  0.7144  0.2243
15687SOL    HW148502   3.628   6.449   8.895 -0.9885  0.5305  0.5119
15687SOL    HW248503   3.609   6.377   8.762  2.7102  1.0989 -0.4131
15688SOL     OW48504   2.909   1.802   9.941 -0.6006  0.0802 -0.1530
15688SOL    HW148505   2.859   1.797   9.859 -1.2621  0.3976  0.2241
15688SOL    HW248506   3.000   1.787   9.914 -0.5546  1.9363 -1.2360
15689SOL     OW48507   6.837   4.617   6.252 -0.1112 -0.2889  0.1987
15689SOL    HW148508   6.883   4.659   6.325 -0.3059  0.0819  0.1094
15689SOL    HW248509   6.781   4.685   6.217  1.8647  0.3599 -1.9418
15690SOL     OW48510   6.164   4.887   7.122  0.0925  0.0198 -0.0467
15690SOL    HW148511   6.155   4.975   7.159 -0.5775 -0.0640  0.0024
15690SOL    HW248512   6.258   4.872   7.119  0.2333  0.8801 -0.3774
15691SOL     OW48513   3.238   5.606   1.498  0.1497  0.7605  0.7064
15691SOL    HW148514   3.165   5.544   1.493  0.3872  0.2719  2.6367
15691SOL    HW248515   3.316   5.551   1.504  0.5694  1.2745  0.0572
15692SOL     OW48516   4.389   6.368   3.396 -0.1970 -0.5252 -0.2543
15692SOL    HW148517   4.339   6.325   3.465 -1.0098 -1.2463 -1.2668
15692SOL    HW248518   4.335   6.359   3.318  1.1553 -0.6158 -1.2157
15693SOL     OW48519   6.902   1.410   8.575  0.1509  0.4135 -0.0935
15693SOL    HW148520   6.986   1.441   8.541  0.4095 -1.5320 -1.3553
15693SOL    HW248521   6.841   1.423   8.503 -0.1851 -0.0743  0.1000
15694SOL     OW48522   7.346   5.573   9.689 -0.1841  0.1768  0.2170
15694SOL    HW148523   7.371   5.585   9.598 -1.0184 -0.4121 -0.1083
15694SOL    HW248524   7.429   5.572   9.737  0.4870 -1.9482 -0.8317
15695SOL     OW48525   6.923   2.805   5.809  0.4292 -0.0946  0.0444
15695SOL    HW148526   6.975   2.808   5.728 -0.2247  0.4410 -0.3639
15695SOL    HW248527   6.833   2.792   5.779  0.3744 -1.6495  0.7656
15696SOL     OW48528   1.791   0.677  11.730  0.2868  0.3022  0.1410
15696SOL    HW148529   1.799   0.586  11.702  0.9181  0.4236 -0.0900
15696SOL    HW248530   1.720   0.713  11.677  0.2787  0.0432 -0.0244
15697SOL     OW48531   6.263   5.335   7.529  0.3361 -0.1676  0.0141
15697SOL    HW148532   6.171   5.307   7.531  0.4859 -0.6764  0.0042
15697SOL    HW248533   6.286   5.346   7.622 -0.4194  2.3351 -0.0086
15698SOL     OW48534   2.791   0.629   3.954  0.1487 -0.0239  0.0141
15698SOL    HW148535   2.871   0.654   4.000  0.5660  1.0168 -1.2131
15698SOL    HW248536   2.752   0.712   3.926 -1.7980 -0.4543  1.2247
15699SOL     OW48537   7.926   3.992   1.327 -0.9662 -0.0586  0.1991
15699SOL    HW148538   7.854   4.013   1.386  0.0503  0.6422  1.2495
15699SOL    HW248539   7.935   4.070   1.271 -0.2004  0.4197  0.9595
15700SOL     OW48540   6.338   3.655   0.903  0.1647 -0.0228  0.6783
15700SOL    HW148541   6.388   3.645   0.821  0.0896 -0.6925  0.7084
15700SOL    HW248542   6.247   3.659   0.875  0.1679  0.1816  0.6978
15701SOL     OW48543   7.525   5.241   4.968 -0.2509 -0.1147  0.0372
15701SOL    HW148544   7.488   5.326   4.992  0.2649  0.0865  0.1365
15701SOL    HW248545   7.576   5.214   5.045 -0.5459 -0.5959  0.0707
15702SOL     OW48546   1.545   4.902   0.515 -0.1565  0.0331  1.0155
15702SOL    HW148547   1.559   4.901   0.610 -2.2941 -0.0880  1.3681
15702SOL    HW248548   1.587   4.821   0.485 -1.2250 -1.0170  2.1876
15703SOL     OW48549   1.130   1.155   7.301 -0.5800  0.1616  0.6485
15703SOL    HW148550   1.169   1.077   7.339  1.7300 -0.2037 -2.1717
15703SOL    HW248551   1.194   1.224   7.315 -1.2147  0.8242  0.4055
15704SOL     OW48552   7.326   2.037   2.604 -0.6885  0.3359  0.0410
15704SOL    HW148553   7.288   2.000   2.524  0.5710  1.0598 -0.9205
15704SOL    HW248554   7.410   2.073   2.577  0.2815 -0.3777  1.9307
15705SOL     OW48555   3.820   0.346  12.219 -0.4135 -0.0266 -0.1893
15705SOL    HW148556   3.776   0.431  12.226  1.2496  1.1932 -3.1701
15705SOL    HW248557   3.768   0.297  12.155  0.3702 -0.0566 -0.8107
15706SOL     OW48558   5.634   0.900   1.849  0.4357 -0.5129 -0.2284
15706SOL    HW148559   5.651   0.819   1.801  3.2738  0.5775 -1.2988
15706SOL    HW248560   5.621   0.966   1.781 -0.2263  0.2201  0.5883
15707SOL     OW48561   2.194   1.893   3.347 -0.2896  0.7736 -0.3959
15707SOL    HW148562   2.147   1.819   3.311  2.3574 -2.0511  1.4299
15707SOL    HW248563   2.135   1.931   3.412 -1.0363 -0.9825 -0.0039
15708SOL     OW48564   4.846   7.630   7.996  0.1398  0.1847 -1.3053
15708SOL    HW148565   4.859   7.549   7.946  0.4703 -0.4545 -0.1953
15708SOL    HW248566   4.752   7.633   8.011  0.4470 -1.9885  1.8462
15709SOL     OW48567   2.066   3.487   2.860  0.4404 -0.6146  0.2364
15709SOL    HW148568   2.156   3.455   2.866 -0.1359 -2.1533  1.1370
15709SOL    HW248569   2.039   3.503   2.950 -0.0501  0.2733 -0.0509
15710SOL     OW48570   2.207   5.359  10.705  0.2191 -0.0616 -0.3280
15710SOL    HW148571   2.168   5.443  10.682  0.1798  0.5960  1.9054
15710SOL    HW248572   2.285   5.352  10.650 -1.1025  0.2125 -2.3495
15711SOL     OW48573   5.976   1.614   8.709 -0.2731 -0.4878 -0.3591
15711SOL    HW148574   5.979   1.538   8.651 -2.6268  1.6260 -3.5908
15711SOL    HW248575   6.003   1.687   8.654 -0.2018  1.3692  1.9880
15712SOL     OW48576   4.102   7.858   0.686  0.1320 -0.0806  0.2431
15712SOL    HW148577   4.113   7.838   0.593  1.0089 -0.9141  0.5103
15712SOL    HW248578   4.190   7.879   0.717 -0.5822  3.5207  0.2002
15713SOL     OW48579   3.514   7.393   3.598  0.8775  0.2415 -0.2957
15713SOL    HW148580   3.601   7.413   3.562  2.3738 -2.9793  1.1117
15713SOL    HW248581   3.520   7.421   3.689 -0.3615  1.8019 -0.6444
15714SOL     OW48582   2.460   0.114   0.015  0.5220 -0.0825 -0.1550
15714SOL    HW148583   2.504   0.192  -0.017  1.0021 -0.7564 -1.1869
15714SOL    HW248584   2.379   0.146   0.054  2.7134  1.4868  3.7729
15715SOL     OW48585   0.144   4.404   4.831  0.1596 -0.2495 -0.5623
15715SOL    HW148586   0.202   4.371   4.900 -1.1218 -0.2248  0.5643
15715SOL    HW248587   0.109   4.325   4.790 -2.0248 -0.3936  1.3848
15716SOL     OW48588   3.044   3.648   6.863 -0.4271 -0.4467 -0.1313
15716SOL    HW148589   3.037   3.715   6.796 -0.4783 -0.2706  0.0473
15716SOL    HW248590   3.136   3.623   6.862 -0.1767  0.3913  0.5240
15717SOL     OW48591   1.920   5.744   0.640 -0.5525  0.1124 -0.0155
15717SOL    HW148592   1.935   5.651   0.655  0.4297  0.3073  0.3023
15717SOL    HW248593   1.881   5.749   0.553 -0.9373 -0.6219  0.1125
15718SOL     OW48594   2.798   7.023   0.008 -0.0087 -0.8177 -0.5306
15718SOL    HW148595   2.742   7.081  -0.044  1.8905  1.3727 -0.2768
15718SOL    HW248596   2.805   6.944  -0.044 -2.2422 -0.6629 -1.1736
15719SOL     OW48597   0.854   5.983   4.451 -0.0563 -0.4095  0.4563
15719SOL    HW148598   0.882   6.074   4.445 -0.3518 -0.2005  1.9781
15719SOL    HW248599   0.758   5.987   4.448 -0.1014 -0.9444 -2.3814
15720SOL     OW48600   6.839   7.943   3.578  0.1231  0.2874  0.6520
15720SOL    HW148601   6.928   7.957   3.547  0.1136  1.1710  0.9822
15720SOL    HW248602   6.789   7.922   3.499  0.7790 -1.1626  0.5871
15721SOL     OW48603   7.401   4.205   6.385 -0.0500  0.1523 -0.5692
15721SOL    HW148604   7.403   4.192   6.480 -1.5738 -1.0034 -0.6612
15721SOL    HW248605   7.461   4.278   6.370  1.4296 -0.6384  1.0967
15722SOL     OW48606   2.719   5.075   1.524  0.6793  0.6982 -0.2106
15722SOL    HW148607   2.776   5.096   1.598  0.2183  0.5439  0.1896
15722SOL    HW248608   2.636   5.119   1.544  0.4879  0.4900 -0.5384
15723SOL     OW48609   2.096   6.253   7.367 -0.4020  0.0061 -0.4617
15723SOL    HW148610   2.134   6.307   7.298  1.1901  0.3084  0.5969
15723SOL    HW248611   2.138   6.283   7.447  2.1202 -4.0012 -0.0173
15724SOL     OW48612   5.297   5.091   2.357  0.4249 -0.4191 -0.2752
15724SOL    HW148613   5.322   5.143   2.281 -0.0005  0.1379 -0.0434
15724SOL    HW248614   5.290   5.154   2.428 -0.4633 -0.7271 -0.0684
15725SOL     OW48615   5.325   3.597   8.461  0.2462  0.7385  0.0243
15725SOL    HW148616   5.241   3.627   8.495 -0.8977 -0.9902 -1.1029
15725SOL    HW248617   5.314   3.502   8.449  2.4916  0.3921  0.2065
15726SOL     OW48618   2.400   2.651   8.242  0.4640 -0.8362 -0.2695
15726SOL    HW148619   2.316   2.624   8.279 -0.4311  0.3076 -1.3624
15726SOL    HW248620   2.411   2.742   8.270  0.7861 -0.6272 -1.0282
15727SOL     OW48621   4.872   5.078   8.634 -0.2549 -0.3759 -0.1662
15727SOL    HW148622   4.933   5.030   8.578 -0.8355  0.5091 -1.6262
15727SOL    HW248623   4.787   5.065   8.593 -0.7718 -0.0890  0.7961
15728SOL     OW48624   5.392   1.666  11.439 -0.2030  0.6976 -0.1485
15728SOL    HW148625   5.356   1.621  11.362  2.1176 -1.6322  0.0090
15728SOL    HW248626   5.345   1.628  11.513  1.0243 -0.8180 -0.0996
15729SOL     OW48627   0.274   2.735   6.362  0.2494 -0.0777 -0.2716
15729SOL    HW148628   0.258   2.656   6.414  1.6856 -0.3823 -0.2376
15729SOL    HW248629   0.243   2.807   6.416  2.0722 -0.3465  1.2568
15730SOL     OW48630   5.355   6.609   6.738  0.1493 -0.4851  0.1034
15730SOL    HW148631   5.414   6.659   6.794 -0.4391  1.1673 -0.6893
15730SOL    HW248632   5.270   6.651   6.750 -0.9910 -2.8952  1.3297
15731SOL     OW48633   0.530   2.959  10.510  0.8788 -0.1874 -0.3206
15731SOL    HW148634   0.450   3.011  10.517  0.3742 -0.7282 -1.6960
15731SOL    HW248635   0.568   2.961  10.598 -2.8146 -3.3908  1.6502
15732SOL     OW48636   5.986   2.660   3.415  0.0065 -0.6033  0.0350
15732SOL    HW148637   5.961   2.577   3.375  0.8046 -1.0798  0.4973
15732SOL    HW248638   6.011   2.637   3.504 -0.2962  0.2205  0.3435
15733SOL     OW48639   2.737   2.279  11.729  0.1917  0.7400  0.2145
15733SOL    HW148640   2.806   2.214  11.746 -0.0625  0.0483 -1.2080
15733SOL    HW248641   2.658   2.226  11.717  0.0334  1.2746 -1.2474
15734SOL     OW48642   0.541   3.025   8.041  0.2734  0.1237  0.5403
15734SOL    HW148643   0.456   3.062   8.064  0.1899 -0.1053  0.6030
15734SOL    HW248644   0.534   3.001   7.949  0.1808 -0.1384  0.6142
15735SOL     OW48645   0.378   7.428  11.745 -0.0382 -0.4600 -0.0238
15735SOL    HW148646   0.357   7.336  11.729 -1.4349  0.0275 -1.1196
15735SOL    HW248647   0.469   7.426  11.777  0.1121 -2.1720 -0.4585
15736SOL     OW48648   3.285   1.340  10.889 -0.2366 -0.9799 -0.2023
15736SOL    HW148649   3.270   1.405  10.821  1.0624 -1.1112 -0.6462
15736SOL    HW248650   3.345   1.277  10.849 -1.0398 -2.1647  0.3968
15737SOL     OW48651   3.902   6.913   7.645 -0.3956 -0.2827 -0.4561
15737SOL    HW148652   3.852   6.930   7.566 -0.7579 -0.6241 -0.3021
15737SOL    HW248653   3.863   6.970   7.712  0.1016  0.2282 -0.5878
15738SOL     OW48654   4.741   5.228  11.471  0.1087 -0.4233  0.0525
15738SOL    HW148655   4.792   5.235  11.390 -1.3038  0.2543 -0.8186
15738SOL    HW248656   4.785   5.160  11.522  0.9914 -0.9054 -1.3054
15739SOL     OW48657   2.158   7.859   0.925 -0.3998  0.3110  0.1008
15739SOL    HW148658   2.074   7.895   0.953 -0.5970  0.3279 -0.5060
15739SOL    HW248659   2.143   7.764   0.919 -0.7776  0.4499 -1.3561
15740SOL     OW48660   4.935   7.611   5.808 -0.1018  0.0588  0.5708
15740SOL    HW148661   4.917   7.518   5.822  0.6939 -0.3021 -0.6614
15740SOL    HW248662   4.853   7.655   5.832 -0.3490 -0.9142  1.5762
15741SOL     OW48663   6.024   6.786   0.874 -0.3928 -0.2086  0.0546
15741SOL    HW148664   6.044   6.744   0.790 -1.9536 -1.4382  0.2519
15741SOL    HW248665   6.107   6.787   0.921  0.3221 -0.2697 -1.1544
15742SOL     OW48666   7.128   4.171   2.877 -0.4433  0.0057 -0.3334
15742SOL    HW148667   7.216   4.208   2.884 -0.7890  1.4807 -2.7020
15742SOL    HW248668   7.128   4.096   2.936  2.8085 -0.8036 -1.2026
15743SOL     OW48669   7.364   5.160   7.716  0.0174  0.6036 -0.0338
15743SOL    HW148670   7.426   5.114   7.772 -0.0551  0.1927 -0.2899
15743SOL    HW248671   7.329   5.230   7.771  0.8482  0.9653  0.0573
15744SOL     OW48672   5.824   7.766   3.607  0.0637 -0.4021  0.7009
15744SOL    HW148673   5.747   7.732   3.652 -1.1570  0.0248 -0.9819
15744SOL    HW248674   5.889   7.696   3.615 -0.2333 -0.5044  2.7092
15745SOL     OW48675   3.561   0.694   7.086 -0.4351  0.5416  0.2486
15745SOL    HW148676   3.627   0.756   7.054 -0.5915 -0.5262 -2.3371
15745SOL    HW248677   3.493   0.749   7.124  0.5299  1.8155  0.1985
15746SOL     OW48678   1.627   0.504   1.481  0.2289 -0.0075  0.2046
15746SOL    HW148679   1.563   0.443   1.444 -0.1210  0.2334  0.4098
15746SOL    HW248680   1.590   0.529   1.566 -1.1296  2.7895 -1.0948
15747SOL     OW48681   4.423   2.431   4.718 -0.2663 -0.2858 -0.0591
15747SOL    HW148682   4.378   2.351   4.747  0.6394 -1.2457 -1.2009
15747SOL    HW248683   4.516   2.410   4.725 -0.0206  0.5580 -0.6914
15748SOL     OW48684   4.722   7.024   3.032 -0.2677  0.2521 -1.0300
15748SOL    HW148685   4.807   7.053   3.065 -0.2230 -0.0344 -0.8928
15748SOL    HW248686   4.659   7.057   3.096 -0.3202  0.9755 -1.4381
15749SOL     OW48687   1.104   3.913   1.773  0.3333  0.1400 -0.3151
15749SOL    HW148688   1.190   3.872   1.772 -0.6709 -2.1652 -1.3525
15749SOL    HW248689   1.058   3.874   1.698 -1.5637  1.3959  0.1193
15750SOL     OW48690   2.331   3.950   5.146 -0.2715  0.3184  0.3390
15750SOL    HW148691   2.332   3.892   5.069 -0.0779 -0.1386  0.6838
15750SOL    HW248692   2.415   3.996   5.142 -1.0271  1.6731 -0.7526
15751SOL     OW48693   1.610   5.548   7.325  0.0414 -0.0597 -0.3171
15751SOL    HW148694   1.697   5.554   7.284  0.4127 -0.8507  0.3350
15751SOL    HW248695   1.577   5.462   7.299 -0.0300 -0.2628  0.4198
15752SOL     OW48696   5.725   2.482   2.723 -0.1777 -0.0829 -0.0730
15752SOL    HW148697   5.637   2.445   2.712 -0.8148  1.6693 -1.4684
15752SOL    HW248698   5.761   2.483   2.635 -1.1126  4.4863 -0.6860
15753SOL     OW48699   7.258   0.262   3.931 -0.4416  0.5230  0.2411
15753SOL    HW148700   7.208   0.206   3.989 -1.5869  1.9425  0.6645
15753SOL    HW248701   7.331   0.294   3.984  2.0940 -2.8770 -0.8253
15754SOL     OW48702   2.735   2.782   8.107  0.3350 -0.8336 -0.5114
15754SOL    HW148703   2.765   2.856   8.054 -1.8864  0.1232 -0.5648
15754SOL    HW248704   2.800   2.772   8.176  0.5184  1.4071 -0.3116
15755SOL     OW48705   5.238   5.540   3.563 -0.4492  0.0600  0.6346
15755SOL    HW148706   5.307   5.497   3.513 -0.5199  1.0368 -0.3241
15755SOL    HW248707   5.161   5.535   3.508 -0.5311  1.1406  0.6279
15756SOL     OW48708   0.971   0.094  11.185  0.2049  0.3137 -0.6572
15756SOL    HW148709   0.949   0.183  11.155 -2.1726 -0.8267 -2.6028
15756SOL    HW248710   1.055   0.076  11.144 -0.8426  0.5142 -3.0644
15757SOL     OW48711   6.933   2.942   9.498  0.1687  0.1783  0.5748
15757SOL    HW148712   7.017   2.903   9.478 -0.1044 -0.4214  0.5905
15757SOL    HW248713   6.876   2.869   9.521 -0.8809  0.3566 -1.2572
15758SOL     OW48714   7.591   5.428   3.154 -0.6296 -0.3594  0.4614
15758SOL    HW148715   7.585   5.508   3.102 -1.5793  0.0389  1.1605
15758SOL    HW248716   7.583   5.457   3.244 -0.5295 -1.2041  0.7523
15759SOL     OW48717   1.785   4.578   0.036 -0.2566 -0.0476  0.1278
15759SOL    HW148718   1.842   4.616   0.103 -0.1071 -1.0430  0.5824
15759SOL    HW248719   1.706   4.551   0.083  1.1808 -3.9163  0.6899
15760SOL     OW48720   2.068   0.152   3.430 -0.4846  0.0816  0.3603
15760SOL    HW148721   1.982   0.142   3.391 -1.2707  0.5079  1.8953
15760SOL    HW248722   2.051   0.154   3.524  1.3105 -0.8527  0.7448
15761SOL     OW48723   7.638   3.291   7.305  0.1945 -0.1928  0.8866
15761SOL    HW148724   7.564   3.317   7.360  0.4627 -0.2859  1.2975
15761SOL    HW248725   7.600   3.240   7.235 -0.0718 -0.7312  1.4157
15762SOL     OW48726   6.066   7.100   7.468  0.5283  0.2507 -0.0331
15762SOL    HW148727   6.087   7.008   7.451  0.3214  0.4128 -1.2693
15762SOL    HW248728   5.991   7.118   7.412 -0.3698  0.7844  1.3015
15763SOL     OW48729   2.654   6.264  10.398 -0.0622 -0.0669 -0.3201
15763SOL    HW148730   2.697   6.178  10.389  2.6977  1.3414 -1.8388
15763SOL    HW248731   2.575   6.257  10.345 -0.2387 -1.8296  0.0916
15764SOL     OW48732   6.938   6.665   1.825  0.0372 -0.0215  0.0909
15764SOL    HW148733   6.902   6.702   1.744 -1.3374 -1.9456 -0.2573
15764SOL    HW248734   6.958   6.741   1.880  2.2088  1.4128 -2.4669
15765SOL     OW48735   7.813   3.023   0.265 -0.4723 -0.3485 -0.3200
15765SOL    HW148736   7.792   2.967   0.191  0.9388  1.0913 -1.9164
15765SOL    HW248737   7.754   3.098   0.256 -1.2597 -0.7945  0.8733
15766SOL     OW48738   7.802   5.724  11.274 -0.1470  0.0609 -0.4248
15766SOL    HW148739   7.799   5.641  11.226 -0.0245 -0.1188 -0.1296
15766SOL    HW248740   7.801   5.697  11.367  2.3195  0.2562 -0.2753
15767SOL     OW48741   1.783   1.017   9.547  0.3397  0.0469  0.1692
15767SOL    HW148742   1.740   0.933   9.566 -0.3946 -0.2472 -2.3818
15767SOL    HW248743   1.728   1.082   9.591 -0.6040 -0.6192  0.0214
15768SOL     OW48744   3.114   0.545   3.999 -0.1025 -0.1705  0.1016
15768SOL    HW148745   3.051   0.508   3.937 -0.1270  0.3685 -0.2025
15768SOL    HW248746   3.200   0.530   3.959 -0.1404  0.4968 -0.2403
15769SOL     OW48747   4.449   1.405   4.767 -0.1713 -0.2217 -0.7865
15769SOL    HW148748   4.447   1.315   4.798  2.0575  0.1237  0.6219
15769SOL    HW248749   4.362   1.439   4.784 -0.5705 -1.6370  0.1763
15770SOL     OW48750   5.052   6.517   7.820 -0.3401 -0.0525  0.3084
15770SOL    HW148751   5.027   6.604   7.852  1.1119 -0.3377  2.4056
15770SOL    HW248752   5.117   6.534   7.753 -1.1189  0.4954 -0.3306
15771SOL     OW48753   3.598   4.078   7.027  0.0572  0.2623 -0.6072
15771SOL    HW148754   3.546   4.135   7.083  1.3884  0.2781  0.6729
15771SOL    HW248755   3.620   4.132   6.951 -0.5192  0.7328 -0.4385
15772SOL     OW48756   3.774   5.953   4.906 -0.1748 -0.2274  0.1626
15772SOL    HW148757   3.816   5.896   4.842 -0.4701 -0.3727  0.0932
15772SOL    HW248758   3.778   5.905   4.988  1.7574  0.6989  0.6503
15773SOL     OW48759   3.131   7.667   1.615  0.2290 -0.4471 -0.5115
15773SOL    HW148760   3.172   7.615   1.546 -0.2579 -3.1155  1.1028
15773SOL    HW248761   3.199   7.679   1.680 -0.0989 -0.3869 -0.1764
15774SOL     OW48762   5.371   0.213   8.879 -0.0193  0.3612 -0.0712
15774SOL    HW148763   5.402   0.283   8.821 -0.9875  0.3929 -0.5583
15774SOL    HW248764   5.452   0.173   8.912  0.5732  2.1809  0.8127
15775SOL     OW48765   7.065   4.151   2.330 -0.6472 -0.2390  0.1191
15775SOL    HW148766   7.137   4.094   2.357 -0.8896  0.2710  1.9411
15775SOL    HW248767   7.069   4.226   2.390 -3.0078 -0.4454  0.6220
15776SOL     OW48768   5.131   6.450   8.404  0.2237  0.5147 -0.1361
15776SOL    HW148769   5.222   6.443   8.376 -0.2465 -0.4011 -1.5250
15776SOL    HW248770   5.082   6.464   8.323 -0.7366  2.6049  0.7398
15777SOL     OW48771   3.456   3.888   4.525  0.2150  0.1705  0.3267
15777SOL    HW148772   3.464   3.800   4.560 -1.1784  0.3450  1.1554
15777SOL    HW248773   3.405   3.935   4.590 -1.2792  0.8987 -1.2907
15778SOL     OW48774   6.014   4.753   6.305 -0.1532  0.3327 -0.1071
15778SOL    HW148775   6.028   4.757   6.400  0.9564  1.2205 -0.2839
15778SOL    HW248776   6.060   4.830   6.271 -0.8684  0.2425 -1.3380
15779SOL     OW48777   3.000   1.156   1.684 -1.1203  0.0074 -0.5877
15779SOL    HW148778   3.080   1.191   1.645 -1.2076 -0.8095 -1.5304
15779SOL    HW248779   2.990   1.206   1.765  0.9380 -0.5970  0.1133
15780SOL     OW48780   7.844   5.353   8.151 -0.1074  0.4163 -0.5527
15780SOL    HW148781   7.762   5.336   8.198 -0.2320  0.1470 -0.8621
15780SOL    HW248782   7.910   5.304   8.200 -0.3898 -0.6156 -1.1783
15781SOL     OW48783   4.761   6.827  10.553 -0.1663  0.6395  0.3662
15781SOL    HW148784   4.815   6.762  10.598  0.9622  0.6332 -0.9360
15781SOL    HW248785   4.696   6.776  10.505  1.1626  0.3812 -1.2307
15782SOL     OW48786   1.248   1.885   6.585  0.6949  0.3966  0.4590
15782SOL    HW148787   1.273   1.950   6.519  0.2017 -0.0900 -0.2276
15782SOL    HW248788   1.258   1.930   6.669 -2.7723  2.5371 -0.0769
15783SOL     OW48789   4.563   7.510   5.323  0.2745  0.4690 -0.5661
15783SOL    HW148790   4.569   7.524   5.229  0.4575  1.3690 -0.4374
15783SOL    HW248791   4.608   7.586   5.361 -0.8444  0.7388  0.2607
15784SOL     OW48792   0.641   5.206   6.556  0.4777 -0.0938  0.3281
15784SOL    HW148793   0.703   5.257   6.505  0.8605 -0.5366  0.3376
15784SOL    HW248794   0.576   5.176   6.493 -0.6947  1.7719  0.5940
15785SOL     OW48795   7.128   3.151   6.031  0.0653  0.1166 -0.9800
15785SOL    HW148796   7.055   3.090   6.040 -0.4393  0.6669 -1.2908
15785SOL    HW248797   7.205   3.099   6.053 -0.0671 -1.3243 -3.5665
15786SOL     OW48798   6.670   1.157  11.146  0.1946  0.1947  0.1459
15786SOL    HW148799   6.679   1.252  11.137  0.9191  0.3050  1.5788
15786SOL    HW248800   6.628   1.145  11.231  1.2427 -0.7647  0.5678
15787SOL     OW48801   3.104   0.196   6.642  0.0783 -0.0463 -0.1886
15787SOL    HW148802   3.098   0.171   6.549  0.9122 -0.6238 -0.0929
15787SOL    HW248803   3.157   0.275   6.642 -0.9288  0.6562 -0.3016
15788SOL     OW48804   0.965   4.528   4.017 -0.4111 -0.1599 -0.1842
15788SOL    HW148805   0.891   4.486   4.061 -0.8026  0.3308 -0.3549
15788SOL    HW248806   0.975   4.611   4.063 -0.1096 -0.1268 -0.3092
15789SOL     OW48807   4.610   2.932   0.340 -0.3873 -0.0566 -0.5714
15789SOL    HW148808   4.627   2.897   0.427 -1.1112 -0.0374 -0.4155
15789SOL    HW248809   4.637   2.862   0.280 -0.2175 -0.2070 -0.3193
15790SOL     OW48810   6.178   0.506  10.048  0.3501 -0.4604 -0.7879
15790SOL    HW148811   6.152   0.449  10.120 -0.8363  1.9168  0.8016
15790SOL    HW248812   6.141   0.464   9.970  0.5445 -2.4190  0.1210
15791SOL     OW48813   4.096   6.600   5.063 -0.0731 -0.3191 -0.0504
15791SOL    HW148814   4.120   6.555   5.144 -1.5943 -1.2367 -0.0833
15791SOL    HW248815   4.014   6.559   5.035 -0.1305  0.6920 -1.5052
15792SOL     OW48816   0.031   3.948   1.757  0.1517 -0.2498 -0.0467
15792SOL    HW148817  -0.062   3.926   1.753  0.4884 -1.7609 -0.3285
15792SOL    HW248818   0.058   3.918   1.844  0.6133 -0.8634 -0.3986
15793SOL     OW48819   1.235   7.976   6.604  0.5025 -0.2383 -0.2998
15793SOL    HW148820   1.325   7.956   6.581  1.2986 -1.7383  3.3825
15793SOL    HW248821   1.189   7.892   6.598 -0.1484  0.1066 -0.2514
15794SOL     OW48822   4.035   4.347  10.562 -0.1425 -0.1309  0.2093
15794SOL    HW148823   3.979   4.345  10.640 -1.2611  0.5740 -0.5598
15794SOL    HW248824   4.015   4.265  10.517 -0.3269 -0.0249  0.0968
15795SOL     OW48825   5.009   7.324   4.814  0.0271  0.5473  0.0866
15795SOL    HW148826   4.989   7.277   4.894 -0.3838 -1.7863 -1.2794
15795SOL    HW248827   5.102   7.305   4.798 -0.0183  0.5775 -0.2281
15796SOL     OW48828   4.448   5.298   5.050  0.6678 -0.0004  0.2331
15796SOL    HW148829   4.536   5.271   5.022  1.3376  2.7128 -0.5536
15796SOL    HW248830   4.451   5.293   5.146  0.7709 -2.3858  0.1631
15797SOL     OW48831   7.158   7.510   6.654  0.4528  0.2549 -0.1521
15797SOL    HW148832   7.246   7.508   6.691  0.3567 -1.7986  0.0970
15797SOL    HW248833   7.101   7.485   6.726 -0.3703  1.6606 -0.2844
15798SOL     OW48834   2.909   6.763  11.119  0.1500  0.3004  0.0519
15798SOL    HW148835   2.917   6.793  11.210  2.1506  0.4485 -0.1089
15798SOL    HW248836   2.904   6.668  11.125  1.1721  0.2469  0.3187
15799SOL     OW48837   3.236   1.307   5.678  0.2088 -0.8822  0.4415
15799SOL    HW148838   3.316   1.255   5.668  0.5769 -0.1421 -0.6932
15799SOL    HW248839   3.180   1.279   5.606  0.0594 -0.3456  0.3459
15800SOL     OW48840   0.446   1.794   8.144  0.2254 -0.0192 -0.0141
15800SOL    HW148841   0.359   1.758   8.129  0.0467 -0.6420  2.1615
15800SOL    HW248842   0.455   1.863   8.079 -1.6053 -0.3972 -0.7325
15801SOL     OW48843   4.193   2.029   4.542 -0.1970  0.2522 -0.5085
15801SOL    HW148844   4.175   1.937   4.523  0.7541 -0.1466  0.4124
15801SOL    HW248845   4.107   2.071   4.541 -0.7950 -0.9068  0.3905
15802SOL     OW48846   5.040   7.304   7.533  0.3459 -0.5814 -0.3284
15802SOL    HW148847   5.106   7.253   7.581  0.5716 -1.8423 -1.9062
15802SOL    HW248848   4.989   7.239   7.485 -1.2992  0.4789 -0.0895
15803SOL     OW48849   6.406   6.624   6.013 -0.2147  0.1277  0.1096
15803SOL    HW148850   6.459   6.699   5.984 -1.0491  0.3205 -0.9794
15803SOL    HW248851   6.331   6.623   5.953 -0.0993 -1.7307 -0.0556
15804SOL     OW48852   0.790   1.179   9.089 -0.0296 -0.0263 -0.7826
15804SOL    HW148853   0.758   1.104   9.138  0.6156 -0.0444 -0.3768
15804SOL    HW248854   0.876   1.152   9.056 -0.5359 -0.0863 -2.1003
15805SOL     OW48855   4.926   1.265   4.783  0.1055  0.4341 -0.4879
15805SOL    HW148856   4.851   1.272   4.724 -0.3613  0.2910  0.0782
15805SOL    HW248857   4.888   1.236   4.866  0.6075  1.7069  0.2077
15806SOL     OW48858   5.633   7.622   8.789 -0.4880 -0.2160  0.0807
15806SOL    HW148859   5.660   7.676   8.863  0.1485  1.1759 -1.1152
15806SOL    HW248860   5.586   7.549   8.828 -0.2734  0.5466  1.8409
15807SOL     OW48861   7.736   0.017   3.321  0.9088 -0.2654 -0.5111
15807SOL    HW148862   7.818  -0.009   3.365  3.5509  2.8855 -3.0402
15807SOL    HW248863   7.669   0.006   3.388  3.7687 -0.6375  2.5936
15808SOL     OW48864   1.799   3.368   9.209  0.4723 -0.1414  0.3415
15808SOL    HW148865   1.732   3.366   9.278 -1.4955 -1.4165 -1.4804
15808SOL    HW248866   1.856   3.294   9.228  0.1892 -0.2405  0.8007
15809SOL     OW48867   2.773   0.242   7.985 -0.5139 -0.1458 -0.6612
15809SOL    HW148868   2.711   0.170   7.975 -0.8704  0.0131  0.2801
15809SOL    HW248869   2.845   0.205   8.036 -2.0101  0.8276  2.4338
15810SOL     OW48870   4.257   6.674   1.060 -0.3295  0.0664 -0.5736
15810SOL    HW148871   4.200   6.737   1.016  0.3753  0.4585 -0.9494
15810SOL    HW248872   4.346   6.702   1.038  0.2338  1.9152  3.2649
15811SOL     OW48873   5.787   5.932  11.252 -0.0776  0.2586  0.0542
15811SOL    HW148874   5.721   5.885  11.200 -0.8542  0.5334  0.7848
15811SOL    HW248875   5.745   6.014  11.276  0.5609  0.4692  0.4742
15812SOL     OW48876   3.592   0.504   8.741 -0.3805  0.1364  0.2767
15812SOL    HW148877   3.663   0.507   8.805 -0.3413  1.8542  0.2015
15812SOL    HW248878   3.624   0.557   8.668 -1.4601  0.3568 -0.0540
15813SOL     OW48879   2.468   2.733   8.772 -0.1752 -0.3163  1.0472
15813SOL    HW148880   2.406   2.799   8.740 -2.0903 -1.4175  2.2741
15813SOL    HW248881   2.535   2.728   8.704 -0.6895  1.8789  0.2689
15814SOL     OW48882   1.863   6.490   9.874  0.5735  0.3683  0.0641
15814SOL    HW148883   1.824   6.528   9.953 -0.8750  1.3763 -1.0782
15814SOL    HW248884   1.827   6.401   9.871 -2.1896  1.4092 -1.1931
15815SOL     OW48885   3.939   4.429  11.307  0.3643  0.5397 -0.2411
15815SOL    HW148886   3.977   4.407  11.392 -1.5617 -0.1127  0.5103
15815SOL    HW248887   3.852   4.465  11.328  0.0817  0.9047 -1.9049
15816SOL     OW48888   4.346   1.322  10.405 -0.1383 -0.0377 -0.3309
15816SOL    HW148889   4.390   1.277  10.333 -3.4268 -1.4860 -1.6589
15816SOL    HW248890   4.294   1.253  10.448 -0.5616  1.3674  1.5556
15817SOL     OW48891   0.946   7.661   6.079  0.0005  0.5458  0.2084
15817SOL    HW148892   0.916   7.731   6.021 -1.6223  0.4253  0.8449
15817SOL    HW248893   0.973   7.591   6.019  0.1719  1.1414 -0.4191
15818SOL     OW48894   2.397   2.261   7.754  0.1617  0.2105  0.4410
15818SOL    HW148895   2.419   2.313   7.831  0.6599  1.0194 -0.2302
15818SOL    HW248896   2.463   2.286   7.688  1.1881 -2.1327  0.4502
15819SOL     OW48897   3.664   5.158  11.410 -0.4413  0.4825 -0.3151
15819SOL    HW148898   3.596   5.221  11.390 -2.0520 -1.3338 -0.8217
15819SOL    HW248899   3.629   5.106  11.482  0.5602 -0.2509 -0.3293
15820SOL     OW48900   6.629   3.809   7.567  0.3198  0.1635 -0.3721
15820SOL    HW148901   6.612   3.888   7.516  0.1993  0.2158 -0.2520
15820SOL    HW248902   6.701   3.833   7.625  0.3846  0.1385 -0.4434
15821SOL     OW48903   0.829   6.956   6.411 -0.0787 -0.2406  0.1582
15821SOL    HW148904   0.910   7.004   6.425  1.4698 -2.4967 -0.4468
15821SOL    HW248905   0.796   6.938   6.499 -0.6062  1.6864  0.3893
15822SOL     OW48906   3.646   4.695  11.241 -0.3442  0.1309  0.4885
15822SOL    HW148907   3.641   4.764  11.307 -1.4173 -0.1920  0.7658
15822SOL    HW248908   3.700   4.732  11.171 -0.3612  1.0019  0.9304
15823SOL     OW48909   1.753   2.278   2.244 -0.5325 -0.6582 -0.3192
15823SOL    HW148910   1.752   2.298   2.338 -2.0095  0.4794 -0.5334
15823SOL    HW248911   1.802   2.196   2.237  2.0760  0.6492  1.1228
15824SOL     OW48912   5.264   0.291   3.445 -0.0022 -0.3427 -0.4295
15824SOL    HW148913   5.177   0.314   3.415  0.5799  1.0923 -1.1073
15824SOL    HW248914   5.299   0.234   3.376  0.9126  2.0407 -2.0540
15825SOL     OW48915   3.686   7.677   0.849 -0.3508 -0.0843  0.1898
15825SOL    HW148916   3.734   7.726   0.916  1.0518  0.2709 -1.0264
15825SOL    HW248917   3.611   7.732   0.827  0.2641  0.7206  0.0664
15826SOL     OW48918   3.008   1.524   1.386 -0.3528  0.1978 -0.1279
15826SOL    HW148919   3.076   1.457   1.384  0.0823  0.6510 -1.1276
15826SOL    HW248920   2.958   1.509   1.305 -2.9001 -1.5729  1.6238
15827SOL     OW48921   7.672   5.809   2.082 -0.2211 -0.3926  0.1617
15827SOL    HW148922   7.660   5.718   2.108  0.4511 -0.6814 -0.5179
15827SOL    HW248923   7.633   5.815   1.995  1.1897 -0.4608 -0.5120
15828SOL     OW48924   4.355   7.968   2.260  0.3425 -0.0567  0.5344
15828SOL    HW148925   4.354   7.876   2.234 -2.1953  0.2163 -0.5916
15828SOL    HW248926   4.348   7.966   2.355  0.3921 -1.0292  0.5265
15829SOL     OW48927   6.573   4.631  10.730  0.1172  0.8733  0.0919
15829SOL    HW148928   6.551   4.556  10.675  2.6839 -0.8086  1.1508
15829SOL    HW248929   6.621   4.690  10.671  0.8130  0.1780 -0.0626
15830SOL     OW48930   4.212   2.349   3.112 -0.3345  0.7355 -0.4162
15830SOL    HW148931   4.170   2.301   3.041 -1.2589 -0.1923  0.7230
15830SOL    HW248932   4.147   2.415   3.138  0.6598  2.2085 -1.5195
15831SOL     OW48933   6.689   6.997   4.642 -0.3030 -0.4755  0.8639
15831SOL    HW148934   6.660   7.061   4.578  2.6072 -0.1152 -0.2256
15831SOL    HW248935   6.627   7.007   4.715 -3.0797 -0.1731 -1.3533
15832SOL     OW48936   3.891   6.376  10.903  0.0284 -0.3237 -0.0205
15832SOL    HW148937   3.985   6.359  10.899 -0.1550 -1.3285 -0.1864
15832SOL    HW248938   3.854   6.324  10.832 -0.5908  0.5664 -0.3744
15833SOL     OW48939   7.238   6.611   0.451 -0.5785  0.1478  0.4908
15833SOL    HW148940   7.332   6.628   0.457 -0.4207  0.2218 -1.5468
15833SOL    HW248941   7.231   6.515   0.451 -0.4215  0.1317 -0.1581
15834SOL     OW48942   2.513   3.793   2.728  0.6603 -0.0548 -0.1958
15834SOL    HW148943   2.482   3.809   2.817  1.5640  0.8543 -0.0192
15834SOL    HW248944   2.549   3.704   2.731 -1.3959 -0.9397 -0.2844
15835SOL     OW48945   2.464   6.394   0.074 -0.2695  0.5356  0.5872
15835SOL    HW148946   2.424   6.362  -0.007  0.4074 -0.5363  0.6568
15835SOL    HW248947   2.499   6.315   0.116  0.9684  1.2948  1.0412
15836SOL     OW48948   0.322   4.430   9.541 -0.2761 -0.1809 -0.0227
15836SOL    HW148949   0.292   4.420   9.451 -1.4548  0.2457  0.3007
15836SOL    HW248950   0.324   4.524   9.556 -1.2648 -0.2697  0.7616
15837SOL     OW48951   0.625   3.743   6.316 -0.5284  0.0989 -0.2519
15837SOL    HW148952   0.648   3.654   6.341  1.5548  0.4546 -0.7297
15837SOL    HW248953   0.533   3.738   6.290 -0.4100 -1.9259 -0.3892
15838SOL     OW48954   5.857   5.900   5.917 -0.7248 -0.1476  0.0876
15838SOL    HW148955   5.939   5.941   5.944  1.2823 -2.6802 -1.6326
15838SOL    HW248956   5.857   5.909   5.821 -1.0426 -2.4382 -0.1952
15839SOL     OW48957   6.083   7.306  10.482  0.1793  0.7679  0.1154
15839SOL    HW148958   6.096   7.378  10.543  0.1821  0.8906 -0.0318
15839SOL    HW248959   6.016   7.251  10.524  1.3293 -0.0154  1.0122
15840SOL     OW48960   1.529   5.913   0.122 -0.0623 -0.5604 -0.5777
15840SOL    HW148961   1.489   5.838   0.166 -0.5541  0.7240  1.2784
15840SOL    HW248962   1.568   5.876   0.043 -0.4271 -2.7369  0.1900
15841SOL     OW48963   3.979   2.590   6.129 -0.3511 -0.3160  0.0598
15841SOL    HW148964   4.058   2.629   6.167 -0.0356 -0.2685 -0.6397
15841SOL    HW248965   3.908   2.650   6.155  0.0767  0.5465 -0.6960
15842SOL     OW48966   6.696   2.544   6.012 -0.0928 -0.1479 -0.2523
15842SOL    HW148967   6.680   2.597   5.934 -0.5051  1.2276  0.7204
15842SOL    HW248968   6.658   2.459   5.992 -1.6183  0.6613 -0.9820
15843SOL     OW48969   2.565   4.251  11.574 -0.4610 -0.0944  0.2917
15843SOL    HW148970   2.513   4.204  11.639  0.0167 -1.0999 -0.0130
15843SOL    HW248971   2.505   4.264  11.501 -0.3118 -1.2706 -0.0695
15844SOL     OW48972   2.013   4.927  12.151 -0.2907  0.0004 -0.0100
15844SOL    HW148973   2.074   4.863  12.114 -1.2114 -0.5019 -0.6873
15844SOL    HW248974   1.947   4.940  12.083 -0.6310  0.9708  0.4885
15845SOL     OW48975   0.768   2.970   6.040  0.4505  0.3112  0.3471
15845SOL    HW148976   0.787   2.916   5.964  0.7932  0.3258  0.4239
15845SOL    HW248977   0.768   2.909   6.114  1.6083  0.5351  0.5420
15846SOL     OW48978   6.684   1.540   1.062 -0.1743 -0.4928 -0.4305
15846SOL    HW148979   6.625   1.466   1.076 -0.2197 -0.1875  1.2017
15846SOL    HW248980   6.630   1.617   1.081  0.4195 -0.1574 -0.0789
15847SOL     OW48981   7.061   3.406   0.005 -0.4129 -0.0889 -0.2504
15847SOL    HW148982   7.093   3.383   0.093 -1.9035  4.3664  1.7720
15847SOL    HW248983   7.140   3.412  -0.048  0.8348 -0.4402  1.4669
15848SOL     OW48984   2.094   5.628   6.810 -0.1614 -0.3671  0.5512
15848SOL    HW148985   1.999   5.625   6.813 -0.1568 -0.3175  0.8670
15848SOL    HW248986   2.122   5.544   6.848 -0.0827 -0.5628  0.0582
15849SOL     OW48987   3.150   2.282   3.549 -1.0106  0.1436  0.0038
15849SOL    HW148988   3.192   2.274   3.463 -1.3733  0.0160 -0.1631
15849SOL    HW248989   3.059   2.302   3.529 -1.5675 -1.8546  0.3096
15850SOL     OW48990   2.805   4.185   5.912 -0.6066 -0.5421 -0.2028
15850SOL    HW148991   2.872   4.211   5.849 -0.2233  1.1917  0.8500
15850SOL    HW248992   2.831   4.097   5.940 -0.1150 -0.8373 -1.5435
15851SOL     OW48993   2.036   2.886  11.507  0.3744 -0.2325 -0.1837
15851SOL    HW148994   2.029   2.973  11.469  0.8223  0.2158  0.7239
15851SOL    HW248995   2.125   2.883  11.543  0.5872 -1.2946 -0.7584
15852SOL     OW48996   6.090   0.312   7.764 -0.3189 -0.7177 -0.3667
15852SOL    HW148997   6.008   0.344   7.802 -0.0841 -1.3754  0.7534
15852SOL    HW248998   6.153   0.382   7.783 -0.2993 -0.8544  0.0873
15853SOL     OW48999   3.086   2.074   9.678  0.0317 -0.6095 -0.2557
15853SOL    HW149000   3.058   1.989   9.714 -0.0061  0.6858  3.0997
15853SOL    HW249001   3.177   2.060   9.652 -0.1371 -1.8221 -0.2731
15854SOL     OW49002   6.070   3.513   1.801  0.3838  0.6205  0.3448
15854SOL    HW149003   6.145   3.473   1.845 -0.6318 -0.2248  1.3568
15854SOL    HW249004   6.107   3.588   1.755  2.1438 -0.7583 -0.6214
15855SOL     OW49005   5.281   4.345   1.463  0.5139  0.3544  0.5126
15855SOL    HW149006   5.359   4.341   1.518 -0.0435 -0.8742  1.2666
15855SOL    HW249007   5.250   4.435   1.472  1.4218  0.6554  0.7819
15856SOL     OW49008   7.865   7.982   0.603  0.4956 -0.0964  0.0169
15856SOL    HW149009   7.852   8.074   0.580  0.7965  0.4865  1.9447
15856SOL    HW249010   7.847   7.979   0.697 -0.0796 -2.1379 -0.1260
15857SOL     OW49011   1.800   3.923   2.761  0.7102 -0.1374 -0.5813
15857SOL    HW149012   1.725   3.922   2.701  2.3824 -0.6129 -2.7742
15857SOL    HW249013   1.820   3.831   2.775  1.4670 -0.0043 -0.7787
15858SOL     OW49014   1.654   6.811  11.078  0.5997  0.1810 -0.1101
15858SOL    HW149015   1.640   6.849  10.991 -0.0161  3.2430  1.1938
15858SOL    HW249016   1.566   6.788  11.109  0.7185 -0.0513  0.0591
15859SOL     OW49017   5.911   3.015   3.478  0.3579 -0.5198  0.3451
15859SOL    HW149018   5.845   3.073   3.517  0.4033  0.6550 -1.2023
15859SOL    HW249019   5.903   2.933   3.526 -2.5054 -0.5616 -0.0169
15860SOL     OW49020   2.824   7.974   2.782  0.4083  0.2757  0.0594
15860SOL    HW149021   2.848   7.905   2.843 -0.0503  0.1605  0.1100
15860SOL    HW249022   2.894   8.039   2.791  0.4736  0.1438  0.5232
15861SOL     OW49023   3.463   3.661   4.002 -0.6196  0.0187  0.9865
15861SOL    HW149024   3.377   3.630   3.974 -0.0827 -0.7574  0.1334
15861SOL    HW249025   3.511   3.582   4.026  1.0239 -0.0196 -1.9354
15862SOL     OW49026   0.081   1.663   7.677 -0.6361 -0.4748 -0.1543
15862SOL    HW149027   0.166   1.668   7.722 -0.5359 -2.1318 -0.1233
15862SOL    HW249028   0.056   1.571   7.681 -2.6426  0.0300  0.1639
15863SOL     OW49029   6.098   1.755   8.488 -0.0374 -0.2055  0.0003
15863SOL    HW149030   6.019   1.803   8.464  1.4450  2.3155 -0.2071
15863SOL    HW249031   6.164   1.784   8.426  1.1109 -2.2393  0.1606
15864SOL     OW49032   7.978   0.067  12.385  0.7744  0.2193  0.4583
15864SOL    HW149033   7.887   0.042  12.400 -0.0173  2.1272 -0.8032
15864SOL    HW249034   7.977   0.163  12.385  2.6904  0.2810 -0.1554
15865SOL     OW49035   0.599   0.668   9.692 -0.1422  0.2746 -0.0914
15865SOL    HW149036   0.630   0.758   9.684  1.5479 -0.3248 -0.8570
15865SOL    HW249037   0.602   0.633   9.603  2.5088 -1.4837  0.5536
15866SOL     OW49038   5.363   5.993   7.378 -0.1941 -0.0233  0.4157
15866SOL    HW149039   5.393   5.965   7.292 -1.7382  0.5458 -0.3444
15866SOL    HW249040   5.368   6.088   7.375 -0.5605  0.0112  0.8367
15867SOL     OW49041   5.685   2.349   9.451 -0.5171 -0.1140  0.2101
15867SOL    HW149042   5.759   2.309   9.407 -1.8709 -2.6217  0.0207
15867SOL    HW249043   5.637   2.394   9.382 -0.6834 -0.9358 -0.2245
15868SOL     OW49044   6.561   4.940   1.195 -0.0599  0.3259 -0.2009
15868SOL    HW149045   6.579   4.917   1.286 -0.0881 -0.3024 -0.3459
15868SOL    HW249046   6.648   4.947   1.154 -0.0550 -1.3722 -0.5819
15869SOL     OW49047   0.210   2.173  10.737 -0.2247 -0.6097  0.4916
15869SOL    HW149048   0.220   2.202  10.646 -0.9284 -2.3269 -0.1858
15869SOL    HW249049   0.274   2.103  10.747  0.5116  0.1949  1.6457
15870SOL     OW49050   2.380   0.797   4.880  0.2483  0.5362 -1.2110
15870SOL    HW149051   2.469   0.824   4.906 -0.4355  1.2594  0.5496
15870SOL    HW249052   2.380   0.702   4.889  0.3410  0.6751  0.6364
15871SOL     OW49053   1.932   0.954   7.365 -0.2195  0.5977 -0.0914
15871SOL    HW149054   1.996   0.887   7.341  0.4094  0.9808  0.4585
15871SOL    HW249055   1.944   0.965   7.459 -1.4786  0.2965  0.1233
15872SOL     OW49056   1.090   3.310  11.504 -0.3166  0.5075  0.1869
15872SOL    HW149057   1.044   3.262  11.434  0.2246  0.6254 -0.2628
15872SOL    HW249058   1.095   3.400  11.471 -1.0601  0.8160  0.8935
15873SOL     OW49059   2.525   1.310   9.389  0.2872  0.0248  0.2635
15873SOL    HW149060   2.535   1.357   9.306  0.4706  0.3372  0.4581
15873SOL    HW249061   2.435   1.279   9.388 -0.8177  2.8334  1.3607
15874SOL     OW49062   7.462   0.100   5.549 -0.0388  0.3489 -0.0058
15874SOL    HW149063   7.429   0.066   5.466  0.9172 -1.5447  0.3221
15874SOL    HW249064   7.515   0.176   5.525  1.7389 -1.2324 -1.3946
15875SOL     OW49065   3.597   7.762   5.154  0.1075  0.1716 -0.0767
15875SOL    HW149066   3.602   7.741   5.247  0.5464 -0.6230 -0.2661
15875SOL    HW249067   3.681   7.732   5.118 -0.7819 -1.2861 -1.0489
15876SOL     OW49068   3.892   1.100   2.227  0.2985  0.1493  0.1351
15876SOL    HW149069   3.799   1.110   2.207 -0.0110 -1.2128  0.8086
15876SOL    HW249070   3.898   1.119   2.321  0.7430  0.4770  0.0427
15877SOL     OW49071   5.468   5.954   2.119  0.2912 -0.0441 -0.0639
15877SOL    HW149072   5.558   5.920   2.117 -0.2151 -1.4542 -0.0825
15877SOL    HW249073   5.422   5.895   2.180 -0.8108  0.1505 -0.6953
15878SOL     OW49074   7.227   5.222   5.571 -0.0089  0.4067  0.0772
15878SOL    HW149075   7.220   5.127   5.571  0.7282  0.3374 -0.8650
15878SOL    HW249076   7.200   5.249   5.659  1.5559 -0.8167  0.9802
15879SOL     OW49077   5.503   3.547   6.565 -0.2463 -0.0246 -0.2023
15879SOL    HW149078   5.547   3.526   6.483  1.3475 -1.2413  0.9077
15879SOL    HW249079   5.568   3.596   6.615 -1.3623  1.1225  0.1955
15880SOL     OW49080   3.963   6.678   4.771  0.0124 -0.0532  0.0510
15880SOL    HW149081   3.911   6.631   4.836 -0.3136  2.0131  1.3729
15880SOL    HW249082   4.046   6.629   4.768 -0.2571 -0.6676  1.4402
15881SOL     OW49083   0.663   1.219   2.170  0.2357 -0.0612 -0.0658
15881SOL    HW149084   0.691   1.305   2.138  1.4758 -0.0165  1.0512
15881SOL    HW249085   0.570   1.229   2.190  0.0820  0.6598 -1.1014
15882SOL     OW49086   1.507   0.627   3.914 -0.3738 -0.0715 -0.2375
15882SOL    HW149087   1.578   0.579   3.871 -2.0014 -0.8393 -2.1984
15882SOL    HW249088   1.491   0.579   3.995  0.9640 -0.1751 -0.0036
15883SOL     OW49089   1.249   6.620   9.539 -0.0530  0.6359  0.1810
15883SOL    HW149090   1.217   6.682   9.605  0.5481  0.9879  0.1515
15883SOL    HW249091   1.328   6.661   9.505 -0.2785  0.3908 -0.6651
15884SOL     OW49092   3.064   5.449   5.203 -0.3735 -0.5111  0.3306
15884SOL    HW149093   3.090   5.476   5.115  1.0931 -0.1368  0.8563
15884SOL    HW249094   2.972   5.426   5.194 -0.0817 -1.1662 -1.4628
15885SOL     OW49095   7.864   7.954   6.346 -0.1776 -0.1275  0.6589
15885SOL    HW149096   7.925   7.962   6.273 -1.9438  1.3648 -0.7785
15885SOL    HW249097   7.904   8.003   6.418  0.1162  1.2894 -0.4241
15886SOL     OW49098   2.842   5.492   0.507 -0.2553  0.2285  0.6137
15886SOL    HW149099   2.876   5.574   0.473 -1.4397 -0.2945 -2.0414
15886SOL    HW249100   2.919   5.435   0.512  0.2802  0.9472  0.8296
15887SOL     OW49101   0.065   4.363   9.047 -0.6594 -0.4300  0.2425
15887SOL    HW149102  -0.023   4.325   9.054 -1.2474  0.8033 -0.1951
15887SOL    HW249103   0.091   4.347   8.957 -0.3065 -1.0373  0.4461
15888SOL     OW49104   1.451   6.796   2.823 -0.2112 -0.1123  0.0109
15888SOL    HW149105   1.490   6.726   2.875 -3.8548 -1.8510  0.7465
15888SOL    HW249106   1.439   6.868   2.885 -3.1751 -1.6490  1.4488
15889SOL     OW49107   6.407   3.399   3.882  0.6155 -0.4042  0.3543
15889SOL    HW149108   6.421   3.480   3.931  2.1121 -1.0202  1.0074
15889SOL    HW249109   6.370   3.338   3.946 -1.2999 -0.0487 -0.3345
15890SOL     OW49110   4.757   0.442  10.551 -0.1180 -0.0604 -0.2630
15890SOL    HW149111   4.836   0.483  10.516  0.3924 -1.8437 -1.3522
15890SOL    HW249112   4.785   0.406  10.635  0.5781 -1.5844 -1.1026
15891SOL     OW49113   7.770   3.472  10.743  0.0208 -0.1483  0.2692
15891SOL    HW149114   7.760   3.471  10.648 -2.0964  0.1350  0.4512
15891SOL    HW249115   7.800   3.383  10.765  0.9122 -0.0955 -0.6821
15892SOL     OW49116   1.164   2.552  11.266  0.0932 -0.1827  0.4644
15892SOL    HW149117   1.192   2.464  11.240 -1.8804 -0.3656 -1.3297
15892SOL    HW249118   1.199   2.609  11.197 -2.3877 -0.2167 -0.9125
15893SOL     OW49119   1.118   5.829   9.340  0.4784 -0.3188 -0.2645
15893SOL    HW149120   1.202   5.856   9.303  0.2227  0.1297 -0.5209
15893SOL    HW249121   1.103   5.889   9.413 -1.3536  2.0886 -2.4205
15894SOL     OW49122   2.449   4.905  12.101 -0.8478  0.4992  0.2435
15894SOL    HW149123   2.522   4.967  12.094 -0.4621  0.3786  2.4502
15894SOL    HW249124   2.388   4.947  12.161 -2.6439  0.5716 -1.5161
15895SOL     OW49125   1.260   6.918  12.310 -0.7444 -0.0506  0.0092
15895SOL    HW149126   1.337   6.961  12.348 -1.2429  0.2720  0.6681
15895SOL    HW249127   1.242   6.967  12.230  0.3272 -0.7465 -0.6922
15896SOL     OW49128   1.026   2.662   3.329  0.1098 -0.2839  0.0568
15896SOL    HW149129   1.063   2.678   3.416  0.5609  0.0051 -0.1863
15896SOL    HW249130   0.973   2.740   3.311 -2.5249 -1.6282  1.3557
15897SOL     OW49131   6.992   3.408   7.576 -0.0473  0.3146  0.1483
15897SOL    HW149132   6.966   3.430   7.665 -0.0226 -0.8917  0.4676
15897SOL    HW249133   6.925   3.348   7.545  0.5463 -0.1718 -0.2263
15898SOL     OW49134   4.329   6.965  12.314  0.2184  0.1707  0.5248
15898SOL    HW149135   4.263   6.950  12.382 -0.6334 -0.2167 -0.3459
15898SOL    HW249136   4.291   7.034  12.259  0.6177  0.0752  0.1259
15899SOL     OW49137   2.287   6.251   4.071 -0.1425  0.1908  0.1720
15899SOL    HW149138   2.331   6.297   4.142 -0.4370  1.0773 -0.2025
15899SOL    HW249139   2.326   6.164   4.070  0.6598  0.5412  0.6846
15900SOL     OW49140   0.108   1.855   5.352  0.1813  0.3223 -0.2252
15900SOL    HW149141   0.147   1.778   5.310  0.4507  0.0198  0.5566
15900SOL    HW249142   0.043   1.819   5.413 -0.5638  0.7785 -0.7413
15901SOL     OW49143   5.945   2.814   3.682  0.4202 -0.6183  0.3386
15901SOL    HW149144   5.967   2.721   3.692 -1.8103 -1.4062 -1.0368
15901SOL    HW249145   5.883   2.831   3.753 -1.8221 -1.2550 -1.3259
15902SOL     OW49146   3.576   7.334   2.996  0.1935 -0.2680 -0.4951
15902SOL    HW149147   3.535   7.248   3.005  0.4637 -0.7362 -2.9073
15902SOL    HW249148   3.644   7.336   3.063 -1.7061 -0.6951  1.5509
15903SOL     OW49149   5.581   1.843   4.656 -0.0277 -0.2727  0.7407
15903SOL    HW149150   5.595   1.772   4.719  0.6315  0.4072  1.3746
15903SOL    HW249151   5.499   1.883   4.684  0.7984  0.6968  1.8353
15904SOL     OW49152   7.469   1.517   7.630 -0.2182  0.1268 -0.2696
15904SOL    HW149153   7.393   1.572   7.648  0.8432  1.2219  1.0871
15904SOL    HW249154   7.518   1.564   7.564  0.5530  0.7033  0.6950
15905SOL     OW49155   7.516   0.354   8.732 -0.1722 -0.0359 -0.4608
15905SOL    HW149156   7.424   0.336   8.750 -0.7369  1.0761 -2.0172
15905SOL    HW249157   7.544   0.410   8.805 -2.2162  3.8970 -2.3966
15906SOL     OW49158   3.925   0.729   3.012 -0.5240  0.5119  0.3040
15906SOL    HW149159   3.980   0.803   2.986  0.7409 -0.4596  0.1335
15906SOL    HW249160   3.909   0.681   2.931  0.4822 -0.5766  0.7166
15907SOL     OW49161   5.942   6.798   9.349  0.6055 -0.0331  0.1275
15907SOL    HW149162   5.881   6.732   9.318  1.6760 -1.3446  0.7168
15907SOL    HW249163   5.904   6.831   9.430  0.2662 -0.2164  0.0416
15908SOL     OW49164   0.324   1.391  10.442  0.5562 -0.3061 -0.1963
15908SOL    HW149165   0.311   1.329  10.370  0.4242  0.5147 -0.9000
15908SOL    HW249166   0.371   1.465  10.401  1.6083 -0.3722  0.8454
15909SOL     OW49167   0.335   7.459   4.185 -0.1888  0.1628  0.3289
15909SOL    HW149168   0.267   7.452   4.118  0.5912  0.8670 -0.5644
15909SOL    HW249169   0.408   7.406   4.152  1.0690  2.2864 -0.5434
15910SOL     OW49170   1.186   6.870   2.154  0.5426 -0.0193 -0.0815
15910SOL    HW149171   1.193   6.926   2.232 -0.8796  1.8779 -1.2265
15910SOL    HW249172   1.095   6.840   2.154  0.5975 -0.2125 -0.8737
15911SOL     OW49173   6.840   1.295   8.835 -0.0615 -0.3946 -0.5405
15911SOL    HW149174   6.845   1.348   8.755  0.8383  0.0028 -0.2406
15911SOL    HW249175   6.879   1.351   8.902 -0.1411 -1.0113  0.0214
15912SOL     OW49176   3.722   0.510   8.084 -0.1039 -0.7067  0.1479
15912SOL    HW149177   3.729   0.500   7.989 -2.0800 -0.7596 -0.0209
15912SOL    HW249178   3.653   0.449   8.110 -1.8129  1.4945  1.1438
15913SOL     OW49179   1.072   4.890   8.200  0.3408  0.2249  0.1540
15913SOL    HW149180   1.036   4.802   8.194 -1.6385  1.0434 -0.8351
15913SOL    HW249181   1.010   4.945   8.152  3.2647  1.6777 -2.3727
15914SOL     OW49182   3.989   1.894   2.436  0.3637  0.6390 -0.1713
15914SOL    HW149183   3.910   1.932   2.476 -1.1275 -1.5383 -0.8334
15914SOL    HW249184   4.045   1.872   2.510 -0.0284  1.4112  0.3714
15915SOL     OW49185   2.083   4.811   4.452  0.6168 -0.3031  0.1450
15915SOL    HW149186   2.086   4.820   4.357  1.4129  0.5651  0.2386
15915SOL    HW249187   1.992   4.788   4.471  0.7073 -1.6055 -0.9074
15916SOL     OW49188   1.063   1.191   3.268 -0.2673 -0.0264 -0.0850
15916SOL    HW149189   1.090   1.230   3.185  0.2248  1.6377  0.8229
15916SOL    HW249190   0.968   1.203   3.272 -0.0977  1.3145  0.2756
15917SOL     OW49191   4.328   5.952   5.051 -0.0064 -0.1037 -0.0271
15917SOL    HW149192   4.262   5.946   5.120 -0.2404  0.9140 -0.1372
15917SOL    HW249193   4.288   5.910   4.975 -0.2388 -0.1286  0.1091
15918SOL     OW49194   2.044   0.019   5.323  0.1504  0.2393  0.3882
15918SOL    HW149195   2.064  -0.074   5.329  1.2134  0.4803  0.7747
15918SOL    HW249196   1.949   0.023   5.324  0.0879 -0.8671 -0.0444
15919SOL     OW49197   2.301   6.127   2.453  0.2410 -0.0902 -0.2348
15919SOL    HW149198   2.281   6.051   2.508 -0.1617 -0.3849 -0.7821
15919SOL    HW249199   2.357   6.182   2.508 -0.7453 -0.0271  0.7371
15920SOL     OW49200   0.840   1.478   5.410 -0.4818 -0.7019  0.0082
15920SOL    HW149201   0.766   1.449   5.357 -1.4971  1.4688  0.1259
15920SOL    HW249202   0.810   1.559   5.451  1.2402 -0.8644  1.7454
15921SOL     OW49203   1.226   0.858   8.912 -0.5899  0.7019 -0.5231
15921SOL    HW149204   1.255   0.894   8.996  3.9929  0.0217 -1.5565
15921SOL    HW249205   1.288   0.891   8.848 -2.8797 -0.1854 -3.4640
15922SOL     OW49206   6.738   3.070   9.808 -0.2429  0.0295 -0.0738
15922SOL    HW149207   6.764   2.982   9.780 -0.3829 -0.0312 -0.0110
15922SOL    HW249208   6.679   3.101   9.738 -0.8653 -0.2554  0.3182
15923SOL     OW49209   3.178   2.742   5.916 -0.0550  0.5087  0.3429
15923SOL    HW149210   3.253   2.724   5.972 -0.0820  0.0186  0.2290
15923SOL    HW249211   3.102   2.727   5.971 -0.0903 -0.4187  0.0610
15924SOL     OW49212   6.925   1.944   4.807 -0.1650 -0.1234  0.1035
15924SOL    HW149213   7.019   1.940   4.825  0.2944 -0.5109 -2.0765
15924SOL    HW249214   6.915   2.023   4.753 -0.8806 -0.7202 -0.6638
15925SOL     OW49215   1.932   1.256   4.573  0.1047 -0.8651 -0.2186
15925SOL    HW149216   1.952   1.328   4.514 -0.2276 -1.5281 -1.1733
15925SOL    HW249217   2.003   1.257   4.637 -1.3055  1.9714  1.4577
15926SOL     OW49218   0.143   5.225   9.382  0.3774  0.1323  0.3392
15926SOL    HW149219   0.141   5.316   9.413 -1.5944  0.4025 -0.4381
15926SOL    HW249220   0.097   5.176   9.449 -1.5575  0.2973 -0.7964
15927SOL     OW49221   7.888   2.086   9.850  0.2338 -0.4208 -0.4104
15927SOL    HW149222   7.842   2.063   9.770 -3.1755  0.8807  0.9335
15927SOL    HW249223   7.818   2.101   9.914  2.7176 -0.7549  2.6649
15928SOL     OW49224   2.839   1.923   2.195  0.4307 -0.0599  0.2761
15928SOL    HW149225   2.931   1.909   2.175  0.2296  0.6723 -1.3245
15928SOL    HW249226   2.814   1.999   2.143 -0.2071  2.0702  3.3962
15929SOL     OW49227   2.582   2.240   7.500  0.3157  0.6390 -0.0106
15929SOL    HW149228   2.549   2.188   7.426 -0.6449  0.7215  0.3523
15929SOL    HW249229   2.594   2.328   7.464  0.0362  0.6337 -0.1215
15930SOL     OW49230   5.919   4.868   3.691 -0.0353  0.0475 -0.0592
15930SOL    HW149231   5.942   4.779   3.661 -3.5962 -1.0815  0.1497
15930SOL    HW249232   5.873   4.907   3.617  1.7634  1.9487 -0.2583
15931SOL     OW49233   3.988   4.468   6.840  0.2865  0.1220 -0.2111
15931SOL    HW149234   3.949   4.534   6.898 -2.5843 -1.4934 -0.1267
15931SOL    HW249235   3.929   4.465   6.765  0.8037 -1.8000 -0.5740
15932SOL     OW49236   6.043   0.541  10.991  0.0285  0.5130  1.2204
15932SOL    HW149237   6.076   0.620  11.034  2.0220  0.4275 -0.0532
15932SOL    HW249238   6.119   0.503  10.948 -1.4194 -0.6290 -0.4896
15933SOL     OW49239   5.590   5.851   4.835 -0.2207 -0.0122 -0.0871
15933SOL    HW149240   5.566   5.844   4.743  0.7247 -1.2040 -0.2707
15933SOL    HW249241   5.568   5.766   4.872  1.6217 -0.3964  0.2149
15934SOL     OW49242   0.865   0.531   5.136 -0.1303 -0.6047 -0.3974
15934SOL    HW149243   0.893   0.482   5.060 -1.2784 -0.7121 -0.7653
15934SOL    HW249244   0.831   0.465   5.197  0.8587 -0.5324  0.2653
15935SOL     OW49245   5.493   6.036   5.167  0.0088 -0.5270  0.8466
15935SOL    HW149246   5.502   5.978   5.242 -0.8704 -1.6726  0.1050
15935SOL    HW249247   5.517   5.982   5.091 -2.2903 -0.4469 -0.0183
15936SOL     OW49248   4.446   6.183  12.207 -0.2869  0.0029  0.1422
15936SOL    HW149249   4.536   6.215  12.214 -0.9855  1.7417  1.9364
15936SOL    HW249250   4.435   6.126  12.283 -1.3002  1.5205  1.1870
15937SOL     OW49251   5.786   0.664   4.174  0.6044  0.1201  0.1800
15937SOL    HW149252   5.699   0.692   4.147  0.6815  0.6730  0.4854
15937SOL    HW249253   5.838   0.667   4.094  0.5575  0.6643  0.1619
15938SOL     OW49254   1.390   0.512   9.864  0.6850 -0.1311 -0.3358
15938SOL    HW149255   1.364   0.604   9.872  0.0591 -0.2280 -1.1229
15938SOL    HW249256   1.454   0.512   9.793 -0.3301 -0.4696 -1.2891
15939SOL     OW49257   4.964   2.774   6.664 -0.1304  0.1357 -0.4135
15939SOL    HW149258   4.982   2.701   6.723  0.6187  1.8631  1.6273
15939SOL    HW249259   4.932   2.733   6.584  2.2578 -2.5240 -0.1509
15940SOL     OW49260   3.819   2.351   7.914  0.3679  0.5505  0.0703
15940SOL    HW149261   3.836   2.429   7.966  0.7068  0.1322  0.5956
15940SOL    HW249262   3.805   2.281   7.978 -0.3426  0.2605 -0.3887
15941SOL     OW49263   4.028   6.931   1.661 -0.3354 -0.2913 -0.5464
15941SOL    HW149264   4.063   6.858   1.712 -1.0286  0.0021  0.3791
15941SOL    HW249265   3.993   6.891   1.582  0.9019 -0.7366 -0.8736
15942SOL     OW49266   0.299   1.437   8.370 -0.0879 -0.3783  0.4170
15942SOL    HW149267   0.269   1.491   8.444 -0.5399  1.7424 -1.2079
15942SOL    HW249268   0.255   1.475   8.294  1.6591 -1.3942 -1.1754
15943SOL     OW49269   5.140   3.884   0.850  0.4798 -0.2859 -0.4977
15943SOL    HW149270   5.172   3.972   0.868  0.6884 -0.3832 -0.3979
15943SOL    HW249271   5.218   3.833   0.830  0.3898 -0.5152 -0.2777
15944SOL     OW49272   6.332   0.699   3.243 -0.1225  0.0658  0.3254
15944SOL    HW149273   6.340   0.733   3.332  0.8965 -1.0059  0.6675
15944SOL    HW249274   6.324   0.604   3.255 -2.4370  0.0701 -0.6189
15945SOL     OW49275   3.067   5.200   0.024  0.3053 -0.4328  0.2399
15945SOL    HW149276   3.126   5.267  -0.013  0.2972 -0.6702 -0.2164
15945SOL    HW249277   3.117   5.118   0.017 -0.1809 -0.6835 -0.4113
15946SOL     OW49278   0.688   2.964   9.145 -0.2584 -0.1612  0.7988
15946SOL    HW149279   0.709   2.913   9.066  0.3618  1.1448  0.0826
15946SOL    HW249280   0.631   2.907   9.196 -1.3428 -0.7683 -0.9719
15947SOL     OW49281   1.516   7.214   3.174  0.1493 -0.0244  0.4258
15947SOL    HW149282   1.456   7.276   3.133  1.8403  1.7381  0.4579
15947SOL    HW249283   1.523   7.245   3.265  1.8516  0.4343  0.1605
15948SOL     OW49284   5.092   3.720   7.134  0.2544  0.0517 -0.4460
15948SOL    HW149285   5.034   3.769   7.192  0.6745  1.4096 -1.1369
15948SOL    HW249286   5.068   3.749   7.046  1.6110  0.2690 -0.7722
15949SOL     OW49287   2.096   2.095   8.619 -0.2412 -0.0173  0.7490
15949SOL    HW149288   2.006   2.103   8.649 -0.5462  0.9306 -0.3753
15949SOL    HW249289   2.095   2.126   8.529  1.0703 -0.7279  0.4569
15950SOL     OW49290   0.431   3.829   4.378 -0.1675  0.3134 -0.3307
15950SOL    HW149291   0.355   3.882   4.351 -0.0010  0.1701 -1.0948
15950SOL    HW249292   0.459   3.786   4.298  1.7248  1.6034 -0.4214
15951SOL     OW49293   7.754   7.681  12.214  0.4158  0.5470  0.3308
15951SOL    HW149294   7.671   7.634  12.204  1.4561 -1.3702  0.1054
15951SOL    HW249295   7.805   7.627  12.275  1.4616  1.7402  0.5634
15952SOL     OW49296   3.486   6.496   3.491  0.4484  0.3105  0.9247
15952SOL    HW149297   3.499   6.410   3.450 -0.7231  0.3817  0.3337
15952SOL    HW249298   3.508   6.482   3.583 -1.4834 -1.1508  1.2485
15953SOL     OW49299   0.738   3.164   4.073  0.8242  0.1877  1.4255
15953SOL    HW149300   0.657   3.127   4.038 -0.2146  0.9206  2.9553
15953SOL    HW249301   0.799   3.160   3.999 -0.7713  0.2126  0.0242
15954SOL     OW49302   3.275   6.171   6.825 -0.1512 -0.4885 -0.1926
15954SOL    HW149303   3.343   6.218   6.874 -0.8552  0.1584  0.1875
15954SOL    HW249304   3.203   6.233   6.817 -1.8926 -2.0409  1.9824
15955SOL     OW49305   2.214   1.800  11.803 -0.9687 -0.3344  1.0651
15955SOL    HW149306   2.286   1.840  11.852 -0.2081  1.9845 -1.6284
15955SOL    HW249307   2.257   1.758  11.728 -2.2699  3.0992 -1.9257
15956SOL     OW49308   6.103   4.130   7.046 -0.0070  0.5821  0.4137
15956SOL    HW149309   6.138   4.217   7.027  0.1347  0.5807  0.6680
15956SOL    HW249310   6.168   4.089   7.102  1.2934 -0.7307 -1.8917
15957SOL     OW49311   5.459   3.546   5.440  0.2116 -0.3167  0.3166
15957SOL    HW149312   5.537   3.566   5.388  0.0952 -0.4323  0.0945
15957SOL    HW249313   5.422   3.469   5.398  0.4414 -0.7707  0.9363
15958SOL     OW49314   0.099   4.008   8.047 -0.2664 -0.2687 -0.4976
15958SOL    HW149315   0.046   4.009   8.127  1.1328 -0.0936  0.4620
15958SOL    HW249316   0.138   4.095   8.042 -1.7204  0.3472 -2.3829
15959SOL     OW49317   7.977   3.086  12.445 -0.4380 -0.5211 -0.4818
15959SOL    HW149318   7.891   3.051  12.423 -0.3351 -0.0626 -1.6601
15959SOL    HW249319   8.026   3.010  12.476 -1.0841 -0.8885 -0.3290
15960SOL     OW49320   2.200   6.592  10.787 -0.9700 -0.3364  0.7206
15960SOL    HW149321   2.283   6.562  10.825 -1.0411 -2.4374 -0.6604
15960SOL    HW249322   2.225   6.636  10.706 -1.0929  0.9468  1.3484
15961SOL     OW49323   5.973   3.970   4.983  0.5394 -0.7496 -0.1630
15961SOL    HW149324   5.936   3.906   5.044 -0.2536 -1.6538 -1.5463
15961SOL    HW249325   6.061   3.937   4.965  1.2623  0.2041  1.4173
15962SOL     OW49326   5.303   7.180  12.208  0.1080 -0.6994 -0.4889
15962SOL    HW149327   5.352   7.237  12.148  0.1554 -1.3886 -1.1315
15962SOL    HW249328   5.212   7.206  12.197  0.2169 -0.0968 -0.0456
15963SOL     OW49329   6.681   1.796   5.320  0.2150  0.5244 -0.5752
15963SOL    HW149330   6.699   1.744   5.399  0.0431 -1.1250 -1.5915
15963SOL    HW249331   6.593   1.831   5.335  0.3035  0.4846  0.0958
15964SOL     OW49332   5.974   1.150   3.862 -0.0401  0.2304 -0.1761
15964SOL    HW149333   5.950   1.132   3.771 -0.9674 -0.2153  0.1390
15964SOL    HW249334   5.984   1.245   3.866 -1.2107  0.3922 -0.4865
15965SOL     OW49335   0.685   1.404   9.209 -0.3937 -0.0510 -0.7720
15965SOL    HW149336   0.609   1.439   9.163 -1.4279 -0.9355  0.1769
15965SOL    HW249337   0.692   1.313   9.179 -1.5594 -0.8956  1.2515
15966SOL     OW49338   5.689   6.399   6.573 -0.8798 -0.7033 -0.1127
15966SOL    HW149339   5.673   6.305   6.566  0.3285 -0.9809  0.4941
15966SOL    HW249340   5.780   6.410   6.544 -0.7122  0.1379  0.6629
15967SOL     OW49341   0.010   6.774  11.139  0.2593  0.4485 -0.3326
15967SOL    HW149342   0.023   6.830  11.063  1.0835  0.0009 -0.5315
15967SOL    HW249343  -0.067   6.721  11.117 -1.1651  2.1653  0.2798
15968SOL     OW49344   6.826   3.443  11.432 -0.3850 -0.1095 -0.7816
15968SOL    HW149345   6.817   3.388  11.510 -0.4389  0.0745 -0.6539
15968SOL    HW249346   6.900   3.407  11.384 -0.1368 -0.0159 -0.4694
15969SOL     OW49347   5.168   6.303   2.999  0.0703 -0.0288  0.0580
15969SOL    HW149348   5.150   6.213   3.027  0.6748 -0.0661  0.3416
15969SOL    HW249349   5.225   6.293   2.922 -0.4107  0.1005 -0.3195
15970SOL     OW49350   1.173   3.689   8.554 -0.0132 -0.4447 -0.2578
15970SOL    HW149351   1.094   3.738   8.578 -0.3268 -1.2213  0.3243
15970SOL    HW249352   1.240   3.757   8.542 -0.1885  0.0783  1.4637
15971SOL     OW49353   3.328   6.459   2.158  0.4086  0.3634 -0.0802
15971SOL    HW149354   3.294   6.482   2.244  0.4282  0.2640 -0.0468
15971SOL    HW249355   3.409   6.411   2.176  1.1266  1.4791 -0.1618
15972SOL     OW49356   2.937   2.551   4.571 -0.3271 -0.2572 -0.9006
15972SOL    HW149357   2.933   2.459   4.546  0.5416 -0.5902  0.1253
15972SOL    HW249358   3.025   2.562   4.607 -0.6802  0.7970 -0.3376
15973SOL     OW49359   2.118   0.610  10.423 -0.1960  0.0474 -0.1050
15973SOL    HW149360   2.170   0.683  10.456 -0.6100  0.1184  0.3962
15973SOL    HW249361   2.075   0.573  10.500  0.3365 -0.9954 -0.2816
15974SOL     OW49362   6.970   1.155  12.337  0.0711  0.0447  0.2182
15974SOL    HW149363   6.973   1.065  12.305  0.0587  0.9121 -2.4940
15974SOL    HW249364   6.879   1.182  12.322  0.1350  0.5863  0.7803
15975SOL     OW49365   4.306   6.128   8.537  0.0682  0.0242  0.2720
15975SOL    HW149366   4.325   6.045   8.493  0.0279  0.2822 -0.2466
15975SOL    HW249367   4.379   6.140   8.597 -0.6193 -1.0537  1.3687
15976SOL     OW49368   0.457   2.584   9.660  0.0741 -0.0744  0.3334
15976SOL    HW149369   0.442   2.499   9.620 -0.7372 -0.1353  0.7451
15976SOL    HW249370   0.513   2.566   9.736  0.4056 -0.1494  0.0752
15977SOL     OW49371   7.310   0.920  11.061 -0.3220 -0.2259  0.6771
15977SOL    HW149372   7.368   0.912  10.986  0.6325  0.3389  1.3335
15977SOL    HW249373   7.267   0.835  11.067  1.1066 -0.9721  0.7024
15978SOL     OW49374   1.847   6.475   5.714  0.0301 -0.6168 -0.2100
15978SOL    HW149375   1.883   6.536   5.650  0.9457 -0.4994  0.3856
15978SOL    HW249376   1.754   6.471   5.695 -0.6555  3.2325  1.4797
15979SOL     OW49377   0.191   0.686   2.479 -0.0324 -0.6389  0.0312
15979SOL    HW149378   0.160   0.749   2.544  1.2189  0.9841 -0.8822
15979SOL    HW249379   0.208   0.606   2.530 -0.4992  0.1071  1.4217
15980SOL     OW49380   4.488   7.755   3.358  0.2425 -0.0725 -0.0260
15980SOL    HW149381   4.484   7.773   3.452 -1.7263 -1.2093  0.1601
15980SOL    HW249382   4.485   7.841   3.317  1.7681  0.4734  0.9171
15981SOL     OW49383   4.018   7.105   1.025 -0.0064  0.6349  0.2671
15981SOL    HW149384   4.054   7.145   0.945 -0.2682  1.8428  0.7243
15981SOL    HW249385   3.934   7.150   1.038 -0.0933  0.2550  1.0703
15982SOL     OW49386   6.961   7.216   1.875 -0.0178  0.0782 -0.1835
15982SOL    HW149387   7.032   7.275   1.899  0.1181 -0.3007  0.3667
15982SOL    HW249388   7.000   7.156   1.811  0.0914  0.0153 -0.0574
15983SOL     OW49389   4.881   0.759   9.112  0.0713 -0.6372  0.0343
15983SOL    HW149390   4.833   0.685   9.151  1.2992 -1.9995 -0.8963
15983SOL    HW249391   4.903   0.815   9.186  0.3755 -1.9734  1.0103
15984SOL     OW49392   5.132   2.615   8.792  0.0925  0.7004 -0.4365
15984SOL    HW149393   5.119   2.709   8.805  0.7097  0.6832  0.3702
15984SOL    HW249394   5.225   2.601   8.805  0.1106  0.0624 -1.1719
15985SOL     OW49395   7.940   5.751   4.438  0.3576  0.1583 -0.2426
15985SOL    HW149396   7.879   5.801   4.384  1.0149 -0.4599 -1.6026
15985SOL    HW249397   7.909   5.660   4.431  0.9086 -0.0332 -0.2257
15986SOL     OW49398   3.116   6.406   4.336 -0.3115 -0.5258  0.2267
15986SOL    HW149399   3.036   6.354   4.335  0.3773 -1.8850  3.3958
15986SOL    HW249400   3.087   6.495   4.314 -2.1272 -1.4899 -1.6419
15987SOL     OW49401   1.640   7.689   4.819  0.6059 -0.4384 -0.7317
15987SOL    HW149402   1.663   7.780   4.839  0.8437 -0.8832  1.2407
15987SOL    HW249403   1.570   7.696   4.754  1.4466  1.1103 -1.5287
15988SOL     OW49404   6.922   2.789   7.419  0.5224  0.5743  0.5550
15988SOL    HW149405   6.946   2.863   7.474  0.6556  1.2719 -0.4056
15988SOL    HW249406   6.933   2.713   7.475 -0.5849  1.3371  1.8829
15989SOL     OW49407   0.455   5.611   7.673 -0.4900  0.0693  0.1656
15989SOL    HW149408   0.464   5.540   7.610 -1.1864 -0.4438  0.6244
15989SOL    HW249409   0.400   5.675   7.630 -0.9433 -0.2692  0.2333
15990SOL     OW49410   6.908   1.192   1.543 -0.1525 -0.4685 -0.4942
15990SOL    HW149411   6.943   1.109   1.574 -0.8824 -0.6649 -0.1831
15990SOL    HW249412   6.946   1.258   1.601 -0.2144 -0.6717 -0.2215
15991SOL     OW49413   4.361   4.068   8.334  0.1546 -0.4406  0.1961
15991SOL    HW149414   4.313   4.147   8.360 -0.3485 -0.3011 -1.1099
15991SOL    HW249415   4.300   4.018   8.281  1.6623  0.1451 -2.2580
15992SOL     OW49416   0.237   1.378   3.911  0.2952 -0.0171 -0.4475
15992SOL    HW149417   0.247   1.424   3.827  1.6573  0.5687  0.0097
15992SOL    HW249418   0.213   1.289   3.887 -1.4502  0.6482 -1.3852
15993SOL     OW49419   0.205   4.591   8.305 -0.2043  0.0657 -0.3868
15993SOL    HW149420   0.187   4.644   8.383 -0.1039 -0.7509  0.2069
15993SOL    HW249421   0.265   4.523   8.337 -1.0897 -0.9725 -0.9102
15994SOL     OW49422   6.313   5.472  12.460  0.1572 -0.0811 -0.1370
15994SOL    HW149423   6.226   5.435  12.449  0.1974  0.0669 -0.9909
15994SOL    HW249424   6.298   5.564  12.481  0.1079 -0.0759 -0.1968
15995SOL     OW49425   6.576   7.753  10.852 -0.4714  0.2176 -0.0684
15995SOL    HW149426   6.496   7.765  10.801 -0.4147  0.2057 -0.1598
15995SOL    HW249427   6.613   7.840  10.860 -0.6326  0.2645  0.2035
15996SOL     OW49428   2.942   0.360   0.381  0.1077 -0.8926  0.2466
15996SOL    HW149429   3.038   0.365   0.382  0.0553  0.3702 -0.0031
15996SOL    HW249430   2.916   0.368   0.473  0.2097 -0.4185  0.2353
15997SOL     OW49431   6.135   4.453   9.443  0.1635  0.2865  0.0454
15997SOL    HW149432   6.230   4.450   9.432  0.3155  0.1861  1.2100
15997SOL    HW249433   6.101   4.390   9.379  0.9712 -0.6029  0.4716
15998SOL     OW49434   2.760   1.001   5.826 -1.0743  0.4922 -0.0925
15998SOL    HW149435   2.701   0.969   5.759  2.2431 -2.0728 -2.1602
15998SOL    HW249436   2.775   0.925   5.883  0.4505  0.9115  0.1225
15999SOL     OW49437   0.542   1.324   6.732  0.0787 -0.3189 -0.1562
15999SOL    HW149438   0.616   1.269   6.706  0.5597 -0.4706  1.4037
15999SOL    HW249439   0.466   1.267   6.727  0.5671 -1.1653  1.3887
16000SOL     OW49440   2.999   1.076  10.817  0.0003  0.1563 -0.0138
16000SOL    HW149441   2.943   0.999  10.808 -0.5269  0.6592 -1.3753
16000SOL    HW249442   3.052   1.075  10.737  1.2918  0.2164  0.8115
16001SOL     OW49443   1.676   3.973   3.358 -0.0092 -0.0489 -0.2972
16001SOL    HW149444   1.723   3.935   3.284  0.0952 -0.0757 -0.2170
16001SOL    HW249445   1.615   4.035   3.318 -1.7531 -1.8685 -0.6374
16002SOL     OW49446   1.506   2.225   2.458  0.4061  0.0522 -0.5368
16002SOL    HW149447   1.534   2.312   2.432 -0.8327  0.4217 -0.7101
16002SOL    HW249448   1.421   2.239   2.501 -1.0308 -1.2724 -2.7458
16003SOL     OW49449   2.053   1.654   5.299  0.3931 -0.2480 -0.3290
16003SOL    HW149450   2.147   1.669   5.297  0.5218 -0.9841 -0.1352
16003SOL    HW249451   2.040   1.594   5.372 -0.2627  0.0784 -0.1722
16004SOL     OW49452   4.763   0.112   4.694 -0.1833 -0.2955  0.4610
16004SOL    HW149453   4.822   0.178   4.657 -1.2713  0.9614  0.8963
16004SOL    HW249454   4.786   0.031   4.648 -0.0088  0.7509 -1.3921
16005SOL     OW49455   5.568   2.734  10.964 -0.3882 -0.6113 -0.6303
16005SOL    HW149456   5.568   2.789  11.043  0.0142 -0.0018 -1.0410
16005SOL    HW249457   5.639   2.770  10.910 -1.2283 -0.4421 -1.6590
16006SOL     OW49458   4.719   7.902   5.240 -0.1102  0.4508  0.4727
16006SOL    HW149459   4.804   7.930   5.275  0.4678  1.0908 -1.3576
16006SOL    HW249460   4.734   7.888   5.147 -1.9778  0.3522  0.1442
16007SOL     OW49461   5.285   4.506   7.840  0.2383 -0.2484 -0.2072
16007SOL    HW149462   5.236   4.511   7.921 -1.0290 -1.4938 -0.8418
16007SOL    HW249463   5.254   4.580   7.788  0.9443  0.4633  0.3671
16008SOL     OW49464   2.960   7.636   2.027 -0.2375  0.7825  0.5536
16008SOL    HW149465   2.867   7.643   2.050 -0.1926 -1.2649  1.5758
16008SOL    HW249466   2.988   7.552   2.065  1.7147  0.7342 -0.8605
16009SOL     OW49467   3.944   1.087   8.948 -0.0734 -0.0268 -0.2107
16009SOL    HW149468   3.876   1.150   8.971 -1.3298 -1.1058 -0.8031
16009SOL    HW249469   3.977   1.115   8.863 -1.9661 -1.1648 -1.3811
16010SOL     OW49470   4.779   1.483   4.917 -0.2459 -0.2288  0.4215
16010SOL    HW149471   4.836   1.560   4.921 -0.1591 -0.2234 -0.6449
16010SOL    HW249472   4.839   1.409   4.929  0.2010 -0.2844 -1.7959
16011SOL     OW49473   6.433   5.763   5.492  0.3890  0.4059 -0.0962
16011SOL    HW149474   6.393   5.755   5.405 -0.9240  0.2514  0.5112
16011SOL    HW249475   6.371   5.813   5.544  2.0793  2.2921  0.2273
16012SOL     OW49476   3.956   2.513   5.339  0.2161 -0.2115 -0.4759
16012SOL    HW149477   3.994   2.425   5.342  2.1711  0.5730 -0.8281
16012SOL    HW249478   3.980   2.546   5.253 -0.0115  0.8657 -0.1348
16013SOL     OW49479   4.742   2.410  10.861 -0.1900 -0.4646  0.0692
16013SOL    HW149480   4.740   2.422  10.766 -0.2449  0.2921  0.1560
16013SOL    HW249481   4.665   2.356  10.880 -1.1706  0.7956 -0.1475
16014SOL     OW49482   3.285   3.023   9.809  0.0513  0.3304  0.1579
16014SOL    HW149483   3.258   3.068   9.728 -1.5455 -0.1301  0.4061
16014SOL    HW249484   3.321   3.092   9.864  0.7627  0.7206 -0.7654
16015SOL     OW49485   5.365   1.655  10.726 -0.4815  0.0737  0.0349
16015SOL    HW149486   5.387   1.721  10.792  2.6145  0.1473 -0.9027
16015SOL    HW249487   5.390   1.572  10.766 -0.4308 -0.0911 -0.3351
16016SOL     OW49488   7.573   3.954   7.535 -0.1519 -0.8618 -0.1831
16016SOL    HW149489   7.590   3.981   7.625 -1.6376 -1.0083  0.1757
16016SOL    HW249490   7.656   3.919   7.503  0.5826 -0.1403  0.8787
16017SOL     OW49491   1.726   2.067  11.344 -0.3784  0.4513  0.1478
16017SOL    HW149492   1.793   2.123  11.306  0.6042 -0.7778 -0.0008
16017SOL    HW249493   1.649   2.123  11.350 -0.1479  1.1349 -2.2430
16018SOL     OW49494   5.090   2.249   1.954 -0.9130 -0.7936 -0.7033
16018SOL    HW149495   5.010   2.254   1.902 -0.4230 -0.4868 -1.4496
16018SOL    HW249496   5.100   2.337   1.990 -2.2000 -1.4573  1.4002
16019SOL     OW49497   4.166   6.573   2.404 -0.3951  0.6751 -0.4015
16019SOL    HW149498   4.140   6.649   2.456  3.7641  2.3825 -0.3767
16019SOL    HW249499   4.191   6.507   2.468 -1.5533  0.2150 -0.3995
16020SOL     OW49500   6.573   1.547   3.926  0.2212 -0.0839 -0.0448
16020SOL    HW149501   6.611   1.474   3.974 -0.2618 -0.5238 -0.3278
16020SOL    HW249502   6.573   1.519   3.835  0.7714  0.5901 -0.2648
16021SOL     OW49503   0.553   2.747   6.575 -0.4699 -0.0937 -0.2092
16021SOL    HW149504   0.474   2.775   6.622  0.1830  0.9814  0.2949
16021SOL    HW249505   0.573   2.661   6.611  0.2221  0.8400  1.8359
16022SOL     OW49506   1.147   6.147   5.131  0.3488 -0.2676  0.1828
16022SOL    HW149507   1.203   6.224   5.122  0.7399 -0.5985 -0.2714
16022SOL    HW249508   1.117   6.128   5.042  0.2720 -0.6513  0.2892
16023SOL     OW49509   0.596   3.792   0.183  0.8745  0.2276  0.3287
16023SOL    HW149510   0.547   3.807   0.102 -2.7660  0.1463  2.2748
16023SOL    HW249511   0.598   3.878   0.226  1.9471  0.0938  0.5599
16024SOL     OW49512   4.926   6.647   9.764 -0.3334  0.9982  0.2631
16024SOL    HW149513   4.841   6.656   9.807 -1.1989  3.9906 -1.7634
16024SOL    HW249514   4.906   6.612   9.678  0.6566  0.7248  0.1243
16025SOL     OW49515   7.541   7.369   1.305  0.0665  0.4019  0.0901
16025SOL    HW149516   7.583   7.319   1.375 -0.8254 -1.0948 -0.3854
16025SOL    HW249517   7.449   7.374   1.331 -0.1199  0.5403 -0.5745
16026SOL     OW49518   7.528   6.118   5.037 -0.0134  0.4919  0.1923
16026SOL    HW149519   7.456   6.171   5.004  0.2736  0.3934 -0.5948
16026SOL    HW249520   7.607   6.163   5.006  0.2487  0.1337  0.3335
16027SOL     OW49521   0.513   7.562   6.355  0.0839 -0.3411 -0.0267
16027SOL    HW149522   0.545   7.508   6.283  0.6621  0.7022 -0.5746
16027SOL    HW249523   0.417   7.558   6.346  0.1048 -1.4581  0.0980
16028SOL     OW49524   0.994   6.443   1.966 -0.3015  0.0796  0.1901
16028SOL    HW149525   0.943   6.436   2.047 -4.2699 -0.1651 -2.0525
16028SOL    HW249526   0.988   6.536   1.942  3.6047  0.8706  1.5702
16029SOL     OW49527   7.800   5.671   7.016  0.5796 -0.5103 -0.0293
16029SOL    HW149528   7.868   5.636   6.958  0.3853 -2.3376  0.7814
16029SOL    HW249529   7.718   5.648   6.973  0.4451 -0.9455  0.4642
16030SOL     OW49530   1.397   4.653   6.387 -0.4101 -0.0283  0.0277
16030SOL    HW149531   1.415   4.715   6.317 -3.1237 -0.0899 -0.8335
16030SOL    HW249532   1.456   4.580   6.370 -0.6808  0.1568 -1.9611
16031SOL     OW49533   0.726   3.043   9.409  0.3307  0.0889 -0.4544
16031SOL    HW149534   0.656   3.100   9.439  2.1295  2.8035 -1.0214
16031SOL    HW249535   0.715   3.039   9.314  0.9217  0.5417 -0.5470
16032SOL     OW49536   5.039   1.212   9.153 -0.3483 -0.0952  0.2090
16032SOL    HW149537   5.070   1.203   9.243 -0.8879  2.7288  0.7940
16032SOL    HW249538   4.985   1.135   9.138  0.9053 -1.3447  1.7795
16033SOL     OW49539   3.870   5.110  10.705  0.4549 -0.1174  0.3910
16033SOL    HW149540   3.841   5.024  10.673 -0.8765 -0.0281  1.2607
16033SOL    HW249541   3.789   5.155  10.729  1.2545  0.5003  2.1113
16034SOL     OW49542   3.722   4.930   7.880 -0.3518  0.4104  0.2276
16034SOL    HW149543   3.687   4.917   7.968 -0.7639  1.8923  0.3035
16034SOL    HW249544   3.753   4.843   7.853 -0.0660 -0.0328  1.8868
16035SOL     OW49545   7.441   1.298   7.444  0.5507 -0.4364 -0.1506
16035SOL    HW149546   7.436   1.348   7.526  1.5729 -1.4472  0.5483
16035SOL    HW249547   7.378   1.227   7.456 -0.8713  0.5936 -1.1311
16036SOL     OW49548   2.461   2.251  11.452 -0.5321 -0.3111  0.0696
16036SOL    HW149549   2.505   2.316  11.398 -0.3659 -0.0775  0.4823
16036SOL    HW249550   2.422   2.301  11.524  2.2516 -0.9469  2.1723
16037SOL     OW49551   2.676   2.640   3.510  0.1011  0.3828 -0.2515
16037SOL    HW149552   2.764   2.664   3.483  0.0878 -0.7636 -1.4304
16037SOL    HW249553   2.683   2.622   3.604  1.3715 -0.7265 -0.5330
16038SOL     OW49554   3.436   6.412   5.660  0.3790 -0.3064  0.4000
16038SOL    HW149555   3.476   6.340   5.612  0.2498 -2.3102  3.0758
16038SOL    HW249556   3.488   6.419   5.740 -0.8130  1.2786  1.0875
16039SOL     OW49557   5.527   1.957   9.675  0.2362  0.3494  0.1247
16039SOL    HW149558   5.565   2.043   9.691 -1.4017  0.8522  1.6265
16039SOL    HW249559   5.587   1.896   9.719  0.7664  0.8263  0.0804
16040SOL     OW49560   1.961   7.873   8.051 -0.1198  0.3814  0.5956
16040SOL    HW149561   1.867   7.876   8.070 -0.3208 -1.6747  0.1669
16040SOL    HW249562   2.002   7.855   8.135 -0.2847 -0.4641  0.5049
16041SOL     OW49563   7.342   6.675  11.138 -0.8283  0.2103  0.5761
16041SOL    HW149564   7.290   6.701  11.061  0.3287 -0.5002 -0.4850
16041SOL    HW249565   7.329   6.580  11.144 -0.7076  0.2274  1.1098
16042SOL     OW49566   3.120   5.361   7.758 -0.6300  0.1452 -0.0281
16042SOL    HW149567   3.146   5.271   7.737  1.4086  0.6201  0.3089
16042SOL    HW249568   3.031   5.369   7.723 -0.7599 -1.9128 -0.2835
16043SOL     OW49569   7.495   2.792   7.573 -0.4340  0.9069 -0.0003
16043SOL    HW149570   7.469   2.876   7.609  0.1421  1.4454 -0.7825
16043SOL    HW249571   7.429   2.774   7.505 -0.6580  0.6418  0.2884
16044SOL     OW49572   2.922   2.323  12.011  0.5645  0.1824 -0.6894
16044SOL    HW149573   2.982   2.249  12.021 -1.3874 -1.4626 -0.4920
16044SOL    HW249574   2.922   2.341  11.917 -0.2732 -1.3021 -1.0101
16045SOL     OW49575   0.056   5.911   1.036  0.2884 -0.1741 -0.0355
16045SOL    HW149576   0.094   5.993   1.066  0.3880 -0.9584  2.1320
16045SOL    HW249577  -0.036   5.916   1.060  0.0143 -0.1898 -1.0447
16046SOL     OW49578   6.779   4.721  12.419  0.0604 -0.4432 -0.6809
16046SOL    HW149579   6.730   4.723  12.336  0.2132  1.1742 -0.7705
16046SOL    HW249580   6.736   4.653  12.470 -2.0068  0.5571 -0.9591
16047SOL     OW49581   2.022   1.473  11.007  0.4303 -0.2430  0.2893
16047SOL    HW149582   1.990   1.496  11.094  0.4208 -1.6322  0.6727
16047SOL    HW249583   2.029   1.378  11.008  0.4332 -0.2841 -1.2344
16048SOL     OW49584   1.167   6.510   2.500  0.2385  0.5880 -0.5216
16048SOL    HW149585   1.153   6.416   2.506 -0.2051  0.6082 -1.1019
16048SOL    HW249586   1.215   6.533   2.580  2.2463 -0.4710 -1.3441
16049SOL     OW49587   2.144   6.966   2.972 -0.2982  0.5277  0.4121
16049SOL    HW149588   2.215   7.023   3.000 -0.3284  1.1145 -0.6372
16049SOL    HW249589   2.069   7.024   2.961 -0.4121  0.2483 -0.3689
16050SOL     OW49590   2.251   4.353   6.292 -0.0788  0.1122 -0.2173
16050SOL    HW149591   2.300   4.435   6.294 -0.0338  0.0720  1.2755
16050SOL    HW249592   2.250   4.328   6.199 -0.0550  1.7630 -0.6957
16051SOL     OW49593   1.174   2.996  10.563  0.1941 -0.5584  0.6317
16051SOL    HW149594   1.189   3.036  10.649 -0.3010 -0.2319  0.5714
16051SOL    HW249595   1.247   2.935  10.551  2.3163  1.9708 -0.2682
16052SOL     OW49596   7.622   1.647   9.901  0.1877  0.0908 -0.1889
16052SOL    HW149597   7.667   1.602   9.830  1.7015  1.5262 -0.2119
16052SOL    HW249598   7.688   1.657   9.970 -0.5926  0.7333  0.4999
16053SOL     OW49599   7.876   4.384   6.740 -0.0817  0.1682 -0.1900
16053SOL    HW149600   7.890   4.478   6.745 -2.0225  0.4532  0.8661
16053SOL    HW249601   7.856   4.368   6.648 -0.8330  0.9759 -0.1736
16054SOL     OW49602   1.764   4.541   1.026 -0.2096  0.1682  0.0700
16054SOL    HW149603   1.821   4.478   0.982  0.0788 -0.8750  1.8355
16054SOL    HW249604   1.677   4.502   1.024 -0.2302  0.2023  0.2688
16055SOL     OW49605   1.488   0.366   2.792  0.1473 -0.0888  0.1580
16055SOL    HW149606   1.560   0.309   2.818  0.4503  0.8652  1.5500
16055SOL    HW249607   1.420   0.349   2.858 -0.6197 -0.4124 -0.6897
16056SOL     OW49608   1.363   6.700   4.958 -0.1061 -0.7922  0.5802
16056SOL    HW149609   1.434   6.760   4.980  0.0797 -0.8953  0.2777
16056SOL    HW249610   1.296   6.716   5.024 -0.7022  0.8431 -0.3513
16057SOL     OW49611   6.610   4.396  11.045 -0.1422 -0.0926  0.1355
16057SOL    HW149612   6.694   4.425  11.080  0.0042  0.3456 -0.5581
16057SOL    HW249613   6.559   4.476  11.036 -1.0621 -0.4691  1.6032
16058SOL     OW49614   0.203   5.194   0.124 -0.4055 -0.0531 -0.0391
16058SOL    HW149615   0.168   5.105   0.117 -0.4901 -0.1649  1.5751
16058SOL    HW249616   0.295   5.186   0.098 -0.3826 -0.6392  0.2032
16059SOL     OW49617   3.412   7.762   4.595 -1.1016 -0.6302 -0.9131
16059SOL    HW149618   3.430   7.736   4.685  1.2448  0.1076 -1.1199
16059SOL    HW249619   3.454   7.695   4.541  0.1007  0.4819 -1.4259
16060SOL     OW49620   3.924   0.545   8.566 -0.2742  0.2715 -0.3384
16060SOL    HW149621   3.991   0.546   8.498 -0.6822  1.5894 -0.7411
16060SOL    HW249622   3.926   0.455   8.599  1.0373  0.0356 -0.9768
16061SOL     OW49623   2.738   1.376   4.949  1.1158 -0.3313  0.1988
16061SOL    HW149624   2.817   1.391   4.898  0.6058 -2.0452 -1.1870
16061SOL    HW249625   2.768   1.324   5.024  1.3815 -0.5363 -0.0481
16062SOL     OW49626   1.631   1.406   8.558 -0.4580 -0.0324 -0.1720
16062SOL    HW149627   1.705   1.349   8.538 -1.9167 -1.0419 -3.3739
16062SOL    HW249628   1.654   1.491   8.521 -0.6378 -0.1752 -0.6159
16063SOL     OW49629   5.767   4.915   8.511 -0.0929  0.2787 -0.6057
16063SOL    HW149630   5.744   4.844   8.571  1.7105 -0.1962 -0.4166
16063SOL    HW249631   5.825   4.874   8.447  1.6437  1.7119 -0.0413
16064SOL     OW49632   3.543   6.088   8.791  0.1274  0.0590 -0.1754
16064SOL    HW149633   3.541   6.179   8.822 -1.8424  0.3516 -1.0072
16064SOL    HW249634   3.636   6.065   8.792  0.5224  1.4613  1.7688
16065SOL     OW49635   0.045   6.953   3.344  0.8043  0.6840 -0.5456
16065SOL    HW149636   0.104   6.887   3.379  0.2276 -0.2135 -1.2156
16065SOL    HW249637   0.084   6.979   3.261 -0.2318 -0.6801 -1.5031
16066SOL     OW49638   7.081   6.289   2.905  0.2263 -0.1023  0.3976
16066SOL    HW149639   7.051   6.199   2.918 -1.1344  0.4707  1.5608
16066SOL    HW249640   7.001   6.338   2.886  0.9257  0.8933 -0.0864
16067SOL     OW49641   0.199   2.865   0.979  0.2868  0.0722 -0.3059
16067SOL    HW149642   0.206   2.805   1.053  0.0972 -1.1782 -1.2759
16067SOL    HW249643   0.290   2.890   0.960  0.2857  1.0876  0.8539
16068SOL     OW49644   6.241   6.858   8.454  0.1469  0.2671 -0.4892
16068SOL    HW149645   6.324   6.861   8.408  0.1575  1.6683 -0.4142
16068SOL    HW249646   6.236   6.769   8.489  3.4622  1.1625  2.8653
16069SOL     OW49647   5.585   0.396   8.040  0.1053  0.3414 -0.0606
16069SOL    HW149648   5.661   0.380   7.984  0.1364 -2.7137  0.6451
16069SOL    HW249649   5.516   0.424   7.980  0.8582 -0.2923 -1.2618
16070SOL     OW49650   3.295   6.823   0.106 -0.0502 -0.1374  0.5480
16070SOL    HW149651   3.372   6.881   0.111 -0.2004  0.0215  1.1638
16070SOL    HW249652   3.311   6.768   0.030 -0.6178  1.7277 -1.0107
16071SOL     OW49653   0.617   5.993   8.179  0.1418 -0.4012  0.1104
16071SOL    HW149654   0.655   5.924   8.233 -0.5072  0.4099  1.6800
16071SOL    HW249655   0.548   5.950   8.129 -1.4748 -0.6373  2.3806
16072SOL     OW49656   5.117   4.948   8.971  0.1448  0.3314  0.0467
16072SOL    HW149657   5.127   4.980   9.060 -2.9085 -0.7677  0.9211
16072SOL    HW249658   5.022   4.948   8.956  0.4510 -1.1679 -2.5619
16073SOL     OW49659   5.654   4.068   0.248 -0.6071 -0.1485  0.0626
16073SOL    HW149660   5.623   3.995   0.301  0.6558 -0.6597  0.1459
16073SOL    HW249661   5.587   4.079   0.180 -0.8904 -1.3022  0.1362
16074SOL     OW49662   2.201   5.096   3.167  0.2993  0.4490  0.2331
16074SOL    HW149663   2.238   5.181   3.191  0.0208  0.6093  0.1021
16074SOL    HW249664   2.151   5.114   3.087  1.6938 -0.1960 -0.8140
16075SOL     OW49665   1.412   1.230   7.890  0.0453  0.1016  0.7015
16075SOL    HW149666   1.318   1.236   7.872  0.2918 -1.9319 -1.9514
16075SOL    HW249667   1.454   1.262   7.811  1.6198  0.8703  1.8016
16076SOL     OW49668   3.389   6.776   2.373  0.6035  0.3274 -0.1550
16076SOL    HW149669   3.459   6.795   2.311  0.1194  1.4618 -0.3764
16076SOL    HW249670   3.308   6.792   2.325  0.1949 -0.3155  0.2967
16077SOL     OW49671   3.319   7.686   8.721 -0.2310 -0.3369 -0.4141
16077SOL    HW149672   3.308   7.603   8.676 -0.3498 -0.8892  0.6014
16077SOL    HW249673   3.374   7.666   8.797  1.0467  0.8193 -0.9908
16078SOL     OW49674   5.137   6.182   3.829 -0.2582  0.3962 -0.4177
16078SOL    HW149675   5.123   6.211   3.919 -0.2293 -1.7887  0.3468
16078SOL    HW249676   5.189   6.103   3.837  0.0662  0.3593 -2.4023
16079SOL     OW49677   1.505   0.672   2.908 -0.2585  0.7917 -0.1496
16079SOL    HW149678   1.484   0.676   2.814  0.8879  0.7946 -0.4241
16079SOL    HW249679   1.588   0.624   2.912  0.0943  1.4417  0.7939
16080SOL     OW49680   6.359   1.964   2.588  0.5142  0.1238 -0.0906
16080SOL    HW149681   6.399   2.009   2.514 -1.4952  0.4551 -1.0580
16080SOL    HW249682   6.357   2.031   2.658  3.1699 -0.4404  0.6421
16081SOL     OW49683   6.357   7.424   5.409 -0.0000  0.2439  0.1664
16081SOL    HW149684   6.349   7.472   5.492  0.6386  1.1885 -0.2998
16081SOL    HW249685   6.268   7.398   5.387 -0.5404  2.2030 -0.1215
16082SOL     OW49686   7.668   6.068  12.318 -0.0363 -0.1792  0.1172
16082SOL    HW149687   7.601   6.000  12.327 -0.2069  0.1068  1.1727
16082SOL    HW249688   7.630   6.130  12.256  0.6017 -1.5740 -1.7670
16083SOL     OW49689   4.302   3.799   0.673  0.2050  0.8516  0.7627
16083SOL    HW149690   4.235   3.863   0.698 -0.1273  0.3136  1.2808
16083SOL    HW249691   4.262   3.714   0.693  0.9043  0.5151  0.7401
16084SOL     OW49692   1.127   3.770   0.385  0.3124 -0.1096 -0.2296
16084SOL    HW149693   1.063   3.796   0.318 -0.1164 -1.7677 -0.5150
16084SOL    HW249694   1.102   3.680   0.408  2.0893 -0.5266  0.2090
16085SOL     OW49695   1.266   4.213   2.270  0.3996 -0.1295 -0.5683
16085SOL    HW149696   1.294   4.137   2.321  0.7581  0.2903 -0.1402
16085SOL    HW249697   1.311   4.287   2.309  1.3610  0.0977 -2.0245
16086SOL     OW49698   5.711   6.929   6.338  0.0419  0.8164  0.0828
16086SOL    HW149699   5.676   6.853   6.385 -1.1469  0.1478 -1.7743
16086SOL    HW249700   5.641   6.954   6.277  1.9567  0.8009 -2.2594
16087SOL     OW49701   0.377   0.812   7.680 -0.0837  0.3770 -0.0107
16087SOL    HW149702   0.437   0.741   7.655  2.0277  2.3609 -0.9555
16087SOL    HW249703   0.419   0.854   7.755 -0.2120  1.8637 -0.7333
16088SOL     OW49704   7.369   2.282   6.788  0.0510  0.3403 -0.1825
16088SOL    HW149705   7.422   2.278   6.868 -0.2697  0.8696  0.0699
16088SOL    HW249706   7.357   2.191   6.761  0.1689  0.1602  0.3701
16089SOL     OW49707   3.457   1.505   6.919  0.8048 -0.3092 -0.1846
16089SOL    HW149708   3.504   1.572   6.869 -0.2736  1.0841  0.5962
16089SOL    HW249709   3.476   1.423   6.873  0.3987  0.8002 -2.5096
16090SOL     OW49710   4.551   0.324   6.872 -0.5650 -0.0754  0.8887
16090SOL    HW149711   4.456   0.315   6.879 -0.4581 -0.2509  2.5756
16090SOL    HW249712   4.584   0.235   6.882 -0.1807  0.1742  2.0343
16091SOL     OW49713   1.388   5.049   2.143 -0.0485 -0.2061 -0.4633
16091SOL    HW149714   1.328   5.038   2.217  1.9462 -0.5667  1.1776
16091SOL    HW249715   1.434   5.131   2.161 -0.5936  0.5222 -2.1594
16092SOL     OW49716   4.878   1.773   7.474 -0.0761  0.0966  0.0906
16092SOL    HW149717   4.905   1.764   7.382  1.5093  2.9801  0.1753
16092SOL    HW249718   4.952   1.740   7.524  0.7005  1.9857  0.2796
16093SOL     OW49719   0.482   2.334   2.905 -0.0169  0.1124  0.1195
16093SOL    HW149720   0.471   2.372   2.992  1.6460  2.4950 -0.5940
16093SOL    HW249721   0.397   2.294   2.885 -0.4175 -0.5459  2.7967
16094SOL     OW49722   4.946   0.890   2.373 -0.2876 -0.0390  0.2900
16094SOL    HW149723   4.931   0.801   2.340  0.0830 -0.0903  0.2549
16094SOL    HW249724   4.918   0.886   2.464 -0.3782 -0.1636  0.2578
16095SOL     OW49725   6.360   2.984   6.640  0.2878 -0.3925  0.1921
16095SOL    HW149726   6.359   2.976   6.544  0.6828  1.3316  0.0005
16095SOL    HW249727   6.330   3.074   6.656 -1.1563 -1.1191  1.7807
16096SOL     OW49728   7.447   5.062   1.369  0.3861 -0.0228  0.3755
16096SOL    HW149729   7.539   5.038   1.361  0.7343  1.3206 -0.0403
16096SOL    HW249730   7.447   5.138   1.428 -0.4065  0.2154  0.0898
16097SOL     OW49731   1.497   1.635  10.111 -0.3932 -0.0166  0.0923
16097SOL    HW149732   1.532   1.554  10.073  0.0198  0.9023 -1.5615
16097SOL    HW249733   1.476   1.690  10.036 -0.0915  1.6640  1.1868
16098SOL     OW49734   1.117   7.674  10.291  0.2418 -0.0169 -0.9714
16098SOL    HW149735   1.090   7.598  10.239 -1.6679  0.5657 -0.8863
16098SOL    HW249736   1.126   7.640  10.380 -0.5713 -0.1537 -0.9398
16099SOL     OW49737   5.226   4.183   7.316 -0.1973  0.4001  0.0896
16099SOL    HW149738   5.149   4.164   7.262 -0.7869 -0.4790  1.1825
16099SOL    HW249739   5.226   4.113   7.382  2.0873 -0.2009 -0.4497
16100SOL     OW49740   4.908   2.675   7.759  0.5055  0.3316 -0.1426
16100SOL    HW149741   4.984   2.676   7.817  0.5134  0.1408 -0.1491
16100SOL    HW249742   4.944   2.691   7.672  0.3819  1.6939  0.0234
16101SOL     OW49743   7.678   6.036  11.464 -0.5870 -0.7828  0.3905
16101SOL    HW149744   7.758   6.089  11.465  0.9004 -2.5769 -3.4772
16101SOL    HW249745   7.615   6.088  11.414 -0.3963 -1.0841 -0.1690
16102SOL     OW49746   7.958   6.130  11.411  0.1183 -0.2006 -0.2179
16102SOL    HW149747   8.019   6.102  11.343 -0.2186  1.1182 -1.1014
16102SOL    HW249748   7.989   6.088  11.491  1.3847 -0.6150 -0.9074
16103SOL     OW49749   2.357   5.033  10.641 -0.2192 -0.0508  0.3701
16103SOL    HW149750   2.428   5.062  10.697  1.0729 -0.0170 -1.2056
16103SOL    HW249751   2.364   5.089  10.563 -0.5177 -1.5550 -0.7870
16104SOL     OW49752   0.962   4.397   9.149 -0.2256 -0.2264 -0.5079
16104SOL    HW149753   0.934   4.309   9.123 -0.7079 -0.5202  0.9202
16104SOL    HW249754   0.929   4.454   9.078  2.7507 -1.4469 -3.1029
16105SOL     OW49755   4.359   5.339  10.188  0.1666  0.0208 -0.1220
16105SOL    HW149756   4.417   5.356  10.115 -1.2797 -0.5188 -1.4642
16105SOL    HW249757   4.348   5.424  10.231  1.0431  0.3415 -0.5217
16106SOL     OW49758   2.142   4.759   9.369 -0.0495 -0.3262  0.1015
16106SOL    HW149759   2.056   4.747   9.410  0.1566 -0.4244  0.5088
16106SOL    HW249760   2.171   4.670   9.349  0.0426 -0.3061  0.1444
16107SOL     OW49761   2.982   5.425   9.532 -0.0486  0.3895 -0.4980
16107SOL    HW149762   2.979   5.334   9.561 -0.8279  0.2157 -1.0694
16107SOL    HW249763   3.053   5.465   9.582  1.9140 -1.1195 -1.9212
16108SOL     OW49764   0.883   3.275   6.389  0.1871 -0.0626  0.2013
16108SOL    HW149765   0.962   3.262   6.337  0.8070 -2.1571  1.5092
16108SOL    HW249766   0.837   3.191   6.383 -1.3737  0.7369  0.4094
16109SOL     OW49767   5.909   1.555   5.842 -0.0579 -0.1401  0.4639
16109SOL    HW149768   5.964   1.486   5.806 -1.4772 -0.8307 -0.4985
16109SOL    HW249769   5.836   1.508   5.882 -1.2756  0.7663 -0.5887
16110SOL     OW49770   5.012   3.819   2.632 -0.1462 -0.0738  0.2293
16110SOL    HW149771   4.956   3.861   2.566 -1.2533 -1.0077  0.5477
16110SOL    HW249772   4.977   3.849   2.716  0.1317 -0.3038  0.4312
16111SOL     OW49773   3.827   2.170   2.989  0.4162 -0.2400  0.4342
16111SOL    HW149774   3.799   2.211   3.070  0.7186 -0.3992  0.6189
16111SOL    HW249775   3.802   2.232   2.921  0.0797 -0.1495  0.6420
16112SOL     OW49776   2.902   6.065  10.676  0.3966  0.6029 -0.3865
16112SOL    HW149777   2.953   6.042  10.598  1.5671 -0.2098  0.5723
16112SOL    HW249778   2.888   5.981  10.721  2.1449  1.3254  1.6571
16113SOL     OW49779   6.432   6.895   3.191  0.3216  0.1648  0.1141
16113SOL    HW149780   6.380   6.850   3.125  1.4859  0.2940 -0.9359
16113SOL    HW249781   6.404   6.987   3.186  0.9135  0.3115 -0.7391
16114SOL     OW49782   6.706   4.009   9.509 -0.3067 -0.1060  0.0462
16114SOL    HW149783   6.673   4.085   9.461  0.3607  0.6054  0.6819
16114SOL    HW249784   6.724   4.043   9.597 -1.7733 -1.4372  0.9116
16115SOL     OW49785   2.152   4.337  10.714 -0.0231 -0.2640 -0.3003
16115SOL    HW149786   2.161   4.365  10.805  0.0638  0.9429 -0.6512
16115SOL    HW249787   2.058   4.334  10.698 -0.0599 -1.3449  0.0672
16116SOL     OW49788   3.115   0.575   0.248 -0.4530 -0.1089 -0.5264
16116SOL    HW149789   3.129   0.482   0.232 -1.2646 -0.1259 -1.2630
16116SOL    HW249790   3.189   0.618   0.205  0.8438 -0.4588  1.2307
16117SOL     OW49791   7.533   4.542   7.830  0.3066  0.4822 -0.0118
16117SOL    HW149792   7.467   4.532   7.762 -0.8388 -1.0913  1.2401
16117SOL    HW249793   7.483   4.560   7.910  1.5410  1.2059  0.6424
16118SOL     OW49794   2.997   0.013   3.810 -0.2562 -0.0258 -0.1456
16118SOL    HW149795   3.047   0.089   3.783 -0.9470  1.1661  1.7044
16118SOL    HW249796   3.063  -0.052   3.836  0.3668  1.0495  1.0554
16119SOL     OW49797   2.668   0.593  10.081  0.2347 -0.7243 -0.1627
16119SOL    HW149798   2.576   0.574  10.060 -1.3317  3.3227  1.8985
16119SOL    HW249799   2.701   0.638  10.003  0.0800 -1.1592 -0.4820
16120SOL     OW49800   1.541   0.090   4.056  0.0945 -0.0855  0.0672
16120SOL    HW149801   1.459   0.125   4.020  0.1598 -0.8972 -0.9211
16120SOL    HW249802   1.514   0.032   4.127 -0.0781  0.9482  0.8738
16121SOL     OW49803   4.959   1.727   4.916  0.2689 -0.4147  0.1470
16121SOL    HW149804   4.922   1.748   4.830 -0.9444 -1.8635  0.2791
16121SOL    HW249805   4.894   1.760   4.978  0.0276 -1.3911  0.4291
16122SOL     OW49806   3.744   1.747   7.765  0.2252 -0.2187 -0.5316
16122SOL    HW149807   3.775   1.689   7.834 -0.8098  0.5667  0.6207
16122SOL    HW249808   3.813   1.813   7.756 -0.7189  1.1272  1.5386
16123SOL     OW49809   6.014   0.560   4.484 -0.4431 -0.2332  0.5165
16123SOL    HW149810   6.051   0.556   4.573 -0.5512  1.5987  0.6914
16123SOL    HW249811   5.925   0.527   4.494  0.2059 -2.0574  0.6406
16124SOL     OW49812   4.088   0.359  11.199  0.3615 -0.5767  0.5445
16124SOL    HW149813   4.022   0.416  11.158  0.5282  0.5075  1.7286
16124SOL    HW249814   4.036   0.289  11.239  0.2381 -2.0354 -2.0142
16125SOL     OW49815   3.894   7.236   5.316  0.0483  0.1853  0.1002
16125SOL    HW149816   3.879   7.157   5.369 -0.6458 -0.4190 -0.9650
16125SOL    HW249817   3.822   7.295   5.341  0.0104  0.0976  0.1994
16126SOL     OW49818   0.738   6.088   9.395 -0.8452 -0.1747  0.2309
16126SOL    HW149819   0.820   6.123   9.429  0.0452  2.2874 -3.7488
16126SOL    HW249820   0.720   6.011   9.449  4.1733 -0.9886  1.2075
16127SOL     OW49821   2.559   7.223  11.736 -0.0991 -0.4514  0.1768
16127SOL    HW149822   2.483   7.281  11.729  0.6005  0.3087 -1.5411
16127SOL    HW249823   2.593   7.238  11.824 -1.0575  0.2844  0.4398
16128SOL     OW49824   1.966   4.741   6.531 -0.1182  0.1465  0.4911
16128SOL    HW149825   2.049   4.734   6.485  0.1500 -1.3695  1.1690
16128SOL    HW249826   1.900   4.734   6.462  0.2974 -0.6129  0.1578
16129SOL     OW49827   7.818   4.452   2.353 -0.9146 -0.1165 -0.0100
16129SOL    HW149828   7.810   4.495   2.438 -2.0227  0.4722 -0.3883
16129SOL    HW249829   7.760   4.502   2.296  0.2919 -0.1062 -1.2740
16130SOL     OW49830   3.284   1.795   2.816 -0.0108  0.6927  0.1544
16130SOL    HW149831   3.285   1.716   2.762 -0.6332  1.5087 -1.1122
16130SOL    HW249832   3.244   1.767   2.898  1.9252 -0.8249  0.6525
16131SOL     OW49833   5.801   6.355   7.890 -0.2641 -0.1723  0.0630
16131SOL    HW149834   5.716   6.339   7.850 -0.5197  1.3136 -0.0288
16131SOL    HW249835   5.861   6.300   7.840 -1.4458 -3.1459  1.6564
16132SOL     OW49836   0.788   3.252   9.936  0.4168 -0.2866 -0.4412
16132SOL    HW149837   0.800   3.328   9.993  0.0187  1.2444 -2.2992
16132SOL    HW249838   0.877   3.222   9.917  0.5485 -1.4079  1.6360
16133SOL     OW49839   5.457   3.321   5.667  0.2051  0.1032  0.2848
16133SOL    HW149840   5.455   3.354   5.577 -0.0631 -2.2591 -0.6289
16133SOL    HW249841   5.372   3.346   5.703 -0.8414 -1.3041 -1.0686
16134SOL     OW49842   2.603   7.601   4.422 -0.0245 -0.2634 -0.0047
16134SOL    HW149843   2.653   7.574   4.499 -1.5504 -0.8323  0.8212
16134SOL    HW249844   2.580   7.693   4.439  1.0168  0.1220 -0.5656
16135SOL     OW49845   0.768   2.969   8.664  0.4285 -0.0010 -0.0291
16135SOL    HW149846   0.694   2.917   8.634  0.8374  0.3589 -1.7773
16135SOL    HW249847   0.842   2.938   8.612  0.9043  1.5366 -0.3340
16136SOL     OW49848   5.555   6.031   3.910  0.0361 -0.7168 -0.0965
16136SOL    HW149849   5.551   6.118   3.950 -1.3353 -0.7669 -0.0696
16136SOL    HW249850   5.472   6.024   3.862  1.7697 -0.4615 -3.4005
16137SOL     OW49851   2.071   4.723  10.525  0.6140 -0.3017 -0.5079
16137SOL    HW149852   2.049   4.814  10.505  0.2660 -0.6082 -1.5704
16137SOL    HW249853   2.047   4.674  10.446 -1.3096 -1.6412  0.8151
16138SOL     OW49854   6.292   1.981   7.161 -0.0399 -0.6047 -0.0499
16138SOL    HW149855   6.198   1.967   7.176 -0.2072 -0.2396 -0.7346
16138SOL    HW249856   6.303   1.970   7.067  0.4785  0.0873 -0.0760
16139SOL     OW49857   4.394   2.488  11.689 -0.2818  0.0198  0.1004
16139SOL    HW149858   4.465   2.463  11.631 -1.4078 -0.4784 -1.1322
16139SOL    HW249859   4.435   2.501  11.774  1.1084 -1.3863 -0.3103
16140SOL     OW49860   6.215   3.713   1.683  0.7532  0.3564  0.2254
16140SOL    HW149861   6.249   3.801   1.698  2.5475 -0.4470  1.3066
16140SOL    HW249862   6.184   3.714   1.592  3.2419  1.3800 -0.7061
16141SOL     OW49863   4.758   2.830   0.842  0.1648  0.3913  0.0918
16141SOL    HW149864   4.833   2.837   0.900 -0.3159  0.2250  0.7358
16141SOL    HW249865   4.684   2.807   0.899 -0.4212  0.7501 -0.4986
16142SOL     OW49866   7.035   1.640   5.445  0.5038 -0.4856  0.5529
16142SOL    HW149867   7.090   1.578   5.492  0.0633 -0.9321  0.4829
16142SOL    HW249868   7.057   1.628   5.353  1.4080  0.4293  0.6364
16143SOL     OW49869   5.353   6.745   1.408  0.6610  0.6892 -0.1984
16143SOL    HW149870   5.329   6.668   1.461  0.1291  0.0481 -1.3426
16143SOL    HW249871   5.360   6.816   1.472  0.9803 -0.2670  0.8578
16144SOL     OW49872   4.976   5.392   4.045  0.4850 -0.3209 -0.5500
16144SOL    HW149873   4.980   5.333   4.120 -0.1958  0.7179  0.3386
16144SOL    HW249874   4.988   5.336   3.968  0.8412 -1.4499  0.3224
16145SOL     OW49875   7.729   5.165   5.628  0.3623 -0.0528 -0.3455
16145SOL    HW149876   7.657   5.217   5.592 -0.0414 -0.6658 -0.4353
16145SOL    HW249877   7.749   5.207   5.712 -0.6939 -0.3973  0.0971
16146SOL     OW49878   7.603   6.611   6.056  0.7504 -1.2880  0.3571
16146SOL    HW149879   7.600   6.701   6.023  0.9257 -1.6954 -0.8185
16146SOL    HW249880   7.601   6.557   5.977  0.6498 -2.3188  1.0524
16147SOL     OW49881   2.682   7.947   7.945 -0.1824 -0.1336  0.1442
16147SOL    HW149882   2.615   7.946   7.876 -0.3624  0.1819  0.3171
16147SOL    HW249883   2.757   7.902   7.905 -0.6561 -0.9166  0.1146
16148SOL     OW49884   3.287   3.283   4.572  0.0972  0.4288  0.3768
16148SOL    HW149885   3.226   3.327   4.632  0.7972  0.1692  1.2967
16148SOL    HW249886   3.325   3.213   4.624  0.1275 -0.3143 -0.6260
16149SOL     OW49887   0.152   4.841   2.306  0.3761 -0.1700 -0.1628
16149SOL    HW149888   0.110   4.861   2.222 -0.5889 -0.2441  0.2856
16149SOL    HW249889   0.245   4.839   2.286  0.2383  0.8682 -1.0196
16150SOL     OW49890   0.120   6.918   7.928 -0.1447  0.0099  0.7903
16150SOL    HW149891   0.197   6.864   7.944  1.4058  1.3070 -1.6463
16150SOL    HW249892   0.049   6.873   7.975  2.0941 -1.0502  3.4206
16151SOL     OW49893   2.891   7.520   5.122  0.0993  0.6544 -0.2653
16151SOL    HW149894   2.973   7.568   5.123  0.7223 -0.3822  0.2566
16151SOL    HW249895   2.830   7.576   5.074  1.0878  1.4639 -0.5926
16152SOL     OW49896   4.699   3.784  12.311 -0.0917 -0.0045  0.4847
16152SOL    HW149897   4.702   3.706  12.255  0.4076  0.3603 -0.0060
16152SOL    HW249898   4.623   3.769  12.368 -0.6722 -0.3451 -0.3558
16153SOL     OW49899   1.365   0.260   5.265  0.5435 -0.1006 -0.6850
16153SOL    HW149900   1.341   0.175   5.302  0.9860 -0.0067 -0.1761
16153SOL    HW249901   1.291   0.283   5.208  0.4689 -0.8773 -0.9173
16154SOL     OW49902   2.857   2.093   3.454 -0.2575 -0.4558 -0.1348
16154SOL    HW149903   2.802   2.068   3.380 -0.0005  0.4410 -0.6428
16154SOL    HW249904   2.864   2.188   3.447 -0.1085 -0.3750  0.9626
16155SOL     OW49905   7.209   2.724   8.143 -0.4394  0.2204  0.3339
16155SOL    HW149906   7.170   2.737   8.057 -1.8985 -0.6359  0.8154
16155SOL    HW249907   7.145   2.669   8.189  0.5407  0.2578  1.7876
16156SOL     OW49908   2.977   7.418   7.400 -0.3021 -0.2472  0.1592
16156SOL    HW149909   2.994   7.360   7.474 -1.8135 -0.5758  0.2765
16156SOL    HW249910   2.893   7.458   7.420  0.6673  1.9894  0.0571
16157SOL     OW49911   6.789   5.791   3.341  0.4081 -0.0903  0.2878
16157SOL    HW149912   6.875   5.831   3.324  0.2035  0.0037 -0.5827
16157SOL    HW249913   6.727   5.848   3.295  0.1056 -1.3836 -1.0082
16158SOL     OW49914   5.216   7.600   2.604 -0.5061 -0.6413 -0.3011
16158SOL    HW149915   5.308   7.613   2.627 -0.2173 -1.6923 -0.7749
16158SOL    HW249916   5.187   7.684   2.570  0.0940 -0.1185  0.4506
16159SOL     OW49917   1.918   5.857   2.926  0.3551  0.0395 -0.3157
16159SOL    HW149918   1.978   5.798   2.880  0.9523  0.2504  0.1702
16159SOL    HW249919   1.901   5.813   3.010 -0.6291 -0.2867 -0.6795
16160SOL     OW49920   3.048   7.184   0.979 -0.1031  0.4647 -0.2737
16160SOL    HW149921   3.003   7.220   1.055 -0.5491  1.4398 -0.9728
16160SOL    HW249922   3.098   7.258   0.943 -1.8281  0.7258 -2.3263
16161SOL     OW49923   7.510   6.624   3.672 -0.0702 -0.0660 -0.0403
16161SOL    HW149924   7.563   6.668   3.605 -0.6261  0.0397 -0.4201
16161SOL    HW249925   7.565   6.625   3.750 -0.2016  1.6463  0.0788
16162SOL     OW49926   2.527   5.693   5.818 -0.6322 -0.3334 -0.0908
16162SOL    HW149927   2.456   5.631   5.801 -0.1339 -0.8999 -0.1110
16162SOL    HW249928   2.541   5.689   5.913  0.4451 -1.4258 -0.2670
16163SOL     OW49929   1.528   6.509   2.093  0.0591  0.4270 -0.5729
16163SOL    HW149930   1.500   6.418   2.104 -1.3885  1.0889  2.2125
16163SOL    HW249931   1.464   6.547   2.032 -1.1621  0.2536  0.5530
16164SOL     OW49932   3.855   4.333  10.784 -0.2213  0.0055 -0.0663
16164SOL    HW149933   3.837   4.306  10.874 -1.4347 -0.0295 -0.3081
16164SOL    HW249934   3.825   4.260  10.730 -0.0037  0.2515 -0.5237
16165SOL     OW49935   5.196   7.863   2.544 -0.2009  0.3746 -0.4887
16165SOL    HW149936   5.146   7.945   2.537  0.2163  0.7917  0.9653
16165SOL    HW249937   5.233   7.850   2.457  0.5238  2.2843 -0.5307
16166SOL     OW49938   1.364   2.344   3.159  0.2103 -0.1730 -0.3392
16166SOL    HW149939   1.317   2.427   3.156  1.6614  0.7342  0.4762
16166SOL    HW249940   1.392   2.336   3.250 -0.4350 -1.9010 -0.2511
16167SOL     OW49941   0.990   2.303   5.418 -0.4038 -0.5823 -0.0185
16167SOL    HW149942   1.018   2.214   5.398 -0.4087 -0.5349 -0.2476
16167SOL    HW249943   1.070   2.355   5.412 -0.1990 -0.7380  1.2039
16168SOL     OW49944   7.146   3.578   3.383  0.0402  0.0601 -0.7243
16168SOL    HW149945   7.197   3.635   3.326  0.5117  0.1479 -0.2257
16168SOL    HW249946   7.198   3.499   3.391  1.1767  0.9597  1.5044
16169SOL     OW49947   1.860   6.405   5.987  0.0024 -0.0945 -0.1204
16169SOL    HW149948   1.941   6.355   5.984  0.4379  0.5986 -0.0573
16169SOL    HW249949   1.845   6.432   5.896  1.2221  1.9324  0.2281
16170SOL     OW49950   6.673   3.887   8.690 -0.7445 -0.2670  0.0580
16170SOL    HW149951   6.609   3.939   8.643 -1.8693 -0.7454  1.0179
16170SOL    HW249952   6.752   3.942   8.692 -0.9813  0.1627 -1.4648
16171SOL     OW49953   4.380   5.664   1.485 -0.1375  0.3464  0.3818
16171SOL    HW149954   4.445   5.621   1.429  0.8206  0.2568  1.5143
16171SOL    HW249955   4.400   5.758   1.478 -1.1091  0.4898 -0.7260
16172SOL     OW49956   6.384   3.065   4.965  0.2636  0.0982 -0.0685
16172SOL    HW149957   6.314   3.088   5.026  0.7021  0.2630  0.3804
16172SOL    HW249958   6.423   3.149   4.940 -0.4094  0.0968 -1.1920
16173SOL     OW49959   5.577   6.992   3.982  0.0209  0.1285  0.4658
16173SOL    HW149960   5.487   6.968   3.962 -0.2774  1.8781 -0.4859
16173SOL    HW249961   5.623   6.988   3.898  0.0897  2.0701  0.3540
16174SOL     OW49962   7.255   4.191  10.525  0.2375 -0.4828  0.5521
16174SOL    HW149963   7.237   4.136  10.448  3.2660  0.8944 -1.3798
16174SOL    HW249964   7.195   4.264  10.517 -0.2229 -0.9029  0.1056
16175SOL     OW49965   0.896   7.877   7.841 -0.0606  0.7502 -0.4404
16175SOL    HW149966   0.817   7.906   7.886  0.1869  0.2100  0.3501
16175SOL    HW249967   0.872   7.881   7.748 -1.1800  0.1594 -0.2000
16176SOL     OW49968   0.105   4.625   9.054  0.0705 -0.1289 -0.1032
16176SOL    HW149969   0.090   4.531   9.052  0.6233 -0.4030  3.2248
16176SOL    HW249970   0.018   4.663   9.062  0.0027 -0.6431  2.1001
16177SOL     OW49971   0.363   3.981  10.878  0.2818  0.0717  0.4174
16177SOL    HW149972   0.421   4.047  10.916  2.2218 -0.6410 -1.1063
16177SOL    HW249973   0.423   3.915  10.843 -1.4979 -0.9107 -0.9029
16178SOL     OW49974   4.808   6.906   1.066  0.1926  0.1741 -0.2921
16178SOL    HW149975   4.799   6.874   1.156  1.2189 -0.4737 -0.4066
16178SOL    HW249976   4.718   6.911   1.034 -0.0942 -1.5019  0.1359
16179SOL     OW49977   1.158   1.290  11.262  0.2395 -0.1740  0.3640
16179SOL    HW149978   1.112   1.216  11.303  0.5240 -0.2701  0.5086
16179SOL    HW249979   1.184   1.346  11.334 -0.1061  0.1456  0.2411
16180SOL     OW49980   4.745   6.137   5.317 -0.0045  0.2288 -0.1027
16180SOL    HW149981   4.831   6.098   5.335  0.0914  0.8137  0.7776
16180SOL    HW249982   4.735   6.130   5.222  0.5086 -0.8859 -0.0921
16181SOL     OW49983   5.835   2.881   3.918 -0.3377 -0.1034 -0.4016
16181SOL    HW149984   5.821   2.825   3.994 -0.4416  0.5833  0.0967
16181SOL    HW249985   5.891   2.952   3.951  0.2565 -0.2105 -1.1570
16182SOL     OW49986   1.037   4.353   2.325 -0.1102 -0.2143 -0.4360
16182SOL    HW149987   1.094   4.276   2.318  1.1116  0.5667  0.5184
16182SOL    HW249988   0.971   4.340   2.257 -0.0334 -2.1810 -0.1797
16183SOL     OW49989   1.631   4.904  10.643 -0.1587  0.1753  0.0771
16183SOL    HW149990   1.706   4.964  10.636 -0.2587  0.1608 -1.6211
16183SOL    HW249991   1.561   4.950  10.597 -0.9953 -0.1402  1.0177
16184SOL     OW49992   2.684   0.710   9.822  0.3256  0.2601  0.8755
16184SOL    HW149993   2.736   0.787   9.799  1.3963 -0.2542  1.4550
16184SOL    HW249994   2.596   0.743   9.836  0.7238  1.3443  0.9118
16185SOL     OW49995   6.471   7.270   2.167  0.4811  0.2013  0.1170
16185SOL    HW149996   6.541   7.209   2.145 -0.9279 -1.4678  0.0951
16185SOL    HW249997   6.497   7.307   2.251  1.7891  0.2533 -0.2891
16186SOL     OW49998   6.496   6.227   4.592 -0.1666  0.2559 -0.1564
16186SOL    HW149999   6.570   6.248   4.535  0.2160 -0.2544  0.1319
16186SOL    HW250000   6.465   6.311   4.625  1.2508  0.4084  0.8978
16187SOL     OW50001   4.064   5.910   9.282 -0.6816 -0.3528 -0.2763
16187SOL    HW150002   4.044   5.861   9.202 -1.1315 -0.4578 -0.1027
16187SOL    HW250003   4.065   5.844   9.351 -0.7565 -0.1933 -0.1222
16188SOL     OW50004   7.836   2.777  10.492  0.2204  0.2544  0.3151
16188SOL    HW150005   7.767   2.717  10.520  0.3103  0.7188  1.6266
16188SOL    HW250006   7.835   2.773  10.397 -0.5482 -0.9419  0.3539
16189SOL     OW50007   1.069   2.324   4.028  0.4578 -0.0557 -0.4683
16189SOL    HW150008   1.080   2.418   4.038  0.8394 -0.2569  1.3964
16189SOL    HW250009   1.133   2.286   4.088 -0.6334 -1.4704 -0.1362
16190SOL     OW50010   7.866   1.472   6.388  0.2750  0.1617 -0.1521
16190SOL    HW150011   7.890   1.504   6.475 -0.4527  0.9013 -0.2129
16190SOL    HW250012   7.842   1.381   6.402 -1.3289  0.6845  0.7033
16191SOL     OW50013   7.793   4.434   8.768 -0.0431  0.1254 -0.3393
16191SOL    HW150014   7.728   4.379   8.723  1.1392 -0.9800 -0.7551
16191SOL    HW250015   7.769   4.428   8.861  0.6066 -1.9289 -0.2460
16192SOL     OW50016   1.215   3.893   0.639 -0.2030 -0.0794  0.2007
16192SOL    HW150017   1.278   3.958   0.608 -1.1385  0.9860  0.4330
16192SOL    HW250018   1.151   3.885   0.568 -1.1655  0.7509  0.9401
16193SOL     OW50019   4.229   5.750  10.502  0.0751 -0.2776  0.3310
16193SOL    HW150020   4.206   5.742  10.409 -0.9108 -1.0177  0.6253
16193SOL    HW250021   4.253   5.842  10.513  0.6841 -0.2884 -0.7579
16194SOL     OW50022   0.775   7.463   4.122 -0.5127  0.5610  0.3604
16194SOL    HW150023   0.863   7.467   4.157  0.3171 -1.0769 -1.3211
16194SOL    HW250024   0.724   7.418   4.189  0.1186  0.8378  1.0295
16195SOL     OW50025   6.652   6.993   8.834 -0.0391  0.2980 -0.6195
16195SOL    HW150026   6.603   7.051   8.776 -0.9885  0.0260 -0.1048
16195SOL    HW250027   6.640   7.031   8.921  0.0246 -0.2013 -0.3917
16196SOL     OW50028   4.715   2.085   2.838  0.3522 -0.1647  0.3050
16196SOL    HW150029   4.803   2.057   2.864  0.4055 -0.5205 -0.2450
16196SOL    HW250030   4.713   2.074   2.743 -1.5526 -3.9829  0.6013
16197SOL     OW50031   3.617   2.825  11.858 -0.7523 -0.2661  0.0365
16197SOL    HW150032   3.632   2.741  11.816 -1.1646 -0.3675  0.0857
16197SOL    HW250033   3.704   2.864  11.867 -0.6883 -0.1074 -1.1718
16198SOL     OW50034   4.133   4.288  10.962 -0.1264  0.1957  0.0680
16198SOL    HW150035   4.124   4.382  10.948 -0.6060 -0.0531 -1.5115
16198SOL    HW250036   4.044   4.259  10.984 -0.1471  0.0168 -0.2325
16199SOL     OW50037   1.509   0.099   9.483  0.1728 -0.2994  0.8474
16199SOL    HW150038   1.491   0.183   9.441 -1.7495 -0.4467  1.2796
16199SOL    HW250039   1.565   0.052   9.420  1.6844  1.4435  0.8213
16200SOL     OW50040   4.219   1.043   1.887  0.5834  0.0799 -0.4162
16200SOL    HW150041   4.198   0.951   1.899  0.8301 -0.0168 -0.6955
16200SOL    HW250042   4.216   1.081   1.975 -3.0112  0.6087 -0.6276
16201SOL     OW50043   5.333   1.042   4.828 -0.1864  0.0293 -0.2391
16201SOL    HW150044   5.308   0.954   4.800  0.5006  0.4462 -2.3227
16201SOL    HW250045   5.251   1.091   4.831 -0.4344 -0.3846 -0.1462
16202SOL     OW50046   4.488   6.067   9.198  0.0638  0.2354  0.5945
16202SOL    HW150047   4.549   6.025   9.136  0.3147  1.0161  0.2912
16202SOL    HW250048   4.473   6.001   9.265 -2.4329 -1.7272 -1.6858
16203SOL     OW50049   2.921   7.125   2.988  0.1204 -0.0690  0.3266
16203SOL    HW150050   2.999   7.160   3.031  0.6003 -0.6845 -0.0344
16203SOL    HW250051   2.848   7.173   3.028  0.7102  0.8440  0.3446
16204SOL     OW50052   0.230   0.227   1.538 -0.0404 -0.0979 -0.0995
16204SOL    HW150053   0.188   0.286   1.601  1.8687 -0.1316  1.3028
16204SOL    HW250054   0.259   0.285   1.467 -1.7576  0.0151 -0.7491
16205SOL     OW50055   1.896   0.697   4.248  0.4352 -1.0096  0.0657
16205SOL    HW150056   1.918   0.713   4.156 -0.7524  0.0086 -0.0636
16205SOL    HW250057   1.802   0.679   4.248 -0.1640  1.6617  1.3539
16206SOL     OW50058   2.677   4.165   3.644  0.3504 -0.4048 -0.0330
16206SOL    HW150059   2.732   4.168   3.722  0.6750 -0.4666 -0.2561
16206SOL    HW250060   2.690   4.076   3.609  1.4843  0.1217 -1.0556
16207SOL     OW50061   2.537   0.472  10.671 -0.0132 -0.2344  0.2035
16207SOL    HW150062   2.519   0.561  10.640 -1.3296 -0.6297 -0.2691
16207SOL    HW250063   2.522   0.417  10.594  1.8544 -0.7935  0.1901
16208SOL     OW50064   3.229   1.096   3.455 -0.6269  0.0597 -0.1796
16208SOL    HW150065   3.194   1.022   3.404  1.3535 -0.4626 -0.8629
16208SOL    HW250066   3.242   1.165   3.390  0.1566  0.0230 -0.0747
16209SOL     OW50067   1.877   7.561   6.414 -0.5248  0.0157 -0.2959
16209SOL    HW150068   1.890   7.617   6.338 -0.4913  0.0781 -0.2444
16209SOL    HW250069   1.959   7.512   6.422  0.9055  2.4615  1.7389
16210SOL     OW50070   3.550   5.364  11.278  0.3271  0.0512  0.4159
16210SOL    HW150071   3.565   5.446  11.325 -2.0055  0.4927  0.5282
16210SOL    HW250072   3.581   5.382  11.189  3.0874 -0.1896  1.2237
16211SOL     OW50073   3.305   6.968  12.094  0.3497  0.1353 -0.0777
16211SOL    HW150074   3.376   6.984  12.032 -0.3472 -1.7567 -1.4568
16211SOL    HW250075   3.226   6.970  12.041 -0.2306 -1.9590  0.6214
16212SOL     OW50076   0.596   0.555   7.197 -0.1578  0.0636 -0.3933
16212SOL    HW150077   0.678   0.563   7.246  0.2209 -1.1842 -0.7753
16212SOL    HW250078   0.618   0.583   7.109 -0.6658  1.6484 -0.0344
16213SOL     OW50079   5.879   1.746  11.582 -0.2866  0.2162  0.2040
16213SOL    HW150080   5.812   1.689  11.621 -0.3757  0.8472  0.9983
16213SOL    HW250081   5.846   1.764  11.494 -1.3447  0.7852  0.6925
16214SOL     OW50082   4.263   0.130  10.690 -0.0315 -0.2729  0.2751
16214SOL    HW150083   4.280   0.089  10.605  0.8879 -0.5090  0.5648
16214SOL    HW250084   4.258   0.057  10.751 -0.6602 -0.1002  0.4414
16215SOL     OW50085   2.736   4.709   6.746 -0.0234 -0.6096  0.3653
16215SOL    HW150086   2.788   4.732   6.669  2.5336  0.8212  2.3638
16215SOL    HW250087   2.723   4.615   6.740  0.0754 -0.5246 -1.7860
16216SOL     OW50088   6.062   2.466   1.872 -0.0157  0.6958  0.2043
16216SOL    HW150089   6.122   2.451   1.945 -1.6017  0.1088  1.4266
16216SOL    HW250090   6.112   2.439   1.795  0.6854 -1.5108  1.3545
16217SOL     OW50091   3.195   6.250   9.650 -0.3605  0.2459 -0.0665
16217SOL    HW150092   3.206   6.182   9.584  1.4068  0.3917  0.0250
16217SOL    HW250093   3.169   6.328   9.601  1.0414  0.3801 -0.6483
16218SOL     OW50094   5.076   7.548  10.596 -0.0224  0.2740  0.2549
16218SOL    HW150095   5.140   7.480  10.620  0.9927  1.5987  1.4916
16218SOL    HW250096   5.058   7.594  10.678 -0.9692  1.2617 -0.4812
16219SOL     OW50097   2.699   4.756   5.811  0.1525  0.5753 -0.2674
16219SOL    HW150098   2.734   4.675   5.848 -1.4877  0.1186  0.3929
16219SOL    HW250099   2.755   4.825   5.846  0.9400 -0.1904  0.0058
16220SOL     OW50100   6.649   1.051   3.901  0.1693  0.1256 -0.0770
16220SOL    HW150101   6.563   1.056   3.860  0.2253  1.8878 -0.0624
16220SOL    HW250102   6.704   1.106   3.845  0.4767  1.8043  1.8000
16221SOL     OW50103   2.262   4.679   0.116  0.3883  0.1724  0.1931
16221SOL    HW150104   2.308   4.692   0.032  3.3305 -0.6040  1.5425
16221SOL    HW250105   2.206   4.756   0.125  1.1041  0.9894 -1.8127
16222SOL     OW50106   7.928   4.695   7.481  0.3606 -0.2620  0.2438
16222SOL    HW150107   7.865   4.764   7.460  0.5043 -0.7159 -1.8886
16222SOL    HW250108   7.887   4.646   7.553 -1.5050 -0.2391 -0.7571
16223SOL     OW50109   4.470   4.393  12.107 -0.0692  0.4059 -0.0411
16223SOL    HW150110   4.453   4.311  12.154 -0.4174 -0.8764 -2.2854
16223SOL    HW250111   4.555   4.423  12.141 -0.6261 -0.0531  1.8777
16224SOL     OW50112   7.379   4.714   8.582 -0.5897 -0.3134  0.2050
16224SOL    HW150113   7.414   4.779   8.521  0.2140 -1.7263 -0.9316
16224SOL    HW250114   7.457   4.672   8.619 -1.0694 -1.4058  0.0144
16225SOL     OW50115   5.300   7.304   4.394  0.2534 -0.7306 -0.4189
16225SOL    HW150116   5.316   7.240   4.324 -0.1793 -1.3570  0.0458
16225SOL    HW250117   5.380   7.358   4.395  0.6055 -1.2279 -0.8526
16226SOL     OW50118   0.257   6.717   6.713 -0.1069 -0.7731  0.4014
16226SOL    HW150119   0.343   6.719   6.757  0.8455 -0.4362 -1.3753
16226SOL    HW250120   0.201   6.669   6.774  1.3255 -0.9604  1.6558
16227SOL     OW50121   0.407   7.567   2.318 -0.5109 -1.0283 -0.0499
16227SOL    HW150122   0.336   7.505   2.334 -1.1810  0.0359  1.3532
16227SOL    HW250123   0.485   7.512   2.309 -1.0279 -2.0830  1.4576
16228SOL     OW50124   6.151   0.360   0.934  0.2201  0.0471 -0.2465
16228SOL    HW150125   6.196   0.336   0.853  1.0310 -0.9064  0.4722
16228SOL    HW250126   6.186   0.301   1.000  0.4250  1.5631  1.0577
16229SOL     OW50127   3.910   7.970   1.207  0.2024 -0.2614 -0.1393
16229SOL    HW150128   3.971   8.040   1.231  1.5834 -1.2303 -0.6868
16229SOL    HW250129   3.860   7.954   1.287  0.7025  0.5250  0.3486
16230SOL     OW50130   3.424   5.370   2.520 -0.2058  0.5359 -0.6659
16230SOL    HW150131   3.382   5.449   2.554 -0.4152  0.3839 -0.5695
16230SOL    HW250132   3.412   5.305   2.589 -0.4135  0.2949 -0.9268
16231SOL     OW50133   0.905   1.348  12.317  0.2017 -0.2537 -0.1532
16231SOL    HW150134   0.948   1.415  12.264  1.5773 -0.9369  0.0509
16231SOL    HW250135   0.975   1.309  12.369 -0.9344 -0.2979  1.4573
16232SOL     OW50136   4.780   3.837  10.474 -0.1899  0.4327 -0.5382
16232SOL    HW150137   4.754   3.873  10.389 -1.2003  0.5020 -0.2045
16232SOL    HW250138   4.706   3.783  10.502  1.2954 -2.0599 -1.0672
16233SOL     OW50139   6.666   3.816   9.095 -0.5706  0.3085  0.1928
16233SOL    HW150140   6.632   3.819   9.184 -1.7090 -0.3802 -0.1995
16233SOL    HW250141   6.606   3.872   9.045  0.6554  1.5377  0.0210
16234SOL     OW50142   5.441   5.306  12.348 -0.6409  0.3735 -0.5737
16234SOL    HW150143   5.529   5.324  12.316 -0.2918  0.3581  0.3444
16234SOL    HW250144   5.453   5.284  12.440 -1.4304 -1.3193 -0.8382
16235SOL     OW50145   1.712   5.000   2.331 -0.0462  0.2175 -0.1277
16235SOL    HW150146   1.703   4.940   2.257 -0.4220  0.1183  0.0002
16235SOL    HW250147   1.639   5.062   2.321 -1.4605 -1.1075  1.3957
16236SOL     OW50148   7.733   7.493  11.978  0.6273 -0.5498  0.5089
16236SOL    HW150149   7.653   7.502  12.029  1.9292  0.9776  2.4149
16236SOL    HW250150   7.734   7.400  11.952 -1.7054 -0.6145  0.4086
16237SOL     OW50151   3.530   3.401  11.323  0.2832 -0.3870 -0.0915
16237SOL    HW150152   3.560   3.403  11.233  0.9779  1.9914  0.1211
16237SOL    HW250153   3.604   3.364  11.372  0.5460 -0.1433 -0.3012
16238SOL     OW50154   6.924   0.636   9.459  0.0578  0.4144 -0.9889
16238SOL    HW150155   7.004   0.670   9.420  1.9097 -1.6019  0.7249
16238SOL    HW250156   6.918   0.679   9.544 -1.2063  1.1820 -1.4366
16239SOL     OW50157   4.019   7.517   3.619  0.3833  0.6733 -0.3344
16239SOL    HW150158   4.077   7.592   3.611 -0.2177  1.0226 -1.6107
16239SOL    HW250159   3.933   7.554   3.638  0.4215  0.2008  0.8248
16240SOL     OW50160   7.499   6.400   4.989  0.3928  0.1435  0.0858
16240SOL    HW150161   7.409   6.368   4.994  1.0258 -1.6167  0.9273
16240SOL    HW250162   7.490   6.493   4.965 -1.5982 -0.1508 -0.4726
16241SOL     OW50163   5.833   3.624  12.478  0.0880  0.7020  0.0001
16241SOL    HW150164   5.743   3.596  12.460  0.0536  1.5178 -1.2505
16241SOL    HW250165   5.887   3.550  12.450 -0.1811  0.3185  0.4902
16242SOL     OW50166   5.163   2.380   9.801 -0.1073 -0.4505  0.1117
16242SOL    HW150167   5.193   2.447   9.740  1.5505 -0.2487  1.0860
16242SOL    HW250168   5.236   2.370   9.863 -3.0250  2.2296  4.5095
16243SOL     OW50169   2.865   2.507   8.819  0.4023 -0.3104 -0.1185
16243SOL    HW150170   2.942   2.456   8.793 -0.8102 -2.6597  0.6814
16243SOL    HW250171   2.791   2.463   8.777 -0.6572  1.2617  0.0118
16244SOL     OW50172   5.740   0.882   8.280 -0.4701  0.0102 -0.0867
16244SOL    HW150173   5.660   0.857   8.325 -0.4050  1.9716  1.2561
16244SOL    HW250174   5.795   0.804   8.282 -1.4145 -0.6490  1.1403
16245SOL     OW50175   4.717   0.640   0.206  0.8768 -0.0013 -0.2412
16245SOL    HW150176   4.666   0.648   0.287  1.1708  0.3274 -0.0859
16245SOL    HW250177   4.783   0.709   0.212 -0.2989  1.3246 -1.6400
16246SOL     OW50178   5.065   3.573  11.038 -0.2991 -0.1528 -0.6178
16246SOL    HW150179   5.147   3.538  11.004 -0.9271  0.0497 -2.4721
16246SOL    HW250180   5.055   3.657  10.993 -1.9706 -0.6167 -1.1675
16247SOL     OW50181   7.977   4.748   2.515  0.4408 -0.6025 -0.6060
16247SOL    HW150182   8.043   4.694   2.558  0.4962  1.6265  2.3765
16247SOL    HW250183   8.020   4.778   2.434  1.8406 -1.7673 -0.3307
16248SOL     OW50184   3.636   1.067  11.282  0.6377 -0.3128 -0.3608
16248SOL    HW150185   3.658   0.999  11.219  0.9232  0.0069 -0.6124
16248SOL    HW250186   3.694   1.050  11.356 -0.4674 -1.3562  0.2928
16249SOL     OW50187   6.294   6.163   8.407 -0.4025 -0.3819  0.0929
16249SOL    HW150188   6.227   6.103   8.440 -1.1210 -0.0553 -0.7178
16249SOL    HW250189   6.245   6.238   8.374  0.4786  0.6807  1.0968
16250SOL     OW50190   6.517   2.278   0.040 -0.1824  0.1429  0.1076
16250SOL    HW150191   6.610   2.265   0.058 -0.1937 -0.5927 -0.3658
16250SOL    HW250192   6.506   2.251  -0.051 -0.9725 -0.3572  0.3468
16251SOL     OW50193   0.165   4.385   6.443  0.5072 -0.6305 -0.0155
16251SOL    HW150194   0.225   4.445   6.486 -0.5645  1.6264 -1.4494
16251SOL    HW250195   0.183   4.396   6.349 -0.2278 -2.0158 -0.3510
16252SOL     OW50196   7.707   7.018   6.981  0.0217 -0.3454 -0.0597
16252SOL    HW150197   7.614   7.026   6.958 -0.7644 -3.6354  1.2910
16252SOL    HW250198   7.715   7.061   7.066 -0.8946 -2.0106  0.9203
16253SOL     OW50199   0.169   0.618  10.709  0.0706 -0.1404 -0.1266
16253SOL    HW150200   0.116   0.591  10.633 -1.2889 -0.2302  0.8123
16253SOL    HW250201   0.182   0.712  10.696  0.1966 -0.2311 -0.6768
16254SOL     OW50202   5.282   0.974  11.995  0.0738  0.3633 -0.2897
16254SOL    HW150203   5.269   0.885  11.962  1.0178 -0.4342  1.3510
16254SOL    HW250204   5.342   1.015  11.932 -1.1612  0.2093 -1.6051
16255SOL     OW50205   4.575   7.641   0.968 -0.4263 -0.4444  0.7729
16255SOL    HW150206   4.527   7.685   0.897  0.1008  1.1498  1.3518
16255SOL    HW250207   4.618   7.567   0.925 -0.4716  0.2255 -0.4877
16256SOL     OW50208   3.221   4.796  10.659  0.0568  0.3069  0.5892
16256SOL    HW150209   3.217   4.735  10.585  0.0451 -0.2050  1.0056
16256SOL    HW250210   3.292   4.856  10.636  0.0644  0.1402  0.1689
16257SOL     OW50211   5.072   7.087   1.451  0.5232  0.1537 -0.1784
16257SOL    HW150212   5.026   7.169   1.437 -0.4399 -0.1714  0.9087
16257SOL    HW250213   5.142   7.087   1.385 -0.9105  0.7415 -1.7890
16258SOL     OW50214   2.749   1.655   3.985 -0.8956 -0.1385  0.8143
16258SOL    HW150215   2.817   1.722   3.991 -1.2823  0.4166 -0.6073
16258SOL    HW250216   2.725   1.638   4.076  0.5674  0.2333  1.3038
16259SOL     OW50217   6.728   5.440   7.227 -0.1968  0.6679 -0.1141
16259SOL    HW150218   6.794   5.372   7.239 -0.6025  0.4973  1.3661
16259SOL    HW250219   6.710   5.471   7.316 -1.3126  1.4712 -0.6017
16260SOL     OW50220   3.200   3.145   5.717 -0.4194 -0.5005 -0.0791
16260SOL    HW150221   3.240   3.165   5.633  0.1355  0.0889  0.3121
16260SOL    HW250222   3.137   3.216   5.731 -0.6680 -0.7150 -0.0877
16261SOL     OW50223   3.118   7.068  11.878  0.2369 -0.6011  0.5051
16261SOL    HW150224   3.027   7.096  11.884  0.3835 -0.2246  1.0233
16261SOL    HW250225   3.160   7.136  11.824  0.2684 -0.6286  0.4951
16262SOL     OW50226   3.711   6.533   6.746  0.1645 -0.5797 -0.1738
16262SOL    HW150227   3.762   6.525   6.826 -1.3645  0.4605  0.9523
16262SOL    HW250228   3.674   6.445   6.732 -1.5009 -0.2310  1.6509
16263SOL     OW50229   7.269   6.561   2.941  0.4393  0.0647  1.3588
16263SOL    HW150230   7.341   6.605   2.896  0.9140  0.8273  2.7931
16263SOL    HW250231   7.191   6.608   2.914  0.2352 -1.5649 -1.2235
16264SOL     OW50232   7.940   2.464   2.482 -0.2379 -0.3098 -0.0401
16264SOL    HW150233   7.988   2.523   2.424 -0.1326 -2.1730 -2.0099
16264SOL    HW250234   7.850   2.468   2.450 -0.7450  0.5819  1.4100
16265SOL     OW50235   3.554   0.301   1.556 -0.1257  0.0710  0.1264
16265SOL    HW150236   3.610   0.231   1.522  0.9302  1.4999 -1.2131
16265SOL    HW250237   3.606   0.342   1.625 -0.5571 -0.1346  0.5872
16266SOL     OW50238   1.879   2.159   5.315  0.4375 -0.0262  0.3073
16266SOL    HW150239   1.849   2.068   5.307  0.6604 -0.2512  1.7226
16266SOL    HW250240   1.929   2.160   5.396 -0.4568  1.5945  0.8810
16267SOL     OW50241   3.360   0.695   4.458 -0.3826 -0.0097 -0.3472
16267SOL    HW150242   3.299   0.676   4.529 -0.3759  1.0440 -0.0399
16267SOL    HW250243   3.331   0.780   4.424  1.3384  0.8548  0.2705
16268SOL     OW50244   0.976   2.668   5.601  0.0988  0.6750  0.4607
16268SOL    HW150245   1.054   2.641   5.649  0.1528  1.5822  0.9103
16268SOL    HW250246   0.954   2.754   5.637 -1.7967 -0.0496  1.1896
16269SOL     OW50247   7.207   6.705   4.759 -0.1215 -0.0856 -0.2168
16269SOL    HW150248   7.225   6.613   4.741  1.5157  0.2539 -0.4932
16269SOL    HW250249   7.112   6.711   4.761 -0.2781 -2.0464  1.2298
16270SOL     OW50250   6.644   3.808   3.307  0.3452 -0.0120 -0.0208
16270SOL    HW150251   6.589   3.730   3.307  0.3426 -0.0142  0.7017
16270SOL    HW250252   6.697   3.800   3.386  0.7566  0.4339 -0.2465
16271SOL     OW50253   4.040   4.638   2.704  0.4980  0.1220  0.1484
16271SOL    HW150254   4.065   4.699   2.636 -0.0612 -0.2389 -0.3889
16271SOL    HW250255   3.952   4.665   2.731  0.3583 -0.2701  0.1003
16272SOL     OW50256   6.796   7.979   5.967  0.2292  0.3445 -0.0338
16272SOL    HW150257   6.711   8.022   5.972 -1.7759 -3.1429 -0.9500
16272SOL    HW250258   6.822   7.987   5.875 -0.0704 -0.2599 -0.1721
16273SOL     OW50259   6.379   4.908   0.391  0.3437  0.5815 -0.2444
16273SOL    HW150260   6.313   4.966   0.430  0.3863  0.0524  0.6488
16273SOL    HW250261   6.434   4.881   0.465  0.0059 -1.0056 -0.5336
16274SOL     OW50262   5.154   3.654  10.487  0.3626  0.3939  0.0626
16274SOL    HW150263   5.078   3.625  10.437  1.2225  1.6434 -2.0956
16274SOL    HW250264   5.143   3.748  10.495  0.9567  0.3917  1.0150
16275SOL     OW50265   1.359   4.781   8.687  0.2020 -0.1637 -0.1467
16275SOL    HW150266   1.317   4.800   8.770  0.4445  0.7269 -0.2169
16275SOL    HW250267   1.334   4.854   8.630 -0.8545 -1.2995 -1.2009
16276SOL     OW50268   0.900   1.360  11.467  0.1055  0.1499 -0.4052
16276SOL    HW150269   0.912   1.295  11.397  0.4206 -0.4159  0.1624
16276SOL    HW250270   0.806   1.358  11.486 -0.2633  1.4808 -1.9095
16277SOL     OW50271   2.511   3.008   3.060  0.3707  0.2068  0.2342
16277SOL    HW150272   2.514   2.952   3.138  1.0857 -0.0382  0.0296
16277SOL    HW250273   2.456   2.960   2.998 -0.7499  0.6975  0.8014
16278SOL     OW50274   3.954   6.635   0.344  0.1024 -0.2879  0.5156
16278SOL    HW150275   4.029   6.579   0.362 -0.6923 -1.0379  1.6161
16278SOL    HW250276   3.894   6.580   0.294 -0.9875 -0.6959  2.2012
16279SOL     OW50277   1.789   5.649   6.591  0.5160 -0.1106 -0.2440
16279SOL    HW150278   1.734   5.710   6.542  0.1149  1.0456  1.5530
16279SOL    HW250279   1.873   5.649   6.543 -0.9360 -1.9908 -3.0930
16280SOL     OW50280   7.591   6.824   7.500 -0.2110  0.0981  0.5860
16280SOL    HW150281   7.625   6.828   7.411 -1.5348 -0.7127  0.0261
16280SOL    HW250282   7.668   6.803   7.554  0.5022  0.0714 -0.4160
16281SOL     OW50283   4.639   6.102   1.602 -0.0437  0.2508 -0.1403
16281SOL    HW150284   4.613   6.184   1.644 -0.6383 -0.3609  0.7256
16281SOL    HW250285   4.722   6.079   1.644  0.6538  0.9150 -1.1124
16282SOL     OW50286   1.882   2.398   0.748  0.3482  0.3984 -0.5575
16282SOL    HW150287   1.855   2.481   0.709  0.1847  0.4990 -0.2364
16282SOL    HW250288   1.947   2.423   0.813  0.0178  0.3130 -0.1934
16283SOL     OW50289   1.152   2.514   5.146 -0.2203 -0.2371 -0.1837
16283SOL    HW150290   1.112   2.566   5.215 -0.3056  0.5173 -0.7908
16283SOL    HW250291   1.221   2.463   5.190 -0.8575 -0.4342  0.5989
16284SOL     OW50292   1.263   0.325   7.020  0.1251  0.1422 -0.0556
16284SOL    HW150293   1.294   0.352   7.107 -0.8151 -1.5776  0.8730
16284SOL    HW250294   1.268   0.230   7.022  0.1714  0.0789 -1.9489
16285SOL     OW50295   3.239   5.258   1.947 -0.4832  0.8859  0.3214
16285SOL    HW150296   3.147   5.260   1.970 -1.9781 -1.0417 -4.2715
16285SOL    HW250297   3.272   5.177   1.986 -1.5713  0.1157 -0.2989
16286SOL     OW50298   3.318   4.421   8.415  0.1327 -0.4878  0.1592
16286SOL    HW150299   3.310   4.329   8.392 -0.6537 -0.2830 -0.4253
16286SOL    HW250300   3.413   4.437   8.419  0.3618 -1.9075  2.7961
16287SOL     OW50301   4.544   2.332   6.981 -0.0969 -0.5972 -0.5946
16287SOL    HW150302   4.477   2.314   6.915  0.7208 -0.2702 -1.5347
16287SOL    HW250303   4.566   2.424   6.968  2.0270 -1.2043 -1.7387
16288SOL     OW50304   3.731   4.273   1.940 -0.1491  0.1568 -0.1910
16288SOL    HW150305   3.640   4.251   1.959 -0.2753  1.6121  1.1641
16288SOL    HW250306   3.774   4.189   1.925 -1.6394 -0.5786 -0.5436
16289SOL     OW50307   5.176   3.439   1.390  0.0866  0.1363  0.0535
16289SOL    HW150308   5.260   3.480   1.368 -0.2133  0.0470 -1.3258
16289SOL    HW250309   5.140   3.411   1.306 -2.0578  1.5448  0.4188
16290SOL     OW50310   6.346   1.410   0.430 -0.2408  0.6369 -0.1623
16290SOL    HW150311   6.302   1.373   0.353 -0.9690  0.7375  0.1905
16290SOL    HW250312   6.324   1.351   0.501  1.0379  0.1415 -0.1540
16291SOL     OW50313   5.014   6.690   0.930  0.2022 -0.3600 -0.3385
16291SOL    HW150314   4.947   6.743   0.972  0.1851 -0.5712 -0.1007
16291SOL    HW250315   5.077   6.671   0.998  0.5322 -0.1180 -0.5762
16292SOL     OW50316   5.844   7.555   3.132  0.4700  0.4592  0.2065
16292SOL    HW150317   5.772   7.542   3.070  0.3340  1.6575  0.0858
16292SOL    HW250318   5.816   7.629   3.186  1.1139  0.1988  0.9179
16293SOL     OW50319   1.303   0.171   8.262  0.2880 -0.3822  0.6538
16293SOL    HW150320   1.345   0.199   8.343 -0.6958  0.1413  1.0002
16293SOL    HW250321   1.368   0.190   8.194  0.8204 -0.0906  1.2254
16294SOL     OW50322   6.103   3.693   3.724  0.1052  0.0612  0.4939
16294SOL    HW150323   6.092   3.607   3.765  1.0306 -1.5335 -2.2649
16294SOL    HW250324   6.020   3.710   3.680  0.3720 -0.1710 -0.1292
16295SOL     OW50325   2.296   0.536   2.703 -0.6561  0.0933 -0.0229
16295SOL    HW150326   2.205   0.520   2.680 -0.3004 -0.0312 -1.3913
16295SOL    HW250327   2.324   0.455   2.747 -1.5232  0.5868  1.5321
16296SOL     OW50328   7.519   0.394   1.775  0.0688  0.1797 -0.0825
16296SOL    HW150329   7.451   0.461   1.780  2.0305  2.2315  1.7191
16296SOL    HW250330   7.502   0.336   1.848  0.6429  1.1764  0.8777
16297SOL     OW50331   4.365   1.603  10.484  0.2104  0.0192  0.3004
16297SOL    HW150332   4.365   1.652  10.401 -2.5558  0.0822  0.2454
16297SOL    HW250333   4.370   1.511  10.456  0.7519  0.0809  0.1690
16298SOL     OW50334   7.446   7.239   4.736  0.0133  0.3082 -0.2611
16298SOL    HW150335   7.403   7.153   4.737 -0.3868  0.4794 -1.4200
16298SOL    HW250336   7.375   7.301   4.754 -0.0487  0.5077 -1.1181
16299SOL     OW50337   0.314   5.885   4.086 -0.7906 -0.2628 -0.1707
16299SOL    HW150338   0.237   5.942   4.079 -0.3704  0.1988 -1.1650
16299SOL    HW250339   0.277   5.796   4.092 -1.4074 -0.0149 -0.1641
16300SOL     OW50340   7.590   0.455   7.773  0.0162  0.1193 -0.3625
16300SOL    HW150341   7.580   0.538   7.819 -0.2284  0.2597 -0.6622
16300SOL    HW250342   7.501   0.430   7.750 -0.2516 -1.6416  2.1462
16301SOL     OW50343   2.399   4.331   8.399  0.2971 -0.4216  0.8710
16301SOL    HW150344   2.460   4.303   8.468  0.1932  2.0375  2.0786
16301SOL    HW250345   2.360   4.249   8.368  3.2519 -2.0043  0.8902
16302SOL     OW50346   2.127   3.122   2.943  0.2036  0.2495  0.2603
16302SOL    HW150347   2.112   3.156   2.854 -0.7363  0.5856  0.5371
16302SOL    HW250348   2.204   3.169   2.974  0.9188 -0.3162 -0.5977
16303SOL     OW50349   5.819   2.459   0.342  0.1565 -0.2103 -0.0449
16303SOL    HW150350   5.861   2.435   0.425 -1.5349 -1.5922  0.4927
16303SOL    HW250351   5.766   2.535   0.363  0.8121  0.3105 -0.2346
16304SOL     OW50352   1.096   5.163   1.095  0.1117  0.2386 -0.4015
16304SOL    HW150353   1.158   5.153   1.167  0.2481  0.9018 -0.4185
16304SOL    HW250354   1.012   5.177   1.137  0.0277 -0.3245 -0.3768
16305SOL     OW50355   5.469   1.792   2.744 -0.5029  0.2242  0.2493
16305SOL    HW150356   5.537   1.787   2.812 -1.5253 -1.8744  1.1890
16305SOL    HW250357   5.495   1.727   2.679 -1.1366  0.0453  0.1697
16306SOL     OW50358   5.826   6.817   1.374 -0.2970  0.0552 -0.1826
16306SOL    HW150359   5.902   6.768   1.407  0.3216  1.1261  0.0100
16306SOL    HW250360   5.862   6.876   1.309 -1.0853  0.0754 -0.6083
16307SOL     OW50361   0.895   1.514   8.125  0.1384  0.5165  0.2815
16307SOL    HW150362   0.920   1.505   8.217  0.1261  0.5129  0.2842
16307SOL    HW250363   0.801   1.493   8.124  0.2877 -0.1667  0.1538
16308SOL     OW50364   5.666   0.237   2.068 -0.5220  0.0484 -0.0160
16308SOL    HW150365   5.744   0.270   2.025  1.2935 -2.8964  0.6723
16308SOL    HW250366   5.611   0.202   1.997  0.0545 -0.2122 -0.3376
16309SOL     OW50367   5.504   0.813   8.403 -0.2916 -0.1724 -0.0081
16309SOL    HW150368   5.488   0.719   8.418 -0.4469 -0.1188  0.1659
16309SOL    HW250369   5.443   0.857   8.462 -0.3603  0.0399 -0.2387
16310SOL     OW50370   5.024   3.612   2.813  0.7033  0.6575 -0.2542
16310SOL    HW150371   4.932   3.586   2.806  0.5856  1.1840 -0.7831
16310SOL    HW250372   5.042   3.659   2.732  1.0113  1.8510  0.4779
16311SOL     OW50373   2.304   2.584   4.843  0.0300  0.2918  0.1153
16311SOL    HW150374   2.266   2.672   4.835  1.0829  0.7796  0.3879
16311SOL    HW250375   2.228   2.526   4.844 -0.8163  1.3530  2.2441
16312SOL     OW50376   0.734   6.556  10.583 -0.2005 -0.0769 -0.1511
16312SOL    HW150377   0.818   6.600  10.596 -0.6565  0.5226  0.8767
16312SOL    HW250378   0.717   6.511  10.666 -0.7362 -0.4763 -0.4706
16313SOL     OW50379   6.303   4.396  11.782  0.5441  0.3938  0.2822
16313SOL    HW150380   6.226   4.422  11.730  0.8217  2.2013  0.6816
16313SOL    HW250381   6.355   4.342  11.723 -1.1502 -1.1308  0.0961
16314SOL     OW50382   5.578   0.848   4.385 -0.0412  0.1822 -0.1420
16314SOL    HW150383   5.590   0.937   4.419 -0.8278 -0.1349  1.0343
16314SOL    HW250384   5.659   0.802   4.410  0.0317  0.3628 -0.0436
16315SOL     OW50385   3.066   0.183   1.318 -0.2025  0.1063 -0.2987
16315SOL    HW150386   3.156   0.215   1.321  0.0181 -0.3254 -1.4299
16315SOL    HW250387   3.075   0.088   1.330 -0.4810  0.0362 -0.6468
16316SOL     OW50388   6.356   5.796   1.750 -0.2361  0.3425  0.1599
16316SOL    HW150389   6.424   5.761   1.693  0.4336  1.2283  0.4101
16316SOL    HW250390   6.332   5.722   1.806  0.1289 -0.1196 -0.2813
16317SOL     OW50391   1.661   5.002   5.913  0.8053 -0.4345 -0.0710
16317SOL    HW150392   1.624   5.016   6.001 -0.5549 -2.0950 -0.3088
16317SOL    HW250393   1.753   4.983   5.928  0.8974  0.6700  0.8655
16318SOL     OW50394   0.133   1.220   8.836 -0.5511 -0.1270  0.1843
16318SOL    HW150395   0.140   1.158   8.908  1.3990 -1.1725 -0.8213
16318SOL    HW250396   0.041   1.245   8.834 -1.2462 -2.3820  1.1370
16319SOL     OW50397   1.549   0.904   2.692 -0.3118  0.2312  0.0740
16319SOL    HW150398   1.492   0.832   2.666 -1.8328  1.9620 -1.7472
16319SOL    HW250399   1.511   0.981   2.649  1.2671  2.1232  1.8495
16320SOL     OW50400   5.062   3.853   0.242  0.1465  0.8603 -0.3364
16320SOL    HW150401   5.051   3.894   0.328  1.8021  1.3838 -0.3339
16320SOL    HW250402   5.155   3.829   0.239  0.0056  0.4041 -1.7976
16321SOL     OW50403   1.673   3.555   1.953 -0.1558  0.2793 -0.4333
16321SOL    HW150404   1.637   3.523   1.871  0.2151 -0.7709 -0.2040
16321SOL    HW250405   1.715   3.479   1.993  1.0699  1.1260 -0.0251
16322SOL     OW50406   3.406   0.353   1.818  0.1008  0.3549 -0.2629
16322SOL    HW150407   3.501   0.343   1.824 -0.1497 -1.6865  1.6141
16322SOL    HW250408   3.385   0.327   1.729  1.1397 -1.4230 -0.0387
16323SOL     OW50409   5.241   4.320  11.526  0.2369  0.0401  0.1291
16323SOL    HW150410   5.282   4.326  11.440 -0.2428  0.8574 -0.0535
16323SOL    HW250411   5.288   4.385  11.579 -0.3807  0.5352  0.0890
16324SOL     OW50412   1.217   5.894   4.200  0.0008  0.0525  0.0630
16324SOL    HW150413   1.280   5.934   4.260 -1.1134 -0.7235  1.8435
16324SOL    HW250414   1.135   5.891   4.250 -1.1777  0.0149 -1.7806
16325SOL     OW50415   0.276   1.927   0.494  0.2423  0.4007 -0.7434
16325SOL    HW150416   0.214   1.880   0.549  2.7870 -0.9971  1.1206
16325SOL    HW250417   0.248   2.019   0.501  0.3192  0.3073  2.8809
16326SOL     OW50418   3.923   1.877   6.584 -0.5750  0.2637 -0.0640
16326SOL    HW150419   3.965   1.929   6.515 -1.1769 -1.6454 -2.0112
16326SOL    HW250420   3.847   1.929   6.610  0.5031  1.7191  0.3133
16327SOL     OW50421   4.113   5.518   9.909 -0.3952 -0.0149 -0.5490
16327SOL    HW150422   4.182   5.544   9.849  0.5068  0.9840  0.8455
16327SOL    HW250423   4.105   5.423   9.898  0.5499 -0.0073 -1.3818
16328SOL     OW50424   6.543   1.529  11.530  0.1373 -0.0458  0.6444
16328SOL    HW150425   6.559   1.566  11.443  1.0576  0.3237  0.9592
16328SOL    HW250426   6.583   1.443  11.527  1.0697  0.3662  1.0177
16329SOL     OW50427   7.549   4.279  11.516 -0.0176 -0.3652  0.4737
16329SOL    HW150428   7.456   4.299  11.519 -0.0833 -0.6166  0.0996
16329SOL    HW250429   7.590   4.361  11.488  0.0894  0.3868  2.5981
16330SOL     OW50430   6.156   5.149   0.922 -0.2615  0.8939 -0.3159
16330SOL    HW150431   6.172   5.056   0.905 -1.6541  0.2985  1.3633
16330SOL    HW250432   6.154   5.156   1.017 -0.6707  2.5703 -0.4188
16331SOL     OW50433   4.213   6.394  11.342  0.1352  0.3788  0.0582
16331SOL    HW150434   4.210   6.333  11.416 -0.4531  0.8742  0.4548
16331SOL    HW250435   4.123   6.395  11.309  0.1638  0.9548 -0.0103
16332SOL     OW50436   1.214   5.094   3.027 -0.4469  0.0916  0.0660
16332SOL    HW150437   1.131   5.076   3.071 -0.9392 -0.5130 -1.0693
16332SOL    HW250438   1.232   5.015   2.976  1.7930 -0.5816  1.7106
16333SOL     OW50439   4.550   7.512   1.224  0.6657  0.4849  0.7152
16333SOL    HW150440   4.549   7.567   1.146 -3.2605 -1.5663 -0.9741
16333SOL    HW250441   4.539   7.573   1.297 -0.6750  2.1796 -0.8119
16334SOL     OW50442   2.255   3.242   9.842  0.6623  0.4102  0.0623
16334SOL    HW150443   2.164   3.268   9.824  1.0160  1.9280  0.3529
16334SOL    HW250444   2.291   3.315   9.893  0.9230 -1.8368  3.4211
16335SOL     OW50445   2.934   7.557   0.977 -0.0149  0.1643 -0.7101
16335SOL    HW150446   2.901   7.533   0.891  0.3065 -0.5408 -0.6460
16335SOL    HW250447   3.028   7.539   0.972  0.0788  0.5357 -0.3508
16336SOL     OW50448   0.727   7.078   9.169 -0.9127 -0.7258  0.2346
16336SOL    HW150449   0.745   7.024   9.246 -0.0385  0.2730  0.7571
16336SOL    HW250450   0.633   7.095   9.173 -1.3017 -2.5555 -0.1963
16337SOL     OW50451   2.246   3.594   0.945 -0.3480  0.3928 -0.6417
16337SOL    HW150452   2.183   3.573   1.014 -0.3819  0.1599 -0.7409
16337SOL    HW250453   2.260   3.510   0.900 -0.1203  0.4870 -0.7453
16338SOL     OW50454   4.312   0.584   6.998 -0.4194 -0.5489 -0.4718
16338SOL    HW150455   4.358   0.641   6.936 -0.1412  0.6171  0.7504
16338SOL    HW250456   4.283   0.509   6.945 -0.4531  0.5279 -2.0587
16339SOL     OW50457   4.128   5.713   9.497  0.0607 -0.7674 -0.1159
16339SOL    HW150458   4.190   5.777   9.532  0.0242 -0.6668 -0.2350
16339SOL    HW250459   4.095   5.668   9.574 -0.8508  0.2015  0.0791
16340SOL     OW50460   2.306   5.089   0.457 -0.0268 -0.5675  0.1198
16340SOL    HW150461   2.219   5.126   0.439 -0.0225  0.2549  1.6526
16340SOL    HW250462   2.355   5.162   0.496  1.3460 -1.0383 -0.6613
16341SOL     OW50463   7.675   6.930   4.702 -0.1841  0.4176 -0.2778
16341SOL    HW150464   7.770   6.927   4.700 -0.1504  0.9989  0.2001
16341SOL    HW250465   7.654   6.969   4.787 -0.8342  0.7613 -0.5852
16342SOL     OW50466   2.872   2.935   3.232  0.1525  0.5427 -0.2215
16342SOL    HW150467   2.875   2.999   3.161 -0.3560 -0.5184 -1.2503
16342SOL    HW250468   2.780   2.909   3.236 -0.0387  1.3301  1.5616
16343SOL     OW50469   1.977   3.758   6.894  0.1447  0.0357 -0.3614
16343SOL    HW150470   1.905   3.695   6.885 -0.7310  0.9849 -0.2361
16343SOL    HW250471   2.042   3.712   6.947 -1.3154 -0.1250  1.4147
16344SOL     OW50472   7.085   7.095  11.788  0.2157 -0.7997  0.3020
16344SOL    HW150473   7.043   7.169  11.745  0.4748 -1.0318 -0.3564
16344SOL    HW250474   7.014   7.034  11.808 -0.0115 -0.3390  0.9326
16345SOL     OW50475   0.834   5.482   3.820 -0.3616 -0.2648  0.4220
16345SOL    HW150476   0.769   5.496   3.751 -0.4354 -1.7029  0.1787
16345SOL    HW250477   0.825   5.390   3.843  0.2631 -0.0131  1.7592
16346SOL     OW50478   2.995   2.131   2.486  0.4919  0.2650  0.5345
16346SOL    HW150479   2.945   2.187   2.426 -1.1515 -0.6902  0.9402
16346SOL    HW250480   3.004   2.184   2.566 -0.8251  0.0959  0.8239
16347SOL     OW50481   3.980   4.518   2.409  0.8411 -0.3044 -0.3092
16347SOL    HW150482   3.917   4.589   2.402  0.9335 -0.1448  0.3389
16347SOL    HW250483   3.945   4.462   2.478  1.3874 -0.2165  0.0548
16348SOL     OW50484   1.235   6.822  11.567  0.2747  0.0888  0.4984
16348SOL    HW150485   1.226   6.769  11.646 -0.7142 -2.0541 -0.9543
16348SOL    HW250486   1.313   6.789  11.524  0.6180  1.0111  0.3903
16349SOL     OW50487   1.258   7.724   6.325  0.2157  0.0704 -0.0816
16349SOL    HW150488   1.165   7.738   6.341  0.2548 -0.8008  1.0187
16349SOL    HW250489   1.261   7.680   6.240 -0.3514  0.2444 -0.2003
16350SOL     OW50490   5.767   6.738   9.835  0.4643  0.3228  0.3906
16350SOL    HW150491   5.799   6.824   9.807  0.1618  1.0633  2.1958
16350SOL    HW250492   5.766   6.742   9.931 -0.3678 -1.4046  0.4990
16351SOL     OW50493   0.049   5.234   5.352  0.1660  0.1389  0.1887
16351SOL    HW150494   0.053   5.145   5.389  0.7634  0.4153  0.7922
16351SOL    HW250495   0.120   5.281   5.394 -0.6280  1.1320  0.4565
16352SOL     OW50496   0.038   2.711   3.334 -0.0956  0.3655 -0.2805
16352SOL    HW150497  -0.003   2.798   3.337  0.8390  0.8044  0.1590
16352SOL    HW250498   0.003   2.665   3.411  0.2819  0.7600  0.1311
16353SOL     OW50499   4.060   6.093  10.748  0.1987  0.1550 -0.8729
16353SOL    HW150500   4.013   6.134  10.821  1.7562  1.0490 -0.3152
16353SOL    HW250501   4.086   6.007  10.782 -1.7612 -0.7452 -1.5142
16354SOL     OW50502   0.933   1.920  11.384 -0.5558 -0.2852  0.0660
16354SOL    HW150503   0.955   1.929  11.476 -0.4573 -0.5266  0.0674
16354SOL    HW250504   1.013   1.885  11.343 -0.8705 -1.0018  0.0416
16355SOL     OW50505   6.731   2.696   2.066  0.2076  0.1418  0.6902
16355SOL    HW150506   6.804   2.670   2.121  0.9901 -1.7626 -1.1285
16355SOL    HW250507   6.746   2.790   2.050  0.9045  0.3240  2.2516
16356SOL     OW50508   2.606   7.120  12.161  0.3529  0.3144 -0.0204
16356SOL    HW150509   2.693   7.084  12.145  0.2861  0.3309 -0.4227
16356SOL    HW250510   2.609   7.150  12.252  0.1229 -1.5732  0.6722
16357SOL     OW50511   1.041   0.604   3.609 -0.2627  0.1279 -0.0709
16357SOL    HW150512   1.101   0.672   3.579  0.2676 -0.2782  0.0452
16357SOL    HW250513   0.966   0.610   3.550  0.7709 -0.6654 -1.5362
16358SOL     OW50514   6.091   4.043   2.958 -0.2827  0.6091 -0.3814
16358SOL    HW150515   6.075   4.136   2.945 -0.7368  0.3913 -1.4109
16358SOL    HW250516   6.004   4.003   2.961 -0.0981  0.2335  0.2499
16359SOL     OW50517   0.620   1.012   8.538  0.3234  0.4388 -0.5544
16359SOL    HW150518   0.584   1.101   8.534 -2.0049 -0.4699 -1.3334
16359SOL    HW250519   0.544   0.955   8.525  2.0138 -1.6533 -1.8052
16360SOL     OW50520   7.314   7.032   1.804 -0.0246 -0.2959  0.3512
16360SOL    HW150521   7.363   6.969   1.751 -0.5113 -0.4493  0.0824
16360SOL    HW250522   7.382   7.089   1.842  0.3638 -0.5321  0.0179
16361SOL     OW50523   6.870   6.499   0.109  0.1951  0.2057  0.3918
16361SOL    HW150524   6.873   6.588   0.143 -1.4500  0.5070 -0.1679
16361SOL    HW250525   6.779   6.473   0.118 -0.2044  0.0107 -2.9583
16362SOL     OW50526   6.471   5.255   9.781 -0.3840  0.3291 -0.1489
16362SOL    HW150527   6.514   5.295   9.857  3.1032  0.9930 -2.2674
16362SOL    HW250528   6.422   5.326   9.741 -1.3040  0.2487  0.7815
16363SOL     OW50529   4.646   0.979   3.574  0.4504 -0.9844  0.0926
16363SOL    HW150530   4.672   0.976   3.482 -0.3984 -0.6029 -0.1775
16363SOL    HW250531   4.634   1.073   3.592  0.9744 -1.0262  0.7043
16364SOL     OW50532   2.614   3.232   5.210  0.4400 -0.5441 -0.4757
16364SOL    HW150533   2.587   3.286   5.135 -0.7769 -0.9791 -0.3775
16364SOL    HW250534   2.697   3.193   5.182 -0.2824 -1.1591 -1.8602
16365SOL     OW50535   3.968   1.084   4.792  0.2291 -0.4295  0.0263
16365SOL    HW150536   3.953   1.149   4.723  1.1532  0.1886  0.3800
16365SOL    HW250537   4.010   1.134   4.862  1.1253 -1.4588  0.2360
16366SOL     OW50538   0.413   1.204  12.246  0.0591  0.2435 -0.0853
16366SOL    HW150539   0.450   1.123  12.282  1.0205  0.9171  0.4939
16366SOL    HW250540   0.458   1.215  12.162  1.4734  1.2414  0.7738
16367SOL     OW50541   2.610   0.376   4.968 -0.5024  0.3448  0.5142
16367SOL    HW150542   2.625   0.393   4.875  1.2424  0.4920  0.7886
16367SOL    HW250543   2.547   0.444   4.994 -0.7148  0.5480 -0.4680
16368SOL     OW50544   1.669   7.422   5.355  0.1992 -0.0592 -0.4679
16368SOL    HW150545   1.720   7.345   5.330  0.6948  0.2177 -0.3171
16368SOL    HW250546   1.608   7.390   5.421 -0.3598 -0.5621 -1.2157
16369SOL     OW50547   5.069   4.565   5.650 -0.2784 -0.1773 -0.0197
16369SOL    HW150548   5.040   4.572   5.559 -0.4638 -0.4813  0.0147
16369SOL    HW250549   5.055   4.473   5.673 -0.7456  0.0110  0.4865
16370SOL     OW50550   1.418   6.242   2.473  0.6685  0.1925 -0.0849
16370SOL    HW150551   1.451   6.332   2.479  2.0942 -0.3891  1.8709
16370SOL    HW250552   1.396   6.231   2.381 -0.6884  2.9003 -0.1967
16371SOL     OW50553   5.372   7.728   0.179 -0.9952  0.0226 -0.2176
16371SOL    HW150554   5.325   7.646   0.195 -1.2229  0.4565  1.5922
16371SOL    HW250555   5.326   7.768   0.104 -0.4537 -1.7733 -1.5631
16372SOL     OW50556   7.608   2.565   3.482  0.0300  0.3131 -0.1685
16372SOL    HW150557   7.599   2.475   3.515 -2.0833  0.6765  0.3992
16372SOL    HW250558   7.639   2.615   3.558  2.4881 -0.0988 -0.8239
16373SOL     OW50559   3.134   2.009   3.480 -0.3434 -0.0635  0.0368
16373SOL    HW150560   3.152   2.076   3.546  1.1613  1.0086 -1.3899
16373SOL    HW250561   3.054   2.039   3.436 -0.2460  0.2571  0.0785
16374SOL     OW50562   7.694   3.997   3.696  0.0799 -0.4812 -0.3731
16374SOL    HW150563   7.670   4.017   3.787  1.5497 -0.2825 -0.0097
16374SOL    HW250564   7.777   3.949   3.703 -0.9355 -2.5128 -1.5093
16375SOL     OW50565   6.867   7.950   2.769  0.0940  0.0289 -0.2274
16375SOL    HW150566   6.835   7.978   2.855  1.1900  0.8637 -0.0626
16375SOL    HW250567   6.821   8.007   2.707  1.4064  1.4585  0.0299
16376SOL     OW50568   7.162   3.013   5.729 -0.4719  0.4472  0.0385
16376SOL    HW150569   7.185   3.052   5.814 -0.9484 -1.0485  0.8969
16376SOL    HW250570   7.075   3.047   5.710 -1.1074 -0.5314  1.0402
16377SOL     OW50571   7.317   1.302  11.320  0.8688 -0.0401 -0.3338
16377SOL    HW150572   7.400   1.284  11.363 -0.0824 -1.1135  1.1918
16377SOL    HW250573   7.292   1.390  11.350  1.3413  0.1809 -0.5963
16378SOL     OW50574   6.000   0.035   5.036  0.7425 -0.4563  0.0565
16378SOL    HW150575   6.015  -0.056   5.010 -1.9978 -0.2570 -2.8247
16378SOL    HW250576   6.052   0.087   4.974  1.0087 -0.0307  0.6265
16379SOL     OW50577   0.814   3.744   7.233  0.0950 -0.6929  0.6224
16379SOL    HW150578   0.863   3.776   7.157  0.2969 -0.4671  0.8484
16379SOL    HW250579   0.879   3.735   7.302 -0.4027  0.9172  1.3361
16380SOL     OW50580   7.366   7.853   4.405  0.4750  0.1179 -0.1898
16380SOL    HW150581   7.456   7.825   4.388  0.1583 -0.3627 -1.1743
16380SOL    HW250582   7.373   7.917   4.475  1.4394 -0.9470  0.7151
16381SOL     OW50583   6.678   3.431  12.154 -0.4135 -0.8919 -0.0921
16381SOL    HW150584   6.705   3.339  12.157  0.5704 -0.5973  0.8158
16381SOL    HW250585   6.583   3.428  12.171  0.0158 -1.6009  2.7378
16382SOL     OW50586   0.009   6.570   1.533  0.1446  0.0484  0.4062
16382SOL    HW150587   0.061   6.614   1.466 -1.9621 -0.8564 -1.9826
16382SOL    HW250588   0.044   6.482   1.538 -0.2059 -0.1332 -0.1694
16383SOL     OW50589   6.206   2.711  11.601 -0.3765 -0.3510 -0.4227
16383SOL    HW150590   6.140   2.698  11.669  0.5819 -0.0423  0.6057
16383SOL    HW250591   6.225   2.804  11.604  0.4263 -0.5095 -0.3775
16384SOL     OW50592   2.319   4.593   1.332  0.5447 -0.5397 -0.0342
16384SOL    HW150593   2.280   4.581   1.245  2.2072 -1.4440 -0.6997
16384SOL    HW250594   2.248   4.630   1.385 -0.3512  0.5843 -1.9097
16385SOL     OW50595   2.470   6.386  10.778 -0.2031 -0.1932  0.0080
16385SOL    HW150596   2.540   6.392  10.842 -1.8010  0.5015  1.7734
16385SOL    HW250597   2.494   6.311  10.723  2.3945  0.6565 -0.1043
16386SOL     OW50598   1.957   3.236   5.225 -0.0857  0.4335  0.0250
16386SOL    HW150599   2.013   3.313   5.214  0.1356  0.0322 -1.8367
16386SOL    HW250600   1.876   3.271   5.262 -0.1554  1.6517 -1.2055
16387SOL     OW50601   6.602   6.502   1.911  0.1303  0.2514  0.1902
16387SOL    HW150602   6.538   6.554   1.959 -0.0788 -0.3801  0.6117
16387SOL    HW250603   6.629   6.434   1.974 -0.1611 -0.6037 -0.5954
16388SOL     OW50604   3.667   1.454   1.906 -0.5647  0.4337 -0.3066
16388SOL    HW150605   3.713   1.374   1.934 -0.5328  0.6565  0.2993
16388SOL    HW250606   3.736   1.518   1.891 -0.4532 -0.1169 -2.4585
16389SOL     OW50607   3.087   5.810   5.258 -0.2068  0.1245 -0.1924
16389SOL    HW150608   3.104   5.853   5.175  0.2295 -1.1378 -0.7782
16389SOL    HW250609   2.992   5.800   5.261 -0.1939 -0.2025 -0.7453
16390SOL     OW50610   3.048   5.327   0.617 -0.3036 -0.0679 -0.2377
16390SOL    HW150611   3.026   5.270   0.543  0.0440  0.2403 -0.5825
16390SOL    HW250612   3.065   5.267   0.689  0.2225 -0.4151 -0.6415
16391SOL     OW50613   1.199   7.910   1.420  0.1039 -0.2057 -0.3325
16391SOL    HW150614   1.242   7.831   1.386 -0.5420  0.1041 -1.9772
16391SOL    HW250615   1.112   7.908   1.381 -0.8490  0.0112  1.6748
16392SOL     OW50616   4.523   0.249   8.042  0.4185 -0.1902  0.2200
16392SOL    HW150617   4.526   0.214   8.131  1.4785 -0.1758  0.2079
16392SOL    HW250618   4.614   0.249   8.014 -0.0791 -1.9290 -1.5672
16393SOL     OW50619   6.596   7.359   4.564  0.0819  0.1101  0.4808
16393SOL    HW150620   6.625   7.440   4.607  2.2234 -0.7370  0.7649
16393SOL    HW250621   6.592   7.381   4.471 -0.3960  0.8229  0.6659
16394SOL     OW50622   2.204   4.834   9.667 -0.4151 -0.2906  0.0187
16394SOL    HW150623   2.261   4.804   9.596 -1.3360 -2.6728  0.2027
16394SOL    HW250624   2.116   4.811   9.638 -1.3975  3.1561 -0.1803
16395SOL     OW50625   7.596   5.898  11.213  0.5905 -1.0967  0.5813
16395SOL    HW150626   7.592   5.948  11.295  0.0508 -0.4691  0.1798
16395SOL    HW250627   7.675   5.845  11.222 -0.5880 -2.7034  2.4580
16396SOL     OW50628   7.582   6.289   2.230  0.0854  0.2108  0.4731
16396SOL    HW150629   7.492   6.305   2.203  0.7047  1.5948 -0.9294
16396SOL    HW250630   7.606   6.207   2.187  0.1432  0.9330 -0.9101
16397SOL     OW50631   0.464   6.010   7.561 -0.4888 -0.6664 -0.2668
16397SOL    HW150632   0.383   5.974   7.524  0.9711 -2.2347 -2.1690
16397SOL    HW250633   0.526   5.938   7.557  1.3730  0.8399 -0.0707
16398SOL     OW50634   5.192   5.077  11.562 -0.3090 -0.5992  0.0713
16398SOL    HW150635   5.194   5.066  11.657  1.3082  2.5994  0.5393
16398SOL    HW250636   5.124   5.142  11.546 -0.5291 -1.0610 -0.9925
16399SOL     OW50637   4.101   7.696   5.284  0.0973  0.2746 -0.5461
16399SOL    HW150638   4.177   7.668   5.336 -0.1624 -0.3208 -0.4803
16399SOL    HW250639   4.104   7.791   5.286 -0.3039  0.2749  1.1520
16400SOL     OW50640   2.293   7.571   3.472  0.4650 -0.3478 -0.4823
16400SOL    HW150641   2.329   7.626   3.542  0.9738 -1.0006 -0.2129
16400SOL    HW250642   2.247   7.501   3.518  1.1455 -1.0070 -0.7836
16401SOL     OW50643   1.798   1.694   4.786  0.5011 -0.6352  0.5722
16401SOL    HW150644   1.805   1.690   4.881 -1.6990  1.4432  0.9204
16401SOL    HW250645   1.753   1.777   4.769  0.8645 -0.9304 -2.3010
16402SOL     OW50646   4.837   1.322   2.337  0.2708  0.7764 -0.0124
16402SOL    HW150647   4.825   1.256   2.269 -1.1668  0.3021  0.6604
16402SOL    HW250648   4.930   1.345   2.332  0.7359 -1.0366 -0.5036
16403SOL     OW50649   5.148   5.465   5.119 -0.2138  0.5627  0.0686
16403SOL    HW150650   5.182   5.378   5.100 -0.5315  0.2598  0.8620
16403SOL    HW250651   5.053   5.456   5.114 -0.2696  0.7059  0.7937
16404SOL     OW50652   6.569   7.109   3.671  0.2808  0.5750 -0.6863
16404SOL    HW150653   6.538   7.074   3.755  0.5875 -0.4539 -0.9940
16404SOL    HW250654   6.660   7.133   3.688  0.3570  0.3228 -0.7346
16405SOL     OW50655   7.451   0.734   0.405  0.5521 -0.2172  0.5898
16405SOL    HW150656   7.392   0.686   0.463 -1.8570 -0.8493 -2.1346
16405SOL    HW250657   7.467   0.674   0.332 -0.1821  1.9758 -1.5320
16406SOL     OW50658   3.404   5.253   1.726 -0.1404  0.1385  0.4574
16406SOL    HW150659   3.438   5.163   1.719  2.0167  0.6475  2.8621
16406SOL    HW250660   3.353   5.253   1.808 -0.7838  0.9417  0.0745
16407SOL     OW50661   0.903   2.428   6.751  0.1296 -0.4084 -0.0942
16407SOL    HW150662   0.943   2.417   6.838 -0.9044  0.3592  0.5035
16407SOL    HW250663   0.917   2.344   6.708  0.6566 -0.8097  0.8210
16408SOL     OW50664   5.171   6.291  11.906 -0.0746 -0.6415 -0.4381
16408SOL    HW150665   5.192   6.354  11.975 -1.9843 -0.2355 -0.1723
16408SOL    HW250666   5.173   6.342  11.825  2.6558 -1.2216 -0.8182
16409SOL     OW50667   3.653   2.662   7.669 -0.1676  0.2975 -0.0428
16409SOL    HW150668   3.593   2.588   7.668 -0.2871  0.3709  1.0013
16409SOL    HW250669   3.704   2.651   7.749 -0.8879  1.9010  0.6784
16410SOL     OW50670   3.857   3.663  10.999 -0.0614 -0.6899 -0.4407
16410SOL    HW150671   3.878   3.574  11.026  0.5755 -0.1890  0.8130
16410SOL    HW250672   3.802   3.698  11.069  0.9564  0.3894 -0.1328
16411SOL     OW50673   7.709   2.110  10.889 -0.3920 -0.0196  0.0970
16411SOL    HW150674   7.804   2.120  10.883 -0.3629 -0.6092 -0.6331
16411SOL    HW250675   7.694   2.063  10.971 -0.2573  2.3559  1.5526
16412SOL     OW50676   7.380   3.793   6.847  0.0591  0.3944  0.4085
16412SOL    HW150677   7.340   3.870   6.888 -0.3668  1.1750 -1.3745
16412SOL    HW250678   7.412   3.825   6.762 -0.8746 -1.5732 -0.7506
16413SOL     OW50679   3.656   6.182   7.784  0.3040 -0.2812 -0.0683
16413SOL    HW150680   3.752   6.181   7.786  0.4138  2.2902 -0.8769
16413SOL    HW250681   3.633   6.093   7.757  2.5396 -0.6029 -1.2417
16414SOL     OW50682   5.331   5.642   6.465  0.0396  0.3840 -0.2534
16414SOL    HW150683   5.380   5.668   6.543 -0.5316 -0.5431  0.4374
16414SOL    HW250684   5.243   5.624   6.498  0.4277 -2.6061 -0.6118
16415SOL     OW50685   0.507   3.383   4.832  0.4014  0.1612  0.4292
16415SOL    HW150686   0.589   3.336   4.817  0.2318 -0.0436  0.1154
16415SOL    HW250687   0.498   3.386   4.928  0.7939  0.2260  0.4650
16416SOL     OW50688   6.033   6.751   2.240 -0.4436  0.2741  0.2296
16416SOL    HW150689   6.064   6.687   2.303 -0.6086  0.7898  0.8471
16416SOL    HW250690   6.067   6.835   2.272 -0.9358  0.6043 -0.0934
16417SOL     OW50691   4.386   7.681  10.240 -0.4637 -0.1513  0.2382
16417SOL    HW150692   4.449   7.739  10.196 -0.2808  0.0054  0.7070
16417SOL    HW250693   4.439   7.610  10.276 -0.4389  0.4290  1.3806
16418SOL     OW50694   5.044   2.515   8.533 -0.1834 -0.7481 -0.7537
16418SOL    HW150695   5.006   2.428   8.544 -0.1782 -0.9604 -2.2669
16418SOL    HW250696   5.042   2.553   8.621  0.3093 -2.4715  0.0488
16419SOL     OW50697   1.201   4.203   7.933  0.6889 -0.0597 -0.3303
16419SOL    HW150698   1.192   4.231   8.024  0.1309 -0.1926 -0.3411
16419SOL    HW250699   1.149   4.266   7.883  0.0482 -0.6620 -0.4345
16420SOL     OW50700   6.571   0.069   5.011 -0.5272 -0.1051  0.1260
16420SOL    HW150701   6.646   0.129   5.008  1.3201 -2.3139 -0.5419
16420SOL    HW250702   6.598   0.001   5.072 -2.2464 -0.7042  0.2718
16421SOL     OW50703   0.719   7.705   4.782 -0.6391 -0.1463 -0.1905
16421SOL    HW150704   0.769   7.785   4.769 -2.9317  1.8815  2.2648
16421SOL    HW250705   0.667   7.695   4.702  0.2666  0.3162 -0.8467
16422SOL     OW50706   6.423   2.934   1.373  0.3756 -0.2457  0.0832
16422SOL    HW150707   6.513   2.964   1.380  0.2778  0.2058 -0.5063
16422SOL    HW250708   6.429   2.839   1.366  0.6312 -0.5997  3.3495
16423SOL     OW50709   6.737   2.062   2.591  0.1616 -0.1316 -0.0957
16423SOL    HW150710   6.781   2.136   2.549 -0.0500  0.3525  0.5365
16423SOL    HW250711   6.724   2.089   2.682 -2.9997  0.4632 -0.6022
16424SOL     OW50712   0.152   2.574   7.736 -0.1946  0.5334 -0.3396
16424SOL    HW150713   0.149   2.515   7.811 -2.9503  0.8582 -0.1213
16424SOL    HW250714   0.122   2.658   7.770 -1.3005  0.7399 -1.7461
16425SOL     OW50715   7.341   7.355  12.027 -0.3255  0.0031 -0.4441
16425SOL    HW150716   7.333   7.340  11.933 -0.4875  1.0492 -0.6058
16425SOL    HW250717   7.322   7.269  12.066  1.7831 -0.9897 -1.4203
16426SOL     OW50718   1.654   5.007   1.317 -0.0772  0.0207 -0.0693
16426SOL    HW150719   1.737   5.006   1.269 -0.4244 -1.7222 -0.7058
16426SOL    HW250720   1.589   5.030   1.252 -0.3819 -1.0232 -0.1507
16427SOL     OW50721   0.843   5.498   2.844  0.2034  0.2930 -0.1939
16427SOL    HW150722   0.755   5.508   2.807  0.4168 -0.3819 -0.8928
16427SOL    HW250723   0.893   5.452   2.777  1.0199  0.4182  0.3143
16428SOL     OW50724   3.890   6.263  12.478 -0.3163 -0.3659  0.4346
16428SOL    HW150725   3.859   6.238  12.391  1.5317  0.4103 -0.5159
16428SOL    HW250726   3.936   6.186  12.511  1.4837  0.2253 -0.5659
16429SOL     OW50727   5.558   6.491   1.478 -0.6797  0.1868  0.3271
16429SOL    HW150728   5.507   6.414   1.455 -2.1877  0.7208  1.7049
16429SOL    HW250729   5.621   6.500   1.406 -2.1735 -0.7978 -1.1987
16430SOL     OW50730   5.261   4.042   8.705  0.0574  0.3748  0.5025
16430SOL    HW150731   5.225   4.119   8.660 -0.0832 -0.1303 -0.2572
16430SOL    HW250732   5.185   3.989   8.727  0.1780  0.3223  0.8088
16431SOL     OW50733   3.455   7.603   4.822 -0.4951  0.0488  0.1605
16431SOL    HW150734   3.406   7.552   4.758 -0.1444 -1.0393  0.7258
16431SOL    HW250735   3.463   7.545   4.898  0.6225  0.6425  0.5272
16432SOL     OW50736   4.667   0.628   7.211 -0.1508 -0.8874 -0.3265
16432SOL    HW150737   4.734   0.661   7.151  0.4470 -1.0809  0.2300
16432SOL    HW250738   4.709   0.627   7.297 -1.7175  1.6525  0.5937
16433SOL     OW50739   6.172   0.258  11.217  0.3903 -0.0014  0.0222
16433SOL    HW150740   6.203   0.246  11.307  0.2045 -0.8127 -0.0166
16433SOL    HW250741   6.190   0.350  11.198  0.5159  0.1566  0.8561
16434SOL     OW50742   2.662   1.108   8.845  0.2249 -0.4781  0.2289
16434SOL    HW150743   2.642   1.078   8.756 -2.2157  1.6165 -0.0149
16434SOL    HW250744   2.596   1.066   8.900  1.6249 -1.6352  1.1062
16435SOL     OW50745   4.886   0.596  10.068 -0.0770  0.0812  0.5631
16435SOL    HW150746   4.969   0.599  10.021 -0.2267  0.5043  0.3093
16435SOL    HW250747   4.828   0.546  10.011 -0.0065 -0.1734  0.7173
16436SOL     OW50748   0.575   7.434   2.094  0.3709  0.1461 -0.5823
16436SOL    HW150749   0.670   7.437   2.091  0.3764 -0.4439 -1.5817
16436SOL    HW250750   0.548   7.463   2.007 -0.3820  0.7147 -0.1745
16437SOL     OW50751   3.716   0.924   1.153  0.8232 -0.5977 -0.6061
16437SOL    HW150752   3.685   0.834   1.156 -0.4439 -0.1773 -0.5209
16437SOL    HW250753   3.643   0.973   1.114  1.0819  0.5527  0.3121
16438SOL     OW50754   4.581   0.308   4.518 -0.4448 -0.0691 -0.6383
16438SOL    HW150755   4.619   0.298   4.431  1.2555  0.9838 -0.0676
16438SOL    HW250756   4.625   0.241   4.571  0.6027  1.0761  0.0013
16439SOL     OW50757   3.270   6.992  10.473  0.0534 -0.4690  0.4566
16439SOL    HW150758   3.184   7.011  10.512  0.2978  0.6855  0.4769
16439SOL    HW250759   3.332   7.038  10.529  0.5200  0.1424 -0.5274
16440SOL     OW50760   3.934   7.985   4.922  0.0479 -0.2295 -0.5093
16440SOL    HW150761   3.988   8.048   4.970  0.7736 -0.1827 -1.3494
16440SOL    HW250762   3.965   7.899   4.951 -1.3756 -0.2464  1.1173
16441SOL     OW50763   1.461   6.610   0.140  0.0608 -0.2532  0.4538
16441SOL    HW150764   1.442   6.522   0.170  0.1600 -1.5683 -2.9024
16441SOL    HW250765   1.555   6.610   0.123  0.2329  0.8383  1.3095
16442SOL     OW50766   6.646   7.543  10.445  0.3308  0.1200 -0.0924
16442SOL    HW150767   6.628   7.531  10.539 -0.5876 -0.5316 -0.3350
16442SOL    HW250768   6.648   7.453  10.410  1.6526  0.2999 -0.5315
16443SOL     OW50769   5.877   5.621   5.533 -0.0814  0.3477 -0.6167
16443SOL    HW150770   5.852   5.630   5.441 -0.6809  2.5237 -0.3056
16443SOL    HW250771   5.972   5.634   5.534 -0.0119 -0.0980 -0.9553
16444SOL     OW50772   0.791   3.151   8.282  0.2842 -0.3142  0.3654
16444SOL    HW150773   0.830   3.226   8.327 -0.1116 -0.3722  0.8119
16444SOL    HW250774   0.724   3.190   8.226  1.0546 -0.1997 -0.5143
16445SOL     OW50775   3.814   7.356   7.392 -0.2202  0.2177  0.0019
16445SOL    HW150776   3.868   7.319   7.323 -0.1603  2.4735 -1.2380
16445SOL    HW250777   3.839   7.307   7.471  0.3537 -1.8054 -1.3557
16446SOL     OW50778   0.183   6.401   0.777  0.0956 -0.5947 -0.4915
16446SOL    HW150779   0.210   6.309   0.780  0.9923 -0.4573 -2.4721
16446SOL    HW250780   0.094   6.398   0.742 -0.1111 -0.7393  0.0425
16447SOL     OW50781   7.986   0.923  11.825  0.0644 -0.2257  0.2409
16447SOL    HW150782   8.006   1.016  11.809  1.7789 -0.3871  1.1486
16447SOL    HW250783   7.989   0.883  11.738  0.9111  0.3092  0.0116
16448SOL     OW50784   5.267   5.856   5.045 -0.2661  0.0390  0.6159
16448SOL    HW150785   5.238   5.805   5.121 -1.0909 -0.2621  0.1140
16448SOL    HW250786   5.320   5.795   4.993  1.1660  0.5381  1.4441
16449SOL     OW50787   5.174   7.774   1.363  0.1746  0.2624 -0.0802
16449SOL    HW150788   5.151   7.685   1.389 -1.4046 -0.1218 -2.5217
16449SOL    HW250789   5.263   7.767   1.330 -0.5662 -0.8480 -1.9560
16450SOL     OW50790   1.192   2.100   9.946 -0.1142  0.5779 -0.5773
16450SOL    HW150791   1.283   2.109   9.976  0.2178 -1.0303 -0.9989
16450SOL    HW250792   1.143   2.162  10.000  0.7343 -0.8631  2.0591
16451SOL     OW50793   5.122   2.658   9.329  0.7766  0.4506 -0.0931
16451SOL    HW150794   5.185   2.598   9.289  0.1385 -1.0233  1.0345
16451SOL    HW250795   5.038   2.634   9.291  0.5168  0.6343  0.3563
16452SOL     OW50796   4.732   7.861   8.979 -0.7061  0.0633  0.3934
16452SOL    HW150797   4.652   7.884   8.933 -1.2595 -2.5892 -0.1259
16452SOL    HW250798   4.799   7.918   8.940 -1.8937  0.6688 -0.8446
16453SOL     OW50799   4.521   3.834   1.653  0.1803  0.2700 -0.5840
16453SOL    HW150800   4.448   3.895   1.654 -0.8236 -0.8934 -0.1582
16453SOL    HW250801   4.505   3.778   1.577  1.8270  1.3420 -1.7993
16454SOL     OW50802   7.948   3.929   5.207  0.3280 -0.5903 -0.0011
16454SOL    HW150803   7.941   3.913   5.113 -2.4638  0.5820 -0.0989
16454SOL    HW250804   7.901   4.011   5.220  1.7175 -0.0918  2.2828
16455SOL     OW50805   4.914   3.727   4.181 -0.0057 -0.0372  0.5302
16455SOL    HW150806   4.885   3.792   4.117  1.5948 -0.6325 -0.8615
16455SOL    HW250807   4.890   3.765   4.266 -1.6407  1.0423 -0.3550
16456SOL     OW50808   1.729   1.398   5.986  0.0581 -0.2233 -0.0225
16456SOL    HW150809   1.694   1.478   5.946 -0.1382  0.2553  1.0555
16456SOL    HW250810   1.653   1.357   6.028  0.4457 -0.1294  0.7868
16457SOL     OW50811   7.178   2.209  10.068  0.0562 -0.1388  0.2317
16457SOL    HW150812   7.217   2.189  10.152 -1.9664  0.4823  1.4003
16457SOL    HW250813   7.087   2.233  10.089  0.0234  1.9920 -1.8821
16458SOL     OW50814   0.545   1.304   0.044  0.2406 -0.6096  0.4350
16458SOL    HW150815   0.605   1.365   0.000 -0.8875  0.0078 -0.3360
16458SOL    HW250816   0.482   1.281  -0.024 -0.8092 -0.6594  1.3987
16459SOL     OW50817   3.040   4.846   8.979  0.3839 -0.2114 -0.0722
16459SOL    HW150818   3.066   4.847   8.887 -2.0147  2.5947 -0.8519
16459SOL    HW250819   3.088   4.920   9.018 -0.8105  0.4445  0.1925
16460SOL     OW50820   5.306   6.277   2.133 -0.5351 -0.2306  0.0922
16460SOL    HW150821   5.291   6.205   2.071 -0.6912 -0.6186  0.5726
16460SOL    HW250822   5.397   6.301   2.120 -0.6070 -0.2076 -0.3942
16461SOL     OW50823   2.031   4.115  11.135 -0.1111 -0.1695 -0.1023
16461SOL    HW150824   2.089   4.084  11.065  0.9605 -2.0168  1.5164
16461SOL    HW250825   2.081   4.184  11.179 -0.0709 -0.2055 -0.0912
16462SOL     OW50826   0.084   7.841   0.039 -0.0522  0.4638 -0.1234
16462SOL    HW150827   0.065   7.909  -0.025 -0.1032 -1.0593 -1.8408
16462SOL    HW250828   0.161   7.796   0.003 -0.1982 -0.5637  0.7923
16463SOL     OW50829   0.709   0.207   9.312  0.7069  0.8700  0.2628
16463SOL    HW150830   0.662   0.144   9.366  1.9988  0.4614  0.9697
16463SOL    HW250831   0.763   0.256   9.374  1.3107  1.2130 -0.5121
16464SOL     OW50832   5.165   5.800   1.332 -0.3580 -0.4482  0.1808
16464SOL    HW150833   5.130   5.711   1.325 -2.3961  0.3717 -1.0996
16464SOL    HW250834   5.089   5.854   1.357  0.5891  1.0651 -0.0430
16465SOL     OW50835   5.529   1.918   1.200 -1.0121  0.2045 -0.3217
16465SOL    HW150836   5.527   1.966   1.117  0.2616  0.8858  0.0278
16465SOL    HW250837   5.543   1.985   1.266  1.8254 -0.6917  0.0989
16466SOL     OW50838   4.286   0.366   5.104 -0.2516 -0.4054  0.0513
16466SOL    HW150839   4.358   0.369   5.042  0.4684 -0.4385  0.8630
16466SOL    HW250840   4.292   0.448   5.153 -2.4277  0.8539 -1.6533
16467SOL     OW50841   4.949   7.757   5.570 -0.5452 -0.2045  0.2476
16467SOL    HW150842   4.921   7.732   5.658 -0.8061  0.2683  0.3014
16467SOL    HW250843   5.008   7.831   5.584  0.0611 -0.6386  0.0736
16468SOL     OW50844   7.020   7.670   9.091  0.0869  0.5053  0.2917
16468SOL    HW150845   7.004   7.680   9.185  0.7597 -0.4115  0.5196
16468SOL    HW250846   7.044   7.758   9.062 -1.5567  1.1187  0.6641
16469SOL     OW50847   3.711   5.517   8.015  0.1012  0.0802 -0.2988
16469SOL    HW150848   3.737   5.452   8.081 -1.1404  0.4951  0.6265
16469SOL    HW250849   3.765   5.496   7.939  0.2321 -1.5926  0.2143
16470SOL     OW50850   3.254   2.473   6.170  0.1751 -0.0215  0.3171
16470SOL    HW150851   3.227   2.444   6.083 -1.9165 -0.3631  1.0195
16470SOL    HW250852   3.306   2.551   6.154 -1.4620  0.8279 -1.2045
16471SOL     OW50853   6.636   5.536   0.210  0.5690 -0.2443 -0.1472
16471SOL    HW150854   6.713   5.527   0.153  0.8942 -0.2628  0.2856
16471SOL    HW250855   6.580   5.462   0.187  0.5470 -0.0680 -0.6717
16472SOL     OW50856   3.910   6.648   9.354  0.1579 -0.0174  0.0143
16472SOL    HW150857   3.890   6.557   9.377 -0.1280 -0.1930 -0.8640
16472SOL    HW250858   3.829   6.696   9.373 -0.6214 -0.4361 -1.9851
16473SOL     OW50859   4.119   6.035   4.167  0.2338 -0.2211  0.2195
16473SOL    HW150860   4.107   5.965   4.232 -1.2372  0.4903  0.7524
16473SOL    HW250861   4.212   6.058   4.174  0.5943 -1.6509  0.5031
16474SOL     OW50862   1.803   6.401   1.087 -0.4210  0.1883 -0.1014
16474SOL    HW150863   1.874   6.464   1.102  1.0578 -1.2248 -0.9020
16474SOL    HW250864   1.827   6.324   1.138 -1.2831 -0.3936 -0.5380
16475SOL     OW50865   0.423   1.604   0.513 -0.7705  0.0996 -0.6168
16475SOL    HW150866   0.452   1.659   0.440 -1.2633  1.1900 -0.0151
16475SOL    HW250867   0.496   1.607   0.575 -1.5120  1.6786  0.2597
16476SOL     OW50868   4.724   2.354   7.924  0.0201 -0.4017  0.1013
16476SOL    HW150869   4.817   2.367   7.938 -0.1114  1.0102 -0.1951
16476SOL    HW250870   4.709   2.262   7.945  1.2778 -0.3868  1.1816
16477SOL     OW50871   1.347   5.988   8.192 -0.3585 -0.2779  0.1538
16477SOL    HW150872   1.371   5.897   8.174 -1.7441 -0.6666  0.1331
16477SOL    HW250873   1.252   5.990   8.182 -0.2643  1.3800 -0.6958
16478SOL     OW50874   6.112   5.606   3.266  0.1114  0.3526 -0.1564
16478SOL    HW150875   6.036   5.552   3.246  0.4637  0.1567 -0.9680
16478SOL    HW250876   6.186   5.545   3.269  0.2649  0.5617  0.4902
16479SOL     OW50877   7.617   0.698  10.571  0.4666  0.4955 -0.3912
16479SOL    HW150878   7.522   0.696  10.574  0.4787  0.7519  0.3993
16479SOL    HW250879   7.642   0.770  10.630  1.1668  0.0055 -0.0715
16480SOL     OW50880   7.623   2.720   0.916 -0.6870  0.5587 -0.5194
16480SOL    HW150881   7.680   2.763   0.853 -1.2068  0.4188 -1.0987
16480SOL    HW250882   7.670   2.726   0.999  0.7928 -0.7226 -1.2066
16481SOL     OW50883   3.564   0.684   6.635  0.1136 -0.4923 -0.2813
16481SOL    HW150884   3.621   0.757   6.656 -2.1594  1.6294 -0.9490
16481SOL    HW250885   3.543   0.644   6.719  0.0523  0.7330  0.3036
16482SOL     OW50886   3.592   0.335   4.552  0.2132  0.5448  0.1928
16482SOL    HW150887   3.545   0.387   4.487 -0.5538 -0.2683  0.0712
16482SOL    HW250888   3.557   0.246   4.542  2.9655 -0.5106 -1.0423
16483SOL     OW50889   5.715   0.849   2.293  0.1476  0.7417 -0.0715
16483SOL    HW150890   5.692   0.785   2.225 -0.6500  0.4684  0.4419
16483SOL    HW250891   5.691   0.806   2.375 -0.4063  1.7088  0.2814
16484SOL     OW50892   0.854   7.942   4.712 -0.9019  0.3608  0.6177
16484SOL    HW150893   0.846   8.037   4.701 -0.8343  0.3610  0.5753
16484SOL    HW250894   0.856   7.907   4.623  0.9511  0.4638  0.5753
16485SOL     OW50895   0.719   3.608   5.009  0.0133  0.2362 -0.3890
16485SOL    HW150896   0.657   3.642   4.944  0.1590 -1.7285 -1.6265
16485SOL    HW250897   0.667   3.601   5.090 -1.2453 -0.7964 -1.2538
16486SOL     OW50898   6.720   0.792   6.050  0.2528  0.4627 -0.0059
16486SOL    HW150899   6.749   0.881   6.032 -0.7338  0.6305 -0.9003
16486SOL    HW250900   6.635   0.803   6.092 -1.1823 -0.0236 -2.5425
16487SOL     OW50901   0.684   3.073   3.075 -0.2405  0.1997 -0.8362
16487SOL    HW150902   0.646   3.036   3.155 -2.0332 -0.2977 -1.8561
16487SOL    HW250903   0.697   3.165   3.095  0.1543 -0.0853  0.2950
16488SOL     OW50904   3.164   4.949   0.262 -0.5976 -0.0046  0.5344
16488SOL    HW150905   3.208   4.950   0.177 -2.5776 -1.3790 -0.5969
16488SOL    HW250906   3.235   4.935   0.325  0.7672 -0.4396 -1.0193
16489SOL     OW50907   3.675   1.360   6.395  0.1913  1.0739  0.0984
16489SOL    HW150908   3.594   1.407   6.372 -0.4423 -0.2793 -0.5304
16489SOL    HW250909   3.738   1.430   6.413 -0.5027  2.2047 -1.5811
16490SOL     OW50910   6.936   5.614   9.980  0.0925  0.2009  0.7055
16490SOL    HW150911   6.884   5.689   9.951 -1.1135 -0.6620  0.5937
16490SOL    HW250912   6.982   5.586   9.901  0.9732  1.1295  0.8646
16491SOL     OW50913   5.828   2.306   8.611 -0.0120 -0.7422  0.6734
16491SOL    HW150914   5.744   2.340   8.581 -0.2499 -2.7641 -1.1772
16491SOL    HW250915   5.892   2.349   8.555  0.0537 -0.4532  0.9648
16492SOL     OW50916   1.045   4.243   8.222 -0.1148  0.6746 -0.1977
16492SOL    HW150917   0.972   4.305   8.227  0.0669  0.9560 -0.9062
16492SOL    HW250918   1.004   4.157   8.221 -0.4857  0.8462 -1.1556
16493SOL     OW50919   4.834   3.445   9.745 -0.2895 -0.0059  0.3753
16493SOL    HW150920   4.849   3.378   9.812  3.2982 -0.6010 -0.8045
16493SOL    HW250921   4.827   3.396   9.663 -0.2170  0.9049 -0.1929
16494SOL     OW50922   0.209   0.509   3.159 -0.1025 -0.4296  0.2259
16494SOL    HW150923   0.302   0.494   3.172 -0.4142 -3.7276 -0.4459
16494SOL    HW250924   0.200   0.535   3.068  0.1885  0.9096  0.5544
16495SOL     OW50925   1.175   6.139   6.696 -0.7483 -0.5367 -0.5623
16495SOL    HW150926   1.247   6.162   6.755 -0.2152 -1.8751 -0.6540
16495SOL    HW250927   1.146   6.053   6.725 -2.8999  0.3005 -0.0088
16496SOL     OW50928   4.445   5.392   2.993  0.0608  0.3231 -0.4293
16496SOL    HW150929   4.483   5.330   3.055 -1.6560 -0.9122 -0.5155
16496SOL    HW250930   4.469   5.478   3.026  1.7121 -0.3493  0.2349
16497SOL     OW50931   0.907   6.810  11.257  0.3128 -0.3837  0.3089
16497SOL    HW150932   0.891   6.807  11.163 -0.7593 -0.8144  0.4955
16497SOL    HW250933   1.000   6.832  11.265  0.5511 -0.9188 -0.8451
16498SOL     OW50934   1.394   5.732   8.122  0.1673  0.1216 -0.0576
16498SOL    HW150935   1.476   5.709   8.078 -0.1251  0.4205 -0.7814
16498SOL    HW250936   1.328   5.679   8.078  0.0569 -0.5885  0.9514
16499SOL     OW50937   4.415   0.884   3.708 -0.2940  0.3617  0.8279
16499SOL    HW150938   4.479   0.920   3.647 -1.3936 -0.2755 -0.7669
16499SOL    HW250939   4.467   0.851   3.781  1.1813 -0.0440 -0.3665
16500SOL     OW50940   6.663   2.951   9.392  0.5254  0.0659 -0.2683
16500SOL    HW150941   6.710   2.894   9.330  1.0113 -2.1917  1.9885
16500SOL    HW250942   6.732   3.003   9.433  0.4017  0.4562 -0.5574
16501SOL     OW50943   4.012   1.301   2.647 -0.2589  0.6175  0.1813
16501SOL    HW150944   4.058   1.382   2.624  1.8796 -1.1657 -2.5815
16501SOL    HW250945   4.059   1.268   2.724  1.0508  0.4625 -0.6423
16502SOL     OW50946   2.452   7.101   1.990  0.4104  0.4198 -0.1942
16502SOL    HW150947   2.364   7.070   1.969 -0.2949  2.0324  0.2628
16502SOL    HW250948   2.467   7.069   2.079 -0.1733  1.0630  0.1463
16503SOL     OW50949   1.255   4.779  10.733  0.8391 -0.4033 -0.2751
16503SOL    HW150950   1.272   4.870  10.757  1.9844 -0.7195  0.1622
16503SOL    HW250951   1.331   4.731  10.766  0.2910 -1.5056 -0.5861
16504SOL     OW50952   2.086   0.163   3.095  0.7275  0.5603 -0.2788
16504SOL    HW150953   2.053   0.103   3.029 -0.0157  0.7579 -0.0883
16504SOL    HW250954   2.177   0.135   3.109  0.6175 -0.0424 -0.7313
16505SOL     OW50955   5.750   4.287   0.396 -0.4400  0.4988  0.6208
16505SOL    HW150956   5.731   4.201   0.358 -0.1512  0.3600  0.7859
16505SOL    HW250957   5.748   4.273   0.490  1.0138  0.3459  0.6548
16506SOL     OW50958   4.528   0.259   9.319 -0.3983  0.1199  0.0586
16506SOL    HW150959   4.620   0.245   9.344 -0.3221 -0.3541 -0.4664
16506SOL    HW250960   4.491   0.309   9.392  0.9897  2.9149 -0.9892
16507SOL     OW50961   4.196   6.285   6.150 -0.0782  0.7268  0.0452
16507SOL    HW150962   4.184   6.265   6.243  0.6535  0.6606  0.1285
16507SOL    HW250963   4.284   6.321   6.144  0.4820 -0.6889 -0.8370
16508SOL     OW50964   1.667   1.256  11.818  0.5282 -0.7938  0.0567
16508SOL    HW150965   1.729   1.274  11.748  0.3505  0.4086  0.1838
16508SOL    HW250966   1.601   1.325  11.810 -0.2499 -1.4531  0.5493
16509SOL     OW50967   2.821   2.147   0.049  0.3198 -0.1147  0.2350
16509SOL    HW150968   2.877   2.096  -0.009  0.5987  1.2730 -0.7702
16509SOL    HW250969   2.774   2.207  -0.009 -0.5486  0.2702  1.2940
16510SOL     OW50970   4.984   0.537   2.988 -0.5576 -0.0390 -0.3538
16510SOL    HW150971   5.038   0.459   2.982 -0.4638 -0.1308  1.1725
16510SOL    HW250972   4.919   0.516   3.056 -0.9477  0.9571 -0.4005
16511SOL     OW50973   1.189   4.604   1.299  0.4422  0.3765 -0.3046
16511SOL    HW150974   1.135   4.603   1.378  1.6605  0.6736  0.5541
16511SOL    HW250975   1.202   4.697   1.280  0.1683  0.3058 -0.8515
16512SOL     OW50976   3.899   2.837   0.592  0.0289  0.0621 -0.0779
16512SOL    HW150977   3.955   2.823   0.669 -0.2767 -0.9809 -0.0356
16512SOL    HW250978   3.857   2.921   0.608  0.5897  0.2349  0.5133
16513SOL     OW50979   1.342   7.035   7.981  0.1270 -0.1542 -0.1158
16513SOL    HW150980   1.313   6.948   7.955  1.8171 -0.1372 -2.3219
16513SOL    HW250981   1.316   7.092   7.909 -0.7204  1.1719  1.1724
16514SOL     OW50982   1.143   7.082   2.859 -0.4794 -0.7686 -0.1503
16514SOL    HW150983   1.107   6.995   2.872  0.5331 -1.3170 -0.8532
16514SOL    HW250984   1.127   7.127   2.942  0.7448 -2.2784  0.9756
16515SOL     OW50985   1.921   5.537   5.515  0.6746  0.1244 -0.3578
16515SOL    HW150986   1.943   5.444   5.512  1.6032  0.2991  0.5310
16515SOL    HW250987   2.005   5.582   5.519  0.2469  0.8792  1.6679
16516SOL     OW50988   7.461   1.787   3.604 -0.1673 -0.0258  0.4796
16516SOL    HW150989   7.367   1.772   3.605 -0.4145  1.1032 -1.4943
16516SOL    HW250990   7.471   1.878   3.575  1.5306 -0.0396  0.8831
16517SOL     OW50991   1.536   0.564   1.746 -0.2092 -0.0623  0.1539
16517SOL    HW150992   1.606   0.540   1.806 -0.0492 -0.6501 -0.2538
16517SOL    HW250993   1.458   0.521   1.782 -0.2962  0.3206  0.4269
16518SOL     OW50994   0.827   4.993  11.700 -0.0588 -0.5343  0.4389
16518SOL    HW150995   0.828   5.072  11.755 -0.4481 -0.3892  0.2408
16518SOL    HW250996   0.830   5.027  11.611  2.7223 -0.7943  0.3482
16519SOL     OW50997   1.352   0.276   5.840  0.1986  0.7314  0.4312
16519SOL    HW150998   1.318   0.364   5.855 -1.1384  0.4319 -0.6747
16519SOL    HW250999   1.307   0.221   5.904 -1.3182  0.3712 -0.8903
16520SOL     OW51000   6.870   3.018   6.583  0.6426 -0.4004 -0.6353
16520SOL    HW151001   6.807   2.946   6.595  0.9179 -0.7064 -0.9867
16520SOL    HW251002   6.824   3.080   6.525  0.9866 -1.0559 -1.6446
16521SOL     OW51003   2.012   4.232   1.538  0.4849 -0.0318  0.0179
16521SOL    HW151004   2.094   4.229   1.488  0.6608  1.1609  0.2071
16521SOL    HW251005   1.959   4.296   1.492  0.5018  0.8102  1.1433
16522SOL     OW51006   0.148   2.607   3.840  0.2868 -0.3646  0.2297
16522SOL    HW151007   0.156   2.660   3.761 -0.8470 -0.3809  0.0881
16522SOL    HW251008   0.196   2.656   3.907 -0.6247  0.7677  0.0645
16523SOL     OW51009   7.179   6.827   7.419 -0.5926 -0.5011 -0.0730
16523SOL    HW151010   7.110   6.889   7.396  1.2634  1.6516 -0.2349
16523SOL    HW251011   7.227   6.814   7.337  0.8591  0.3191  0.6072
16524SOL     OW51012   2.019   1.822   0.559  0.2640  0.4030 -0.5874
16524SOL    HW151013   2.042   1.892   0.621  0.3084 -0.0575 -0.0802
16524SOL    HW251014   1.956   1.863   0.500  0.3508  0.9016 -0.3453
16525SOL     OW51015   4.143   7.172   9.511  0.2357  0.2309  0.0863
16525SOL    HW151016   4.219   7.189   9.567 -1.5108  1.0892  2.3329
16525SOL    HW251017   4.110   7.087   9.539  0.7945 -0.5247 -1.4533
16526SOL     OW51018   7.282   6.463   4.303  0.1056 -0.1736  0.2077
16526SOL    HW151019   7.330   6.502   4.376 -1.6164  1.2978  0.6254
16526SOL    HW251020   7.331   6.489   4.225 -1.1251  3.2825  0.4324
16527SOL     OW51021   1.688   6.902   6.183  0.1430 -0.7593  0.1886
16527SOL    HW151022   1.649   6.987   6.161  0.5589 -0.6643 -0.2051
16527SOL    HW251023   1.640   6.873   6.261  0.2213 -0.0041  0.5322
16528SOL     OW51024   7.118   3.387   7.885 -0.2130  0.3671  0.4876
16528SOL    HW151025   7.178   3.347   7.948 -1.2574 -0.1239  1.1984
16528SOL    HW251026   7.032   3.382   7.927 -1.5090 -2.6875 -2.1237
16529SOL     OW51027   1.319   5.826   5.194  0.1996  0.0787 -0.3085
16529SOL    HW151028   1.280   5.845   5.279  0.8801 -0.0811  0.0492
16529SOL    HW251029   1.251   5.848   5.131 -0.7167 -0.8556  0.3209
16530SOL     OW51030   3.387   5.555   5.805 -0.5845  0.0227  0.1165
16530SOL    HW151031   3.295   5.547   5.780 -0.7930  0.4004  0.7198
16530SOL    HW251032   3.388   5.531   5.898 -0.1672  0.5357  0.2490
16531SOL     OW51033   7.592   5.812   3.771 -0.5470  0.4577 -0.4647
16531SOL    HW151034   7.531   5.814   3.844  0.1025  2.0159  0.0626
16531SOL    HW251035   7.626   5.901   3.764  1.6841 -0.3325 -0.7109
16532SOL     OW51036   2.484   0.383  12.432 -0.5759  0.1846  0.1553
16532SOL    HW151037   2.534   0.410  12.354  0.7616 -0.7130  0.6551
16532SOL    HW251038   2.426   0.457  12.450 -0.0984  0.8820 -1.0268
16533SOL     OW51039   5.870   5.005   3.171 -0.0683 -0.2446  0.5303
16533SOL    HW151040   5.802   4.938   3.176 -1.9464  1.5203  0.0702
16533SOL    HW251041   5.859   5.044   3.084  0.2300  1.3726  1.1696
16534SOL     OW51042   3.223   7.405   6.902  0.0737  0.0284  0.3550
16534SOL    HW151043   3.214   7.436   6.812  0.2587 -0.9068 -0.0073
16534SOL    HW251044   3.155   7.451   6.950  1.0326  1.8072  0.1027
16535SOL     OW51045   0.504   3.527   7.477  0.0644  0.2364  0.2369
16535SOL    HW151046   0.527   3.572   7.395 -0.3428  0.5175  0.2730
16535SOL    HW251047   0.587   3.514   7.522  0.0724  2.1656  0.8452
16536SOL     OW51048   3.560   6.875   7.241 -0.0933  0.2222  0.0148
16536SOL    HW151049   3.506   6.914   7.172 -0.4155  0.5510  0.4488
16536SOL    HW251050   3.507   6.804   7.277 -0.2177  0.5148  0.4101
16537SOL     OW51051   2.451   3.808   9.552 -0.2304  0.0042 -0.0052
16537SOL    HW151052   2.392   3.860   9.496 -0.6668 -0.6901 -0.2113
16537SOL    HW251053   2.497   3.872   9.605  0.9908  0.7776 -1.9002
16538SOL     OW51054   1.281   2.106   6.178 -0.0116  0.4154  0.2271
16538SOL    HW151055   1.289   2.020   6.138 -1.3275  0.1286  0.5060
16538SOL    HW251056   1.366   2.147   6.166 -0.5375  0.7503 -3.6967
16539SOL     OW51057   5.524   7.296   2.381 -0.1942  0.2919  0.2206
16539SOL    HW151058   5.590   7.290   2.312 -2.0336 -0.1175 -1.5882
16539SOL    HW251059   5.480   7.380   2.366 -1.2318 -0.2211  0.2895
16540SOL     OW51060   0.384   2.733   3.982 -0.1732 -0.2527 -0.1237
16540SOL    HW151061   0.441   2.659   3.999  0.9374  0.5605 -0.1778
16540SOL    HW251062   0.429   2.808   4.020 -1.9828  0.2089  1.2780
16541SOL     OW51063   6.479   6.065   9.848 -0.1647 -0.2536 -0.7764
16541SOL    HW151064   6.481   6.131   9.918  4.0943  1.2163 -1.9856
16541SOL    HW251065   6.431   6.107   9.777 -0.7228  0.0087 -0.2543
16542SOL     OW51066   4.875   4.628   4.070  0.0100  0.3306  0.1444
16542SOL    HW151067   4.845   4.633   3.979  1.6688 -0.1328 -0.4621
16542SOL    HW251068   4.910   4.715   4.089  0.9255  0.0377 -0.1454
16543SOL     OW51069   3.688   3.553   2.540  0.3521  0.1684  0.0117
16543SOL    HW151070   3.773   3.593   2.521  1.0161 -1.7020 -1.1565
16543SOL    HW251071   3.646   3.545   2.455 -0.7413  0.4571  0.5064
16544SOL     OW51072   0.928   0.720   0.994  0.4701 -0.1103 -0.2711
16544SOL    HW151073   1.010   0.768   1.005  0.4275 -0.1553  0.3196
16544SOL    HW251074   0.864   0.787   0.969 -0.4549  0.9975  4.0686
16545SOL     OW51075   7.070   7.646   7.616 -0.0850 -0.1357 -0.0712
16545SOL    HW151076   7.071   7.615   7.526  1.3642  0.5694 -0.3324
16545SOL    HW251077   7.126   7.584   7.663  0.2064  0.2265  0.0665
16546SOL     OW51078   3.241   7.328   1.973 -0.2706  0.5363  0.0385
16546SOL    HW151079   3.263   7.334   1.880 -0.4131 -0.8706 -0.1069
16546SOL    HW251080   3.294   7.396   2.014  1.2411 -0.0635 -0.8416
16547SOL     OW51081   3.923   5.614   1.337 -0.0465  0.1099 -0.2743
16547SOL    HW151082   3.854   5.678   1.320  1.5009  2.4097  1.5131
16547SOL    HW251083   3.882   5.550   1.396 -1.3572 -0.1245 -1.3728
16548SOL     OW51084   1.441   0.020   7.549 -0.2674 -0.4026 -0.0723
16548SOL    HW151085   1.444  -0.037   7.472  2.0508 -0.6860  0.1406
16548SOL    HW251086   1.486   0.100   7.521  1.5847 -0.9249  1.2470
16549SOL     OW51087   6.838   0.605  11.233 -0.6672  0.3547  0.1540
16549SOL    HW151088   6.834   0.685  11.286 -2.1027  1.5474 -1.6325
16549SOL    HW251089   6.841   0.637  11.143  1.5237 -1.5979 -0.5731
16550SOL     OW51090   5.322   0.528   7.477 -0.2651 -0.2364  0.0567
16550SOL    HW151091   5.354   0.614   7.451  1.0378 -0.3475  1.1586
16550SOL    HW251092   5.345   0.471   7.404  2.2343 -0.3181  0.8244
16551SOL     OW51093   5.477   2.586   7.704  0.5836  0.5656  0.0352
16551SOL    HW151094   5.429   2.622   7.629  1.6528  1.0701 -0.4236
16551SOL    HW251095   5.418   2.520   7.741 -1.0809  2.1374  0.3518
16552SOL     OW51096   5.212   1.637   1.858 -0.0089 -0.2480 -0.7751
16552SOL    HW151097   5.200   1.687   1.778  1.3114  0.8155 -0.3490
16552SOL    HW251098   5.201   1.546   1.831 -1.7983  0.1973 -1.6982
16553SOL     OW51099   0.401   7.140   5.164  0.1054 -0.4136 -0.3308
16553SOL    HW151100   0.318   7.116   5.122 -0.4055  1.3069 -0.3687
16553SOL    HW251101   0.468   7.100   5.109 -0.6320 -0.0976 -1.4871
16554SOL     OW51102   3.102   7.267   3.587  0.2267 -0.4531  0.6640
16554SOL    HW151103   3.157   7.229   3.655  1.9863  0.3799 -0.1943
16554SOL    HW251104   3.138   7.356   3.575  0.2957 -0.7146 -1.6016
16555SOL     OW51105   7.755   4.503   3.364 -0.5212 -0.1232 -0.3945
16555SOL    HW151106   7.773   4.437   3.297  1.8435 -0.1539  0.1865
16555SOL    HW251107   7.682   4.466   3.414 -1.4558 -0.7041 -2.0999
16556SOL     OW51108   0.362   3.625  11.370  0.2307  0.0742  0.4592
16556SOL    HW151109   0.296   3.633  11.301  0.1474  0.3960  0.5746
16556SOL    HW251110   0.369   3.713  11.407 -0.3402 -0.2753  1.4265
16557SOL     OW51111   0.973   0.627   4.255  0.1805 -0.1685 -0.5490
16557SOL    HW151112   1.057   0.672   4.248  0.6088 -0.9122 -0.3013
16557SOL    HW251113   0.945   0.642   4.345  1.5540 -2.4581  0.3556
16558SOL     OW51114   1.939   5.987   7.086 -0.4677  0.0905  0.1125
16558SOL    HW151115   1.932   6.060   7.148 -0.7660 -0.6747  1.0106
16558SOL    HW251116   2.032   5.967   7.084 -0.3292  0.7811 -0.4798
16559SOL     OW51117   1.305   5.410   2.210  0.6427  0.0018 -0.3674
16559SOL    HW151118   1.391   5.390   2.245  0.5394 -1.5498 -0.9286
16559SOL    HW251119   1.322   5.440   2.121  0.6161 -0.2159 -0.4469
16560SOL     OW51120   0.592   1.293   8.802  0.7272  0.3650  0.3714
16560SOL    HW151121   0.630   1.206   8.816  1.0117  0.6567  1.4675
16560SOL    HW251122   0.501   1.275   8.777  0.8519 -0.2494  0.3402
16561SOL     OW51123   1.846   3.451   3.570 -0.4722 -0.1411  0.4751
16561SOL    HW151124   1.908   3.460   3.497 -0.0132  0.6128  0.9314
16561SOL    HW251125   1.771   3.405   3.533 -0.9535  1.6178 -0.9339
16562SOL     OW51126   5.539   3.627   4.279 -0.5462 -0.2065 -0.0902
16562SOL    HW151127   5.622   3.670   4.261 -1.2100  0.5013 -1.5855
16562SOL    HW251128   5.537   3.551   4.220 -0.7820 -0.4537  0.2286
16563SOL     OW51129   6.345   6.245   9.673  0.1508  0.1319 -0.0055
16563SOL    HW151130   6.259   6.201   9.670 -0.6190  1.5921 -2.8646
16563SOL    HW251131   6.324   6.338   9.675  1.6426  0.5200 -1.0417
16564SOL     OW51132   6.850   6.940   7.900  0.0246  0.0660 -0.1484
16564SOL    HW151133   6.807   6.898   7.826  1.3787 -0.1433 -0.8451
16564SOL    HW251134   6.805   7.024   7.910  0.4410  0.5119 -1.8271
16565SOL     OW51135   3.775   5.789   5.122 -0.0766 -0.3783 -0.9478
16565SOL    HW151136   3.761   5.786   5.216 -0.4723  0.1730 -0.9870
16565SOL    HW251137   3.790   5.697   5.097  0.6488 -0.4600 -0.2630
16566SOL     OW51138   3.181   3.850   4.033  0.1137 -0.1569 -0.4923
16566SOL    HW151139   3.152   3.766   3.996 -0.0757  0.7335 -2.4688
16566SOL    HW251140   3.238   3.825   4.106  0.7335 -2.0277 -1.5365
16567SOL     OW51141   0.763   2.875   4.001  0.1064 -0.4594 -0.1237
16567SOL    HW151142   0.688   2.932   3.984 -0.1144 -0.1609  1.6405
16567SOL    HW251143   0.757   2.806   3.935 -1.9770 -0.6970  0.2516
16568SOL     OW51144   0.214   5.642   6.928 -0.2118  0.8331  0.3190
16568SOL    HW151145   0.158   5.665   7.002 -0.3113  1.7722 -0.0318
16568SOL    HW251146   0.243   5.552   6.946  0.7680  1.4625  2.1257
16569SOL     OW51147   7.936   2.330  12.376 -0.9263  0.1103  0.1838
16569SOL    HW151148   7.985   2.411  12.366 -0.7085  0.1952  1.7496
16569SOL    HW251149   7.845   2.358  12.386 -0.9556  0.1113 -0.0824
16570SOL     OW51150   6.328   4.587   8.495 -0.4572 -0.5237  0.2069
16570SOL    HW151151   6.281   4.578   8.411 -1.8625 -1.0536  1.0060
16570SOL    HW251152   6.358   4.678   8.496  0.1252 -0.6752 -1.1316
16571SOL     OW51153   1.118   1.393   4.350  0.0535 -0.0165 -0.1416
16571SOL    HW151154   1.114   1.483   4.319 -1.3690 -0.3489 -1.0203
16571SOL    HW251155   1.060   1.391   4.426 -2.1426 -0.7704 -1.7741
16572SOL     OW51156   6.762   2.946   8.620 -0.4020  0.2885  0.0550
16572SOL    HW151157   6.754   2.996   8.701 -1.8375  0.6113 -0.2465
16572SOL    HW251158   6.818   2.999   8.563  0.3511  0.2062  0.7081
16573SOL     OW51159   1.447   5.672   3.490  0.7014 -0.3135  0.1102
16573SOL    HW151160   1.402   5.588   3.497 -0.2385 -0.1295 -2.5727
16573SOL    HW251161   1.376   5.736   3.483  1.3093  1.1214  4.2208
16574SOL     OW51162   1.830   1.867  12.123  0.1230  0.2945  0.7720
16574SOL    HW151163   1.889   1.840  12.052 -0.3426 -2.1189  1.2157
16574SOL    HW251164   1.886   1.868  12.201  0.1106  0.5063  0.7780
16575SOL     OW51165   5.171   7.435   7.791  0.1929  0.2098  0.0914
16575SOL    HW151166   5.140   7.353   7.828 -1.1989  0.4692 -0.4201
16575SOL    HW251167   5.258   7.448   7.828  0.3326 -1.3721  0.3471
16576SOL     OW51168   7.022   2.952   4.128  0.0033  0.1218 -0.1582
16576SOL    HW151169   7.006   2.863   4.161  0.0284 -0.1352 -0.8213
16576SOL    HW251170   6.956   3.006   4.172 -0.0934 -0.2428  0.1540
16577SOL     OW51171   1.937   5.732   3.177 -0.3904 -0.3792 -0.0635
16577SOL    HW151172   2.005   5.695   3.121  0.6245 -0.3319  1.0954
16577SOL    HW251173   1.880   5.658   3.198 -1.9208 -0.0456 -2.6524
16578SOL     OW51174   3.286   2.437   2.088  0.2996 -0.2636  0.3259
16578SOL    HW151175   3.242   2.521   2.102 -0.2220 -0.5169  0.2172
16578SOL    HW251176   3.245   2.402   2.009 -0.5848 -1.3361  1.2339
16579SOL     OW51177   2.692   5.469  10.976  0.4032  0.8471 -0.2272
16579SOL    HW151178   2.700   5.522  11.055 -0.1467 -0.1078  0.4876
16579SOL    HW251179   2.763   5.405  10.982  0.4573  0.8694 -0.5918
16580SOL     OW51180   3.294   3.583   7.119  0.3538 -0.1793  0.0083
16580SOL    HW151181   3.271   3.497   7.152 -2.2246  0.5529  0.3308
16580SOL    HW251182   3.301   3.571   7.024 -1.4857 -0.5002 -0.1236
16581SOL     OW51183   1.007   7.171   8.108 -0.5147 -0.1046  0.0937
16581SOL    HW151184   1.087   7.217   8.084 -0.2397  0.0490  1.2315
16581SOL    HW251185   0.937   7.218   8.061  0.1475 -0.9819 -1.8621
16582SOL     OW51186   1.434   1.534  10.351 -0.3423 -0.2365 -0.2870
16582SOL    HW151187   1.352   1.489  10.333  1.4304 -2.8799 -2.4318
16582SOL    HW251188   1.468   1.560  10.265  1.5718 -0.1676  0.4318
16583SOL     OW51189   6.291   5.020   9.542  0.4893 -0.1216 -0.2253
16583SOL    HW151190   6.312   4.946   9.486  1.5779 -0.7998  1.0099
16583SOL    HW251191   6.340   5.094   9.506  0.1493 -0.2286 -0.9081
16584SOL     OW51192   1.987   0.913   1.421  0.0169 -0.5813  0.0666
16584SOL    HW151193   2.036   0.884   1.498  1.8943  0.1954 -0.7808
16584SOL    HW251194   2.050   0.965   1.371 -1.4682 -0.1988 -1.4782
16585SOL     OW51195   7.815   0.586   6.817  0.2086 -0.2412  0.7598
16585SOL    HW151196   7.817   0.676   6.784 -2.3953 -0.1461  0.6270
16585SOL    HW251197   7.820   0.532   6.738  2.3646 -0.2788  0.8776
16586SOL     OW51198   6.834   5.858   8.369 -0.2673 -0.5329  0.3344
16586SOL    HW151199   6.898   5.902   8.426 -0.9010 -0.1728  0.7855
16586SOL    HW251200   6.876   5.775   8.345 -0.1091 -0.8214  1.5626
16587SOL     OW51201   7.740   5.231   9.435  0.3297 -0.2518 -0.2860
16587SOL    HW151202   7.794   5.219   9.358  2.6340  0.4219  1.1182
16587SOL    HW251203   7.676   5.298   9.410 -0.1762 -1.3793 -2.1279
16588SOL     OW51204   3.208   5.014  10.182  0.5246  0.3275  0.5255
16588SOL    HW151205   3.151   4.937  10.178  1.0776 -0.0528 -0.7207
16588SOL    HW251206   3.154   5.086  10.150  0.9735 -0.2216 -1.6528
16589SOL     OW51207   6.428   0.009   5.474 -0.0795 -0.6893  0.4078
16589SOL    HW151208   6.397  -0.055   5.539 -0.5043 -0.7527  0.1488
16589SOL    HW251209   6.458  -0.043   5.400 -0.0845 -0.6001  0.3423
16590SOL     OW51210   3.644   0.234  12.037  0.3589  0.3269 -0.3399
16590SOL    HW151211   3.557   0.269  12.057  0.1256 -0.0310 -0.7112
16590SOL    HW251212   3.636   0.140  12.055  1.3226  0.5932  1.8455
16591SOL     OW51213   3.392   1.675  12.175 -0.7389  0.0453  0.3170
16591SOL    HW151214   3.313   1.659  12.227  0.5541  1.9772  3.1464
16591SOL    HW251215   3.386   1.768  12.151  0.3397  0.0290 -0.0888
16592SOL     OW51216   0.999   7.726   0.397  0.3455 -0.2094  0.3011
16592SOL    HW151217   0.975   7.674   0.473  1.9954 -0.8666  0.4217
16592SOL    HW251218   1.087   7.757   0.416 -0.5111  2.5376  0.1551
16593SOL     OW51219   6.774   3.784  10.304 -0.0182  0.3604  0.2292
16593SOL    HW151220   6.799   3.795  10.212 -1.0455  0.4547 -0.0534
16593SOL    HW251221   6.848   3.820  10.353  0.5383  0.3310 -0.5532
16594SOL     OW51222   5.158   1.372  10.036  0.3659 -0.1419  0.6421
16594SOL    HW151223   5.177   1.279  10.023 -0.6159 -0.2977  0.2294
16594SOL    HW251224   5.169   1.411   9.950 -0.5383 -0.1329  0.5185
16595SOL     OW51225   2.890   1.760  10.323  0.4395 -0.1228  0.0131
16595SOL    HW151226   2.867   1.827  10.258  0.0320 -0.7888 -0.5440
16595SOL    HW251227   2.888   1.678  10.274  2.4363 -0.4039  0.3269
16596SOL     OW51228   3.826   0.109   7.528 -0.0616 -0.5530 -0.1805
16596SOL    HW151229   3.803   0.018   7.548  1.4045 -1.1595 -1.0761
16596SOL    HW251230   3.874   0.139   7.606 -0.7146 -0.4720  0.1965
16597SOL     OW51231   2.040   6.077   9.373  0.9607  0.3474  0.2942
16597SOL    HW151232   1.999   6.017   9.436 -0.1046 -0.1877 -0.8709
16597SOL    HW251233   2.132   6.081   9.400  0.8200 -0.9589  1.0521
16598SOL     OW51234   2.289   0.049   2.110  0.5648  0.3364  0.3334
16598SOL    HW151235   2.268  -0.032   2.157 -1.9343  0.8504  0.2592
16598SOL    HW251236   2.315   0.020   2.023  2.6048 -0.4837  1.1534
16599SOL     OW51237   3.786   0.986   3.192 -0.2225  0.6538  0.4071
16599SOL    HW151238   3.798   0.896   3.225  0.1426 -1.1108 -3.9009
16599SOL    HW251239   3.692   1.000   3.195 -0.3233 -0.0361  0.7943
16600SOL     OW51240   2.356   5.253   0.674  0.2212  0.4144  0.0804
16600SOL    HW151241   2.329   5.210   0.755  0.2799 -1.1159 -0.6725
16600SOL    HW251242   2.378   5.342   0.700  2.2636 -0.5988  2.1237
16601SOL     OW51243   3.156   2.162   7.829  0.3641  0.3956 -0.6405
16601SOL    HW151244   3.114   2.098   7.771  1.2943 -2.3189  1.4599
16601SOL    HW251245   3.226   2.113   7.872  2.5219  3.4467 -0.3784
16602SOL     OW51246   7.948   6.113   6.352  0.1834  0.3281  0.5093
16602SOL    HW151247   8.038   6.141   6.366 -0.6775  2.6348  1.9663
16602SOL    HW251248   7.902   6.191   6.323 -1.2721 -0.9330 -0.7633
16603SOL     OW51249   6.839   6.954  11.062 -0.2745 -0.8334 -0.1528
16603SOL    HW151250   6.905   6.892  11.092  0.7481 -0.1076 -0.8343
16603SOL    HW251251   6.860   7.036  11.107 -0.2270 -0.3923 -0.9600
16604SOL     OW51252   6.211   7.160   9.151 -0.3721  0.1865 -0.3469
16604SOL    HW151253   6.131   7.186   9.195 -0.1126 -1.3735  1.1714
16604SOL    HW251254   6.184   7.091   9.090 -0.5544  1.5526 -1.8795
16605SOL     OW51255   3.396   1.683   4.831  0.0625 -1.0416  0.6123
16605SOL    HW151256   3.431   1.654   4.747 -0.4059 -2.5751  0.9079
16605SOL    HW251257   3.388   1.778   4.823 -1.7310 -1.3084 -1.7893
16606SOL     OW51258   6.883   6.245  11.695  0.4336  0.5653  0.5445
16606SOL    HW151259   6.816   6.274  11.632 -2.4281 -1.3015  2.5026
16606SOL    HW251260   6.860   6.290  11.776  0.9355 -0.8769  1.5201
16607SOL     OW51261   5.922   7.253   9.756 -0.5498 -0.4950  0.1959
16607SOL    HW151262   5.915   7.322   9.823 -0.7906 -1.0293  0.7352
16607SOL    HW251263   5.839   7.257   9.709 -0.1838  0.2152 -0.4160
16608SOL     OW51264   5.272   7.078   6.967 -0.0744 -0.1023  0.6235
16608SOL    HW151265   5.339   7.084   7.035  0.8392  0.3037 -0.2900
16608SOL    HW251266   5.210   7.147   6.989 -0.5752 -0.9075  1.8591
16609SOL     OW51267   6.019   2.340  11.608 -0.4707 -0.1028  0.6084
16609SOL    HW151268   6.019   2.389  11.525  0.9630  0.3130  0.8254
16609SOL    HW251269   5.992   2.252  11.584 -2.6708  0.6256  0.1339
16610SOL     OW51270   7.681   1.282   7.298 -0.3867 -0.3271 -0.1317
16610SOL    HW151271   7.605   1.280   7.356  0.4535 -0.5011  1.0098
16610SOL    HW251272   7.740   1.347   7.338  0.5201 -0.9739 -0.3833
16611SOL     OW51273   1.180   3.884   3.846  0.3884 -0.1500  0.0490
16611SOL    HW151274   1.178   3.863   3.753 -2.0177 -0.3672  0.0947
16611SOL    HW251275   1.221   3.807   3.886  0.8056 -0.3587 -0.7539
16612SOL     OW51276   1.609   3.772   6.127 -0.2618 -0.3786  0.6696
16612SOL    HW151277   1.570   3.772   6.040  0.5668 -1.1247  0.2755
16612SOL    HW251278   1.698   3.740   6.113 -0.0589 -0.3431  1.7737
16613SOL     OW51279   1.678   1.821   1.807 -0.2738 -0.2274 -0.8514
16613SOL    HW151280   1.625   1.741   1.808  0.9872 -1.1140 -1.6782
16613SOL    HW251281   1.648   1.868   1.729 -1.3882  0.4106 -0.0771
16614SOL     OW51282   6.856   3.985   5.577 -0.3805 -0.6890  0.4663
16614SOL    HW151283   6.841   4.076   5.604  1.7931  0.3822 -1.6011
16614SOL    HW251284   6.949   3.981   5.557 -1.0063 -2.4851 -2.6169
16615SOL     OW51285   6.632   1.245   3.409  0.1544 -0.5143  0.1606
16615SOL    HW151286   6.635   1.243   3.314  1.3360 -1.6122  0.1963
16615SOL    HW251287   6.565   1.310   3.430  1.7921  1.8171 -1.4010
16616SOL     OW51288   4.422   0.524  10.271  0.2462  0.6503  0.2317
16616SOL    HW151289   4.460   0.606  10.238  0.5017  0.7218  0.6980
16616SOL    HW251290   4.465   0.456  10.219 -1.0364  0.8756 -1.1871
16617SOL     OW51291   6.517   4.060   3.433 -0.3503  0.1161 -0.0957
16617SOL    HW151292   6.518   3.988   3.496  1.0032 -1.4644 -1.7834
16617SOL    HW251293   6.569   4.027   3.359 -1.4441  2.0444 -1.8272
16618SOL     OW51294   4.926   5.718   6.723  0.2947  0.8665  0.1390
16618SOL    HW151295   4.836   5.730   6.755 -0.0246  2.1258 -1.1577
16618SOL    HW251296   4.923   5.747   6.632  1.5501 -1.1072 -0.5843
16619SOL     OW51297   2.417   0.288   9.554 -0.4723  0.0968 -0.1677
16619SOL    HW151298   2.483   0.338   9.505 -0.2819  0.3047  0.2986
16619SOL    HW251299   2.447   0.197   9.550 -0.2659  0.1643 -0.1227
16620SOL     OW51300   6.612   3.940  12.331  0.0116 -0.6321 -0.6913
16620SOL    HW151301   6.672   3.938  12.405  0.0325 -0.9153 -0.7173
16620SOL    HW251302   6.606   3.849  12.302  0.0460 -0.5143 -1.0700
16621SOL     OW51303   2.995   3.414   6.034 -0.0852  0.1692  0.0270
16621SOL    HW151304   3.082   3.452   6.026  0.3254 -0.8735 -0.5759
16621SOL    HW251305   2.997   3.368   6.118  0.0765 -0.1853 -0.1709
16622SOL     OW51306   3.277   2.339  11.128 -0.3889  0.0069  0.2453
16622SOL    HW151307   3.304   2.427  11.101 -0.6171  0.2812  0.8941
16622SOL    HW251308   3.343   2.281  11.089 -0.6167  0.4000 -0.7440
16623SOL     OW51309   0.619   0.018   8.271  0.3368 -0.7236 -0.3863
16623SOL    HW151310   0.632   0.093   8.213  0.8821  1.1325  1.9705
16623SOL    HW251311   0.558  -0.038   8.224 -0.7308  1.5861 -1.9476
16624SOL     OW51312   3.859   0.550   2.769 -0.5334  0.4640 -0.2746
16624SOL    HW151313   3.808   0.515   2.842 -0.8459  1.0239 -0.2163
16624SOL    HW251314   3.812   0.521   2.691  0.7686 -1.6586 -0.3537
16625SOL     OW51315   5.916   7.633   7.916 -0.3807  0.3144  0.1417
16625SOL    HW151316   5.992   7.690   7.913  1.1351 -1.6123 -0.1528
16625SOL    HW251317   5.931   7.577   7.992 -1.0712 -0.6425 -0.4084
16626SOL     OW51318   2.812   4.485   3.623 -0.0843  0.1622 -0.5997
16626SOL    HW151319   2.747   4.439   3.676  0.8078  1.0990  1.3838
16626SOL    HW251320   2.768   4.566   3.596 -0.2565  0.0709 -0.5971
16627SOL     OW51321   0.351   4.487   2.349 -0.6642 -0.5059  0.5536
16627SOL    HW151322   0.375   4.489   2.441 -1.5648 -1.3901  0.8163
16627SOL    HW251323   0.314   4.400   2.335 -1.1731 -0.1455 -0.4707
16628SOL     OW51324   5.425   6.958  10.090 -0.0049  0.3929  0.0014
16628SOL    HW151325   5.507   7.002  10.069  1.4992 -2.2186  0.0084
16628SOL    HW251326   5.444   6.909  10.171 -1.6887  0.0090  0.2123
16629SOL     OW51327   0.513   3.063   4.723  0.1277  0.5519  0.0275
16629SOL    HW151328   0.585   3.000   4.720  1.9205  2.5038 -2.6148
16629SOL    HW251329   0.548   3.137   4.773 -1.2927  0.2687  1.5227
16630SOL     OW51330   3.736   5.778   7.943  0.3552 -0.1430 -0.9799
16630SOL    HW151331   3.718   5.696   7.990  2.1124 -0.0689 -0.0726
16630SOL    HW251332   3.757   5.751   7.854  1.0449 -0.7032 -0.6540
16631SOL     OW51333   2.988   6.699  10.768  0.0117 -0.0858  0.1947
16631SOL    HW151334   2.989   6.682  10.674  0.4305  0.5085  0.0870
16631SOL    HW251335   3.052   6.638  10.804  0.7959  0.5675 -0.0685
16632SOL     OW51336   4.793   1.106   3.342  0.0908  0.5672 -0.1912
16632SOL    HW151337   4.821   1.090   3.252  0.1956 -2.2186  0.2494
16632SOL    HW251338   4.705   1.145   3.333 -0.2835 -0.5001 -1.5105
16633SOL     OW51339   3.975   0.726  10.199 -0.5080 -0.3115 -0.4400
16633SOL    HW151340   4.070   0.726  10.209 -0.6635  0.7096  1.4488
16633SOL    HW251341   3.953   0.817  10.181 -1.2624 -0.2345  0.7956
16634SOL     OW51342   7.961   4.573   6.323 -0.0574  0.4750  0.0087
16634SOL    HW151343   7.876   4.557   6.282  0.3623 -1.1946 -0.2417
16634SOL    HW251344   7.959   4.521   6.403  0.9552 -0.0593 -0.3006
16635SOL     OW51345   2.552   5.296   1.111 -0.2956 -0.2148 -0.0763
16635SOL    HW151346   2.518   5.344   1.186 -0.2799 -0.4516  0.0832
16635SOL    HW251347   2.605   5.360   1.063  1.6745 -0.6362  1.3945
16636SOL     OW51348   3.652   5.366   6.522 -0.6381 -0.3263  0.0738
16636SOL    HW151349   3.642   5.328   6.609  0.2509 -0.7892 -0.0071
16636SOL    HW251350   3.682   5.293   6.468  0.3709  0.3064 -0.2561
16637SOL     OW51351   2.347   4.174   4.558  0.0949  0.4833  0.2189
16637SOL    HW151352   2.295   4.254   4.571  0.9327  1.0904 -0.0151
16637SOL    HW251353   2.438   4.206   4.552  0.3178 -0.3533 -1.1736
16638SOL     OW51354   3.704   3.849   4.008 -0.2627  0.1464 -0.0134
16638SOL    HW151355   3.679   3.929   3.962 -2.6603  0.0288  0.8999
16638SOL    HW251356   3.636   3.786   3.985  0.8718 -1.2376  0.2929
16639SOL     OW51357   5.633   0.850  12.354 -0.7020 -0.0534 -0.3606
16639SOL    HW151358   5.596   0.935  12.329  1.2547  0.5926 -1.2667
16639SOL    HW251359   5.660   0.810  12.272 -0.5627 -1.0548  0.1560
16640SOL     OW51360   6.489   3.869   0.224  0.3571  0.2720  0.6249
16640SOL    HW151361   6.464   3.957   0.196  1.4615  0.3655 -0.1538
16640SOL    HW251362   6.543   3.836   0.152  0.3359 -0.8755  1.1085
16641SOL     OW51363   4.698   3.171   1.774 -0.3557 -0.1383 -0.0650
16641SOL    HW151364   4.620   3.190   1.827 -0.8865 -0.3311 -0.7644
16641SOL    HW251365   4.676   3.204   1.687 -0.5995 -2.3363 -0.8724
16642SOL     OW51366   2.042   2.400   8.687  0.5793  0.1626  0.2663
16642SOL    HW151367   2.094   2.378   8.765 -0.6449  1.0668  1.3907
16642SOL    HW251368   1.965   2.445   8.722 -1.5912 -2.1470 -1.1912
16643SOL     OW51369   2.750   0.600   2.924  0.2482 -0.2756  0.1333
16643SOL    HW151370   2.660   0.611   2.957 -0.0747  0.4280 -0.9392
16643SOL    HW251371   2.783   0.689   2.913  0.5408 -0.4977 -0.8972
16644SOL     OW51372   7.849   6.589   7.008 -0.0282 -0.1761 -0.1861
16644SOL    HW151373   7.780   6.529   7.037  0.7022 -0.8360  0.2077
16644SOL    HW251374   7.833   6.599   6.914 -0.2509 -0.8628 -0.2288
16645SOL     OW51375   2.485   1.629   3.940  0.0240  0.7733  0.2427
16645SOL    HW151376   2.574   1.664   3.931 -0.3475  1.5144 -0.8019
16645SOL    HW251377   2.497   1.535   3.949  0.8864  0.7710 -0.7637
16646SOL     OW51378   2.480   0.902   6.620 -0.4066  0.5866 -0.2072
16646SOL    HW151379   2.562   0.854   6.616 -0.1497  1.0629 -0.7325
16646SOL    HW251380   2.490   0.959   6.697  0.5313  2.0047 -1.3191
16647SOL     OW51381   1.024   1.771   7.552  0.2982 -0.1526 -0.8008
16647SOL    HW151382   0.968   1.695   7.571  0.4101 -0.3236 -1.1543
16647SOL    HW251383   1.000   1.835   7.619 -1.3112  0.2900 -1.7328
16648SOL     OW51384   2.262   2.869   6.270 -0.0599 -0.1271 -0.0365
16648SOL    HW151385   2.336   2.820   6.306  0.4259  1.2216  0.8821
16648SOL    HW251386   2.233   2.816   6.195  1.1654 -1.2077  0.1998
16649SOL     OW51387   2.516   4.093   9.460 -0.5980  0.3142 -0.3196
16649SOL    HW151388   2.484   4.122   9.375 -1.3456  0.0430 -0.1407
16649SOL    HW251389   2.600   4.052   9.442 -0.5969  0.5651 -0.8789
16650SOL     OW51390   0.098   7.393  10.745  0.3613 -0.5984 -0.1160
16650SOL    HW151391   0.162   7.390  10.817  2.4670  3.3806 -1.5158
16650SOL    HW251392   0.023   7.439  10.781  1.4898  1.5610 -0.3944
16651SOL     OW51393   5.034   2.428  11.010 -0.1501 -0.1068  0.1244
16651SOL    HW151394   5.076   2.440  10.925 -0.4264  1.1767  0.1551
16651SOL    HW251395   4.946   2.464  10.999 -0.6687 -1.2006  0.5584
16652SOL     OW51396   7.636   4.169   2.121 -0.1820  0.2932 -0.3174
16652SOL    HW151397   7.666   4.170   2.212  1.7270  1.1691 -0.9035
16652SOL    HW251398   7.573   4.240   2.116  0.3209  0.7803  0.1450
16653SOL     OW51399   4.482   0.386   3.914  0.3171 -0.2177  0.1451
16653SOL    HW151400   4.437   0.398   3.998  0.9697 -0.7156  0.5705
16653SOL    HW251401   4.519   0.298   3.919 -1.3666 -1.0958 -1.4858
16654SOL     OW51402   4.498   4.548   1.767 -0.1299 -0.0243  0.1642
16654SOL    HW151403   4.437   4.590   1.828 -1.4831 -1.1174 -0.3828
16654SOL    HW251404   4.569   4.517   1.822  0.3613  1.9716  0.7171
16655SOL     OW51405   2.910   7.349   0.172 -0.0063  0.3430  0.0865
16655SOL    HW151406   2.888   7.411   0.102 -0.7756  0.3025  0.2739
16655SOL    HW251407   2.989   7.383   0.212 -0.1027  0.8938 -0.1894
16656SOL     OW51408   3.660   1.281   4.279 -0.4960 -0.0946  0.3640
16656SOL    HW151409   3.595   1.318   4.220 -0.8892  0.1467  0.9333
16656SOL    HW251410   3.663   1.188   4.257 -0.2236  0.0903 -0.4110
16657SOL     OW51411   5.710   0.287   8.733  0.4033 -0.2455 -0.2019
16657SOL    HW151412   5.648   0.357   8.750  0.7303 -0.4186  1.9524
16657SOL    HW251413   5.674   0.242   8.656 -0.8173  1.1044 -0.4706
16658SOL     OW51414   5.761   5.384   4.044  0.0117  0.5534 -0.1713
16658SOL    HW151415   5.774   5.309   3.986 -0.6285 -0.6458  1.1672
16658SOL    HW251416   5.730   5.454   3.986 -1.4587 -0.8558 -1.1640
16659SOL     OW51417   0.292   3.701   8.885  0.3353  0.0324  0.1417
16659SOL    HW151418   0.367   3.711   8.826 -0.2607 -3.2507 -1.4083
16659SOL    HW251419   0.216   3.725   8.833  0.0081 -0.3246  0.4413
16660SOL     OW51420   1.791   3.279   6.596  0.5383 -0.0529  0.3407
16660SOL    HW151421   1.799   3.251   6.505  1.5267  1.3639 -0.0406
16660SOL    HW251422   1.745   3.207   6.640  1.7507 -1.6051 -0.8554
16661SOL     OW51423   5.339   4.005   9.522 -0.2392 -0.1876 -0.7560
16661SOL    HW151424   5.279   4.075   9.549 -2.5932 -2.2088 -0.3646
16661SOL    HW251425   5.364   3.962   9.604 -1.5241 -1.7907 -1.1318
16662SOL     OW51426   5.271   2.206  10.204  0.1809 -0.7041  0.1374
16662SOL    HW151427   5.181   2.171  10.206 -0.5673  0.8568 -2.2500
16662SOL    HW251428   5.261   2.299  10.223  1.4986 -0.7526  1.2035
16663SOL     OW51429   2.853   2.586  11.295 -0.6888 -0.1610 -0.0144
16663SOL    HW151430   2.854   2.674  11.332 -0.5646 -0.2604  0.2199
16663SOL    HW251431   2.941   2.552  11.311 -0.7711 -0.3720 -0.0040
16664SOL     OW51432   1.031   6.552   1.519  0.4174 -0.1423  0.4539
16664SOL    HW151433   1.106   6.609   1.534  0.9520 -1.0607  1.4528
16664SOL    HW251434   1.003   6.527   1.607 -1.6102  0.8352  0.1547
16665SOL     OW51435   0.248   0.466   7.445  0.3665  0.3933 -0.4247
16665SOL    HW151436   0.311   0.518   7.395  2.7029  0.1400  2.0010
16665SOL    HW251437   0.223   0.523   7.519  0.1671 -0.6205  0.3106
16666SOL     OW51438   6.396   1.076   8.779  0.2034  0.3415 -0.2856
16666SOL    HW151439   6.490   1.063   8.766  0.3277  0.8722  0.0354
16666SOL    HW251440   6.369   1.127   8.703  0.4136  1.1918  0.1930
16667SOL     OW51441   2.906   6.635   3.873  0.1586  0.0057  0.0269
16667SOL    HW151442   2.814   6.653   3.854  0.0785 -0.7655 -0.3764
16667SOL    HW251443   2.909   6.540   3.889  0.6601  0.2410  1.4207
16668SOL     OW51444   5.933   3.898  10.257 -0.1412  0.3680  0.0553
16668SOL    HW151445   5.884   3.856  10.187 -0.0408  0.0520  0.1731
16668SOL    HW251446   5.883   3.978  10.276 -2.8970 -1.7447  2.8010
16669SOL     OW51447   5.636   1.861   6.353  0.5065  0.5270 -0.4981
16669SOL    HW151448   5.598   1.943   6.386 -0.3194 -0.0670  0.0586
16669SOL    HW251449   5.727   1.865   6.381  0.2455  0.8374  0.3656
16670SOL     OW51450   3.182   3.167   1.676 -0.0374 -0.3750 -0.1833
16670SOL    HW151451   3.243   3.145   1.746 -1.1572  1.3926  1.4282
16670SOL    HW251452   3.209   3.112   1.603  1.5180 -1.8895  1.4420
16671SOL     OW51453   3.867   1.463   5.242  0.1540  0.4022  0.2102
16671SOL    HW151454   3.891   1.503   5.326 -1.1962 -1.3537  1.5143
16671SOL    HW251455   3.876   1.369   5.257 -0.9384  0.0111 -1.3484
16672SOL     OW51456   7.264   2.358   9.866 -0.1202 -0.0963  0.1971
16672SOL    HW151457   7.233   2.298   9.934 -0.8287 -1.2325 -1.0940
16672SOL    HW251458   7.345   2.395   9.902 -1.3115  0.5785  2.3313
16673SOL     OW51459   0.852   4.168  11.675  0.0303  0.2233 -0.0936
16673SOL    HW151460   0.899   4.190  11.755 -0.7717 -3.4547  1.5655
16673SOL    HW251461   0.787   4.103  11.701  1.3618 -3.1425 -4.0310
16674SOL     OW51462   7.890   7.286   3.937 -0.7778 -0.9370 -0.3922
16674SOL    HW151463   7.845   7.248   4.013 -0.3710 -2.0726 -0.6908
16674SOL    HW251464   7.820   7.306   3.875 -0.9354 -2.5862 -0.8066
16675SOL     OW51465   0.881   3.784   4.579 -0.2937  0.3018  0.2498
16675SOL    HW151466   0.838   3.870   4.580 -2.2283 -0.6021  0.2959
16675SOL    HW251467   0.809   3.722   4.563  1.0606 -1.3055  0.1451
16676SOL     OW51468   1.459   5.851   2.228 -0.1540 -0.9320 -0.2584
16676SOL    HW151469   1.408   5.798   2.290  0.1259  1.6673  2.3553
16676SOL    HW251470   1.407   5.847   2.147 -0.4579 -4.5663 -0.0891
16677SOL     OW51471   7.362   6.901   1.111 -0.3358 -0.7386  0.7443
16677SOL    HW151472   7.434   6.937   1.060  0.1360 -0.2863  1.6989
16677SOL    HW251473   7.319   6.977   1.149 -1.0313 -1.0347  0.5758
16678SOL     OW51474   0.716   6.655   1.481 -0.2064  0.0992  0.5396
16678SOL    HW151475   0.787   6.593   1.499 -1.5588 -1.6726  0.1796
16678SOL    HW251476   0.664   6.654   1.561 -0.7834 -0.0377  0.1703
16679SOL     OW51477   0.334   3.955  11.256  0.0641  0.0439 -0.1097
16679SOL    HW151478   0.298   3.872  11.224 -0.7511 -0.1364  1.2279
16679SOL    HW251479   0.290   4.022  11.203 -1.5236 -0.2319  0.7913
16680SOL     OW51480   2.238   2.710   0.715 -0.0093 -0.6182 -0.1807
16680SOL    HW151481   2.160   2.766   0.714 -0.3578 -1.0954 -0.3057
16680SOL    HW251482   2.204   2.623   0.735  0.6214 -0.6603  0.7474
16681SOL     OW51483   2.617   0.126   1.758 -0.3445  0.1530  0.3751
16681SOL    HW151484   2.622   0.176   1.839  1.0691  0.5725  0.0606
16681SOL    HW251485   2.629   0.035   1.785  0.2295  0.3033  0.6291
16682SOL     OW51486   6.343   6.923   2.670 -0.4567 -0.4052  0.2025
16682SOL    HW151487   6.350   6.915   2.575 -0.5664 -1.2466  0.2533
16682SOL    HW251488   6.249   6.933   2.686 -0.5013 -0.8820  0.2561
16683SOL     OW51489   3.016   4.179   5.745  0.2397  0.2095 -0.1362
16683SOL    HW151490   3.111   4.187   5.750  0.3732 -0.6948 -0.9653
16683SOL    HW251491   2.999   4.085   5.750 -0.8139  0.4584  2.6915
16684SOL     OW51492   5.983   3.498   4.930  0.0211 -0.4876 -0.1806
16684SOL    HW151493   6.024   3.544   4.857 -0.2603 -2.0354 -1.3731
16684SOL    HW251494   5.893   3.483   4.901 -0.0854 -1.1531  0.4631
16685SOL     OW51495   3.727   7.937  10.832 -0.1642 -0.4416  0.1912
16685SOL    HW151496   3.754   7.848  10.854  0.9312 -0.1149  0.2250
16685SOL    HW251497   3.720   7.982  10.916  3.5015  0.6588  0.0682
16686SOL     OW51498   0.572   7.452   1.346  0.4721 -0.1314 -0.4514
16686SOL    HW151499   0.490   7.432   1.390  0.1829  1.0069 -0.4444
16686SOL    HW251500   0.569   7.403   1.264  0.7760 -1.8414  0.5138
16687SOL     OW51501   1.880   4.149   0.877 -0.2619 -0.0200  0.4375
16687SOL    HW151502   1.816   4.090   0.839  1.7366 -1.8499 -0.3121
16687SOL    HW251503   1.915   4.198   0.802  3.1577 -3.1083 -0.2680
16688SOL     OW51504   2.265   5.491  11.609  0.3595  0.7924  0.2594
16688SOL    HW151505   2.236   5.448  11.690  2.0401  0.6943  0.8700
16688SOL    HW251506   2.361   5.485  11.614  0.5112  1.8018 -1.2044
16689SOL     OW51507   1.388   6.356   0.741  0.3603  0.0806 -0.2182
16689SOL    HW151508   1.427   6.362   0.828  1.7444  2.1235 -0.8982
16689SOL    HW251509   1.299   6.388   0.752  0.5129  0.2716  0.4619
16690SOL     OW51510   3.432   2.862   7.999  0.6952 -0.1870  0.2719
16690SOL    HW151511   3.443   2.956   8.015  0.8068  0.2148 -1.9045
16690SOL    HW251512   3.343   2.844   8.028  0.4498  0.7391  0.1493
16691SOL     OW51513   0.899   5.610   7.883 -0.2210  0.1208  0.4071
16691SOL    HW151514   0.845   5.679   7.845 -0.5373  0.3076  1.1822
16691SOL    HW251515   0.838   5.557   7.935  0.0937 -0.4954  0.1658
16692SOL     OW51516   0.568   0.632   7.614  0.1344 -0.2202 -0.6650
16692SOL    HW151517   0.663   0.645   7.612  0.1791  0.0709  1.3386
16692SOL    HW251518   0.556   0.558   7.674 -0.9753  1.0338  0.7410
16693SOL     OW51519   6.207   1.740  12.271 -0.1946 -0.7361 -0.2234
16693SOL    HW151520   6.167   1.827  12.268  0.2468 -0.5144  0.0161
16693SOL    HW251521   6.242   1.726  12.183  0.5213 -0.2747 -0.0257
16694SOL     OW51522   1.302   0.626   7.825 -0.3086  0.2587  0.2038
16694SOL    HW151523   1.289   0.534   7.846  0.4940  0.1126  0.0810
16694SOL    HW251524   1.393   0.644   7.849 -0.7349  1.2717  1.1631
16695SOL     OW51525   6.741   4.672   4.269 -0.1400  0.2470  0.2251
16695SOL    HW151526   6.831   4.692   4.292 -0.2753  1.5388 -0.3023
16695SOL    HW251527   6.711   4.612   4.337  0.0432  2.4746  2.3731
16696SOL     OW51528   3.664   3.323  10.811  0.1713  0.3446  0.4894
16696SOL    HW151529   3.728   3.260  10.780  0.0181  0.3131  0.2365
16696SOL    HW251530   3.666   3.394  10.747  0.7352  0.8595  1.0672
16697SOL     OW51531   1.101   4.300   9.732 -0.4568 -0.2445 -0.2398
16697SOL    HW151532   1.143   4.294   9.646 -0.7947  0.3383 -0.4570
16697SOL    HW251533   1.174   4.316   9.793 -0.0653 -1.9676 -0.2211
16698SOL     OW51534   4.704   5.812  10.643 -0.0112 -0.2352  0.1858
16698SOL    HW151535   4.751   5.878  10.694 -0.9614 -0.2643  1.1173
16698SOL    HW251536   4.769   5.743  10.628  0.8607  0.6820 -0.4204
16699SOL     OW51537   3.425   7.116   2.302  0.0254  0.0540  0.3979
16699SOL    HW151538   3.346   7.098   2.353 -0.2955  1.1348  0.3058
16699SOL    HW251539   3.483   7.042   2.321  0.0265  0.5481  2.5338
16700SOL     OW51540   7.267   0.372   6.296 -0.7623 -0.6467  0.4270
16700SOL    HW151541   7.343   0.319   6.270 -1.9434 -1.9983 -0.3751
16700SOL    HW251542   7.306   0.452   6.333  1.0515 -1.4260  0.3240
16701SOL     OW51543   0.229   0.312   2.462  0.5921 -0.2710  0.1496
16701SOL    HW151544   0.321   0.328   2.438  0.4560 -0.8955 -0.8223
16701SOL    HW251545   0.222   0.216   2.466  0.2002 -0.2173  1.1510
16702SOL     OW51546   6.736   2.198   9.817  0.2962 -0.1009 -0.1975
16702SOL    HW151547   6.762   2.106   9.814  0.7570  0.0445 -0.7211
16702SOL    HW251548   6.787   2.240   9.749  0.0582  0.5430  0.0120
16703SOL     OW51549   1.282   5.670   4.821 -0.3366  0.1593  0.2306
16703SOL    HW151550   1.305   5.600   4.882 -2.2529  0.0724  0.9372
16703SOL    HW251551   1.233   5.733   4.875 -0.7389  0.8425 -0.9005
16704SOL     OW51552   3.641   3.988  12.256 -0.0577  0.3655  0.0116
16704SOL    HW151553   3.590   4.046  12.312 -2.2219 -2.1282  0.8529
16704SOL    HW251554   3.593   3.986  12.173  0.6618  0.6268 -0.4248
16705SOL     OW51555   2.671   6.759   7.127 -0.0609  0.4051 -0.0266
16705SOL    HW151556   2.706   6.733   7.041  0.1365 -1.1714  0.4954
16705SOL    HW251557   2.692   6.685   7.184 -0.4811  1.2965  1.3117
16706SOL     OW51558   0.525   1.822  12.138 -0.1213  0.5057  0.2350
16706SOL    HW151559   0.620   1.835  12.141  0.2249 -1.7315  2.2942
16706SOL    HW251560   0.514   1.727  12.129 -2.1222  0.5700  1.3487
16707SOL     OW51561   4.638   4.716   9.612  0.1974 -0.0595  0.3682
16707SOL    HW151562   4.612   4.720   9.520 -0.6431  0.0937  0.6094
16707SOL    HW251563   4.712   4.655   9.613 -2.4185 -3.5088  0.1836
16708SOL     OW51564   1.656   5.111  11.960  0.0740  0.1379 -0.4711
16708SOL    HW151565   1.615   5.182  11.911 -0.5409  0.4927  0.5243
16708SOL    HW251566   1.698   5.154  12.034 -0.8419 -0.5831  0.4932
16709SOL     OW51567   4.255   4.441   2.406  0.7640  0.2231 -0.1899
16709SOL    HW151568   4.164   4.468   2.404  1.1260  1.4800 -1.5622
16709SOL    HW251569   4.253   4.347   2.425 -0.7227  0.4741  1.0743
16710SOL     OW51570   5.530   5.833   5.366 -0.2751 -0.4338  0.0842
16710SOL    HW151571   5.489   5.814   5.451  0.3914 -0.2072  0.4697
16710SOL    HW251572   5.573   5.751   5.342 -0.8548 -0.6382 -0.2653
16711SOL     OW51573   3.880   0.120  12.359  0.3545 -0.1835  0.1232
16711SOL    HW151574   3.850   0.194  12.304 -0.1514 -0.9633 -0.6851
16711SOL    HW251575   3.799   0.086  12.398  0.6724  0.1353  1.0892
16712SOL     OW51576   6.694   1.774   2.162  0.1672  0.0327 -0.1653
16712SOL    HW151577   6.771   1.724   2.133  0.1811  0.3684 -0.7175
16712SOL    HW251578   6.707   1.786   2.256  1.5602  1.3819 -0.4899
16713SOL     OW51579   1.154   0.936   0.083 -0.0632  0.3666 -0.4933
16713SOL    HW151580   1.232   0.928   0.139 -0.9451  0.0451  0.7150
16713SOL    HW251581   1.095   0.868   0.113 -0.8694  0.6768 -1.3263
16714SOL     OW51582   7.328   6.619   5.154 -0.4997 -0.5378  0.0949
16714SOL    HW151583   7.390   6.617   5.227 -0.3392  0.0928 -0.0165
16714SOL    HW251584   7.275   6.698   5.170  0.7529  0.6921 -1.4569
16715SOL     OW51585   2.135   2.439   7.687 -0.1443 -0.1720 -0.3266
16715SOL    HW151586   2.189   2.364   7.661 -1.0449 -1.5634  1.5505
16715SOL    HW251587   2.046   2.414   7.663 -0.2121  1.4334 -1.9724
16716SOL     OW51588   5.010   7.320   9.092 -0.0433  0.4641 -0.3046
16716SOL    HW151589   5.018   7.405   9.136 -2.4662  0.7811 -0.2967
16716SOL    HW251590   4.991   7.258   9.162 -0.8554  0.4079 -0.5629
16717SOL     OW51591   5.280   5.215   5.123  0.0853  0.0855  0.0033
16717SOL    HW151592   5.316   5.180   5.205  1.1461  1.5734  0.2082
16717SOL    HW251593   5.323   5.163   5.055 -0.5136 -0.9031  0.3619
16718SOL     OW51594   6.377   5.468   9.667  0.6768  0.2601  0.6331
16718SOL    HW151595   6.346   5.428   9.586  0.5095  0.4568  0.6002
16718SOL    HW251596   6.440   5.534   9.639  0.3775  0.5517  0.6452
16719SOL     OW51597   6.557   5.902   7.511 -0.7562 -0.9700 -0.5476
16719SOL    HW151598   6.577   5.988   7.473 -2.6893 -0.7561 -1.1770
16719SOL    HW251599   6.532   5.922   7.601 -2.0388 -0.7452 -0.9384
16720SOL     OW51600   2.159   1.514   4.988  0.0037 -0.0831 -0.4162
16720SOL    HW151601   2.099   1.502   4.914  0.9146  0.0056 -1.1727
16720SOL    HW251602   2.111   1.572   5.047  0.1195  1.6047 -1.9161
16721SOL     OW51603   0.003   2.615   9.787  0.3818 -0.0945  0.1621
16721SOL    HW151604   0.089   2.645   9.759 -0.6368  1.4005 -1.5095
16721SOL    HW251605   0.014   2.595   9.880  2.8457 -1.2515 -0.2979
16722SOL     OW51606   0.698   2.259   4.931 -0.2120 -0.5196  0.1666
16722SOL    HW151607   0.698   2.331   4.867 -5.1706 -0.7506 -0.4844
16722SOL    HW251608   0.727   2.300   5.013 -2.2102  2.2243 -0.3360
16723SOL     OW51609   0.825   5.591  12.236 -0.6493 -0.8300 -0.5917
16723SOL    HW151610   0.777   5.579  12.154 -1.3544 -1.0923 -0.1552
16723SOL    HW251611   0.813   5.683  12.257 -1.3903 -0.9929 -0.2418
16724SOL     OW51612   0.759   7.632   3.785 -0.2940  0.0474  0.0357
16724SOL    HW151613   0.710   7.632   3.703  0.7070 -1.1037 -0.5920
16724SOL    HW251614   0.708   7.576   3.843  0.1022 -0.9005 -0.5151
16725SOL     OW51615   2.104   0.028   5.024  0.3338 -0.3038 -0.2787
16725SOL    HW151616   2.055  -0.054   5.031 -0.6711  0.3088  0.1357
16725SOL    HW251617   2.068   0.083   5.094 -0.9457  1.4619 -2.2037
16726SOL     OW51618   7.530   2.792   5.760 -0.1710  0.0375 -0.3742
16726SOL    HW151619   7.456   2.772   5.703  0.2542  1.0951 -1.3207
16726SOL    HW251620   7.606   2.760   5.712 -0.0228 -1.4992  0.8143
16727SOL     OW51621   7.687   1.470  11.385  0.3989  0.3742  0.4746
16727SOL    HW151622   7.673   1.530  11.313  1.4749  0.7584  0.5590
16727SOL    HW251623   7.782   1.469  11.398  0.2847 -0.1949  1.4497
16728SOL     OW51624   1.992   7.540   4.641 -0.0049 -0.3758 -0.4620
16728SOL    HW151625   1.938   7.520   4.565 -0.1853  1.0581 -0.7371
16728SOL    HW251626   1.935   7.524   4.716 -0.0135 -1.2365 -0.6458
16729SOL     OW51627   7.030   1.016   2.767 -0.5773  0.3209  0.2986
16729SOL    HW151628   6.958   0.954   2.776 -1.1935  1.1001  0.8451
16729SOL    HW251629   7.085   0.978   2.698 -0.4905 -1.2541  1.1707
16730SOL     OW51630   6.185   3.788   7.772 -0.2013 -0.2139 -0.5560
16730SOL    HW151631   6.158   3.712   7.721  0.3237  0.1379 -1.3670
16730SOL    HW251632   6.135   3.861   7.736 -1.1164 -0.2434  0.5817
16731SOL     OW51633   7.631   1.613   3.952  0.5835 -0.5844 -0.0277
16731SOL    HW151634   7.653   1.692   4.002  0.8638  0.2346 -1.3914
16731SOL    HW251635   7.647   1.541   4.013  0.9430  0.3659  1.0456
16732SOL     OW51636   6.575   2.267   6.035  0.4308 -0.7270  0.0100
16732SOL    HW151637   6.545   2.191   6.084 -0.4671 -0.8098 -0.6601
16732SOL    HW251638   6.610   2.231   5.953  1.3719 -0.5386  0.3200
16733SOL     OW51639   4.651   4.817   1.215 -0.3261 -0.0998  0.7600
16733SOL    HW151640   4.681   4.888   1.272 -0.6674  1.9641 -1.4746
16733SOL    HW251641   4.560   4.802   1.241 -0.6325  1.1706  0.4833
16734SOL     OW51642   0.524   6.052   8.892 -0.3352  0.5164  0.6809
16734SOL    HW151643   0.539   6.021   8.981 -1.5098 -0.1650  0.6531
16734SOL    HW251644   0.472   6.132   8.902 -0.5629  0.3787  0.5996
16735SOL     OW51645   1.321   2.949   1.371  0.6760  0.3343  0.5348
16735SOL    HW151646   1.351   2.887   1.438 -0.2093 -0.3127  0.3619
16735SOL    HW251647   1.373   2.927   1.293  1.1713  0.5743  0.8005
16736SOL     OW51648   4.203   1.671   4.180 -0.0560  0.3668  1.1056
16736SOL    HW151649   4.113   1.638   4.181 -0.0152  0.2605  1.3172
16736SOL    HW251650   4.241   1.639   4.262  0.0259  0.8350  1.2512
16737SOL     OW51651   4.750   2.003   7.835  0.0358  0.1932 -0.2900
16737SOL    HW151652   4.686   2.054   7.786  0.7899  1.4800  0.0183
16737SOL    HW251653   4.826   1.999   7.777  1.0161  1.9122  0.7775
16738SOL     OW51654   6.496   7.561   0.333  0.6565  0.1735  0.1891
16738SOL    HW151655   6.576   7.510   0.342 -0.6675 -2.2017 -0.5872
16738SOL    HW251656   6.488   7.580   0.240 -1.9329 -3.8319 -0.6488
16739SOL     OW51657   3.750   2.099   5.276  0.2469  0.0961 -0.1523
16739SOL    HW151658   3.747   2.184   5.319  0.0833  0.1234 -0.2167
16739SOL    HW251659   3.737   2.119   5.183  2.2920  0.2173 -0.4520
16740SOL     OW51660   3.852   5.603   9.844  0.3913  0.3337  0.0364
16740SOL    HW151661   3.796   5.526   9.843  1.2967 -0.3598 -1.8529
16740SOL    HW251662   3.938   5.571   9.868  1.1523  0.3763 -2.3296
16741SOL     OW51663   4.272   6.790  10.901 -1.0839  0.7880 -0.1889
16741SOL    HW151664   4.307   6.877  10.882 -0.4032  0.5202 -0.1871
16741SOL    HW251665   4.277   6.743  10.818 -1.4514  0.7437 -0.1897
16742SOL     OW51666   5.557   0.761   9.684  0.6478  0.3387  0.1491
16742SOL    HW151667   5.528   0.727   9.600 -0.2287 -0.7291  0.8624
16742SOL    HW251668   5.477   0.791   9.727  0.9388 -0.1634  1.0657
16743SOL     OW51669   4.094   2.183   2.941 -0.0032 -0.5662  0.4364
16743SOL    HW151670   4.113   2.101   2.897  0.3848 -0.4064  0.2975
16743SOL    HW251671   3.999   2.195   2.932  0.1362 -0.2664 -0.8356
16744SOL     OW51672   0.322   6.963  11.484 -0.1074  0.1800 -0.0470
16744SOL    HW151673   0.290   6.877  11.455 -2.4972  0.3990  1.6569
16744SOL    HW251674   0.270   7.026  11.433 -1.3947  0.5479  1.6337
16745SOL     OW51675   4.391   1.878  10.821  0.2182 -1.0791  0.5450
16745SOL    HW151676   4.372   1.823  10.897 -1.2871 -0.6396  0.5305
16745SOL    HW251677   4.307   1.920  10.801  0.8985 -0.2019 -0.5732
16746SOL     OW51678   1.468   2.870  11.498 -0.0405 -0.5577  0.3604
16746SOL    HW151679   1.505   2.894  11.582  0.8894 -1.7662  0.3178
16746SOL    HW251680   1.454   2.954  11.453  2.2170 -0.0291  0.5565
16747SOL     OW51681   5.807   5.787   8.892  0.2468  0.1159 -0.1246
16747SOL    HW151682   5.767   5.765   8.975  0.6075 -1.4097 -0.3179
16747SOL    HW251683   5.841   5.876   8.904 -0.5080  0.2668  1.0299
16748SOL     OW51684   3.603   0.150   7.803  0.5402  0.6102 -0.4254
16748SOL    HW151685   3.612   0.098   7.883 -2.7298  0.8534  0.2588
16748SOL    HW251686   3.608   0.085   7.732 -0.0658 -0.1849  0.2263
16749SOL     OW51687   7.889   3.207   0.540  0.3853  0.1690 -0.1191
16749SOL    HW151688   7.973   3.225   0.496 -0.1198  0.1898 -1.0936
16749SOL    HW251689   7.882   3.112   0.542 -1.3163  0.0729 -3.5714
16750SOL     OW51690   0.487   5.213   5.419 -0.6295  0.0826 -0.6441
16750SOL    HW151691   0.579   5.227   5.441 -1.3202  2.1147  1.3548
16750SOL    HW251692   0.469   5.124   5.449  0.2834  0.2673  0.5313
16751SOL     OW51693   4.928   3.931  10.017  0.3588 -0.2187  0.0671
16751SOL    HW151694   4.977   3.876  10.078 -1.7154 -0.7156  1.3835
16751SOL    HW251695   4.931   3.885   9.934  1.4793 -0.6037  0.3137
16752SOL     OW51696   5.710   6.784   5.196  0.2036  0.1078  0.1632
16752SOL    HW151697   5.795   6.803   5.235 -0.8839  2.6781  1.5113
16752SOL    HW251698   5.653   6.767   5.271 -1.2292  1.9701 -0.4391
16753SOL     OW51699   1.286   6.111   0.482 -0.1528 -0.7821  0.2027
16753SOL    HW151700   1.255   6.087   0.569 -0.9173 -0.9287 -0.0989
16753SOL    HW251701   1.262   6.203   0.472  1.8993 -0.1179  0.9794
16754SOL     OW51702   7.107   0.240   5.682  0.0195 -0.1787  0.3737
16754SOL    HW151703   7.175   0.306   5.669 -0.7492  0.1153 -2.9324
16754SOL    HW251704   7.113   0.183   5.606 -1.4580 -2.0293  1.5401
16755SOL     OW51705   4.498   3.755  10.999  0.2598  0.6588  0.0672
16755SOL    HW151706   4.440   3.797  11.063 -0.6042  0.3147 -0.4696
16755SOL    HW251707   4.533   3.828  10.947  0.6012  0.8985  0.6187
16756SOL     OW51708   7.683   7.719   3.537  0.2412 -0.1651 -0.0457
16756SOL    HW151709   7.594   7.753   3.528 -0.5881 -2.6423 -2.9619
16756SOL    HW251710   7.677   7.651   3.604  0.0960  0.0258  0.1363
16757SOL     OW51711   0.381   1.698   9.597  0.2474 -0.1101 -0.9728
16757SOL    HW151712   0.318   1.767   9.615  0.0872 -0.2875 -0.8427
16757SOL    HW251713   0.465   1.743   9.590  0.1107  0.1253 -1.1262
16758SOL     OW51714   5.618   1.692   2.082  0.1230  0.5099 -0.4305
16758SOL    HW151715   5.573   1.751   2.142  0.4654  0.3370 -0.0059
16758SOL    HW251716   5.659   1.750   2.018  0.2668  0.7234 -0.1468
16759SOL     OW51717   6.237   4.830   1.795  0.2689  0.0570  0.0268
16759SOL    HW151718   6.305   4.832   1.863 -0.2818 -1.2356  0.6492
16759SOL    HW251719   6.268   4.892   1.729  2.3505 -0.9174  0.0131
16760SOL     OW51720   3.545   7.251  10.232  0.1977  0.7364  0.4195
16760SOL    HW151721   3.638   7.273  10.234  0.4840 -0.5123  1.8542
16760SOL    HW251722   3.523   7.252  10.138  1.4695  1.7132  0.1024
16761SOL     OW51723   2.822   0.052   7.670  0.2636  0.3239  0.4502
16761SOL    HW151724   2.871   0.045   7.753  0.6086 -1.9095  0.1454
16761SOL    HW251725   2.888   0.074   7.605 -0.1765  3.1397  0.8517
16762SOL     OW51726   6.469   1.356  10.862 -0.4715  0.0826 -0.1114
16762SOL    HW151727   6.399   1.372  10.926  0.5607 -2.0073  1.6547
16762SOL    HW251728   6.423   1.321  10.786 -1.5713  1.0680  0.0533
16763SOL     OW51729   4.846   0.285   6.694 -0.0756  0.2329  0.0717
16763SOL    HW151730   4.880   0.264   6.607  1.5673 -2.7354  1.2627
16763SOL    HW251731   4.899   0.359   6.723  2.9795 -1.8544  0.3236
16764SOL     OW51732   3.359   6.211   0.935  0.0650 -0.0463  0.5605
16764SOL    HW151733   3.339   6.305   0.934  1.8437  0.3675  1.3509
16764SOL    HW251734   3.283   6.171   0.891 -1.6627  1.5477  1.8959
16765SOL     OW51735   5.905   7.170   7.816 -0.7711 -0.2062  0.6200
16765SOL    HW151736   5.925   7.120   7.895 -1.6954 -2.7518 -0.6777
16765SOL    HW251737   5.991   7.186   7.777 -0.5213 -2.0709  0.3377
16766SOL     OW51738   1.388   6.807  11.167  0.1193 -0.1272 -0.1653
16766SOL    HW151739   1.350   6.838  11.085 -0.1512  0.0804  0.0372
16766SOL    HW251740   1.313   6.794  11.225  0.0347 -2.6457 -0.7167
16767SOL     OW51741   2.886   0.292   1.139 -0.2361  0.3304 -0.2633
16767SOL    HW151742   2.930   0.215   1.174 -0.7569 -1.4694 -3.2421
16767SOL    HW251743   2.943   0.365   1.163  0.4139 -0.9183  2.4084
16768SOL     OW51744   6.023   4.142   0.602 -0.2586 -0.1174 -0.5910
16768SOL    HW151745   6.088   4.211   0.589 -0.9960  0.2220 -2.9553
16768SOL    HW251746   6.074   4.064   0.622  0.6523  0.7874  0.8334
16769SOL     OW51747   6.135   3.510   6.853 -0.2583 -0.5697  0.1918
16769SOL    HW151748   6.153   3.594   6.895 -0.9441 -0.3670  0.0896
16769SOL    HW251749   6.076   3.465   6.913 -2.2914  0.2357 -1.0747
16770SOL     OW51750   6.220   3.895  11.198 -0.4556 -0.4072  0.3514
16770SOL    HW151751   6.161   3.930  11.263  0.5056 -0.2903  1.1887
16770SOL    HW251752   6.250   3.811  11.234 -0.4775 -0.6895 -0.2719
16771SOL     OW51753   4.636   7.875   6.634  0.0179  0.4941 -0.1877
16771SOL    HW151754   4.698   7.827   6.689 -0.4022  1.2433  0.9653
16771SOL    HW251755   4.662   7.854   6.544  1.5674  0.3279  0.2814
16772SOL     OW51756   1.879   0.029   9.851 -0.0408 -0.4426 -0.2882
16772SOL    HW151757   1.920  -0.050   9.885 -0.4663  0.2906  2.1485
16772SOL    HW251758   1.811   0.050   9.916  1.3318  2.9634  0.2360
16773SOL     OW51759   6.052   4.244   6.718 -0.3370 -0.6500 -0.5651
16773SOL    HW151760   6.082   4.154   6.710  1.3098 -0.1376 -0.7509
16773SOL    HW251761   6.125   4.296   6.684 -1.5937  0.7249 -1.2866
16774SOL     OW51762   5.887   5.351   6.469 -0.1373  0.0260 -0.3836
16774SOL    HW151763   5.923   5.346   6.558 -0.1244  0.8334 -0.3394
16774SOL    HW251764   5.894   5.261   6.436 -1.5312 -0.6163  0.9588
16775SOL     OW51765   1.051   2.912   4.652 -0.2565 -0.5343  0.5134
16775SOL    HW151766   1.083   2.988   4.605 -1.4769  0.0474  0.5750
16775SOL    HW251767   1.122   2.888   4.711 -0.1463  1.0494  1.0630
16776SOL     OW51768   6.492   7.984   1.690  0.4384  0.2600  1.0902
16776SOL    HW151769   6.563   7.929   1.725  0.2454  0.4446  1.7918
16776SOL    HW251770   6.418   7.924   1.683  1.0176 -0.3201 -1.0749
16777SOL     OW51771   7.743   3.657   7.792  0.6898  0.4553 -0.4152
16777SOL    HW151772   7.804   3.730   7.781  1.5818 -0.0956  0.6621
16777SOL    HW251773   7.673   3.692   7.847  1.5943  0.2592  0.8920
16778SOL     OW51774   3.494   0.104   4.702 -0.2724 -0.1155  0.1465
16778SOL    HW151775   3.446   0.049   4.764 -0.4721  1.1342  1.1471
16778SOL    HW251776   3.585   0.101   4.733 -0.1802 -0.3342 -0.1407
16779SOL     OW51777   5.670   4.588   9.503 -0.1087  0.2949  0.1970
16779SOL    HW151778   5.761   4.606   9.526 -0.1218  0.4856  0.1074
16779SOL    HW251779   5.675   4.528   9.429 -0.0580  0.1608  0.3090
16780SOL     OW51780   0.090   5.051   8.750  1.0562 -0.5679  0.3583
16780SOL    HW151781   0.081   5.117   8.819  0.1051 -1.2070  0.8597
16780SOL    HW251782   0.041   5.088   8.676  1.8106 -0.0266  0.1188
16781SOL     OW51783   2.544   1.016  12.381  0.0669 -0.0237  0.7217
16781SOL    HW151784   2.636   1.018  12.407  1.4656 -0.8848 -3.3858
16781SOL    HW251785   2.542   1.058  12.295 -2.7746 -2.6923 -0.7484
16782SOL     OW51786   1.810   4.226   9.124 -0.0158 -0.4731  0.2338
16782SOL    HW151787   1.773   4.205   9.039  0.4263 -1.6680  0.3084
16782SOL    HW251788   1.775   4.159   9.183 -0.1258  0.1911  0.9439
16783SOL     OW51789   2.252   7.513   4.019  0.1304  0.3835 -0.3353
16783SOL    HW151790   2.237   7.436   4.074  2.7112 -0.6086 -0.8608
16783SOL    HW251791   2.258   7.586   4.081 -0.2767 -0.1879  0.3865
16784SOL     OW51792   2.808   2.549   0.922 -0.1707  0.5922 -0.0973
16784SOL    HW151793   2.892   2.586   0.950  0.5961 -0.8593 -0.3502
16784SOL    HW251794   2.830   2.461   0.890 -2.1833 -1.0961  2.6855
16785SOL     OW51795   0.454   2.507  10.930 -0.3847 -0.4597 -0.3279
16785SOL    HW151796   0.539   2.546  10.951  0.2096 -1.8752  0.0365
16785SOL    HW251797   0.425   2.553  10.851 -0.2279  1.4136  0.6545
16786SOL     OW51798   6.987   4.153   2.655  1.0143  0.1243 -0.2594
16786SOL    HW151799   7.011   4.221   2.592  1.0384  1.8038  1.4671
16786SOL    HW251800   7.048   4.165   2.728 -0.2638 -0.4434  0.9510
16787SOL     OW51801   2.177   6.203   6.501  0.0384  0.3928  0.4642
16787SOL    HW151802   2.166   6.108   6.510 -1.1153  0.5766  1.2394
16787SOL    HW251803   2.171   6.236   6.590 -1.3897  1.3505  0.0495
16788SOL     OW51804   7.573   6.378   6.703  0.0665  0.1223 -0.2118
16788SOL    HW151805   7.513   6.323   6.755 -0.7604  1.4529  0.3082
16788SOL    HW251806   7.609   6.319   6.637 -1.4319 -0.8587 -0.2047
16789SOL     OW51807   5.699   6.886  10.908 -0.2790 -0.0345 -0.4206
16789SOL    HW151808   5.716   6.830  10.832  0.8315  0.4938 -0.5894
16789SOL    HW251809   5.605   6.879  10.923 -0.4659 -0.3965 -1.6559
16790SOL     OW51810   0.835   4.284   5.101  0.3191 -0.0817  0.0441
16790SOL    HW151811   0.808   4.357   5.045  0.1864  0.2117  0.4875
16790SOL    HW251812   0.806   4.309   5.189  0.0465 -0.7834  0.1584
16791SOL     OW51813   1.696   4.259   3.874 -0.1103  0.3929 -0.0226
16791SOL    HW151814   1.756   4.187   3.855  0.3571  0.8427 -0.2881
16791SOL    HW251815   1.632   4.257   3.803 -1.8311 -1.5391  1.4797
16792SOL     OW51816   2.281   7.722   4.198  0.8097 -0.0737  0.2080
16792SOL    HW151817   2.345   7.787   4.228 -0.0006  1.7104 -1.6803
16792SOL    HW251818   2.196   7.765   4.212  0.2848 -0.3549 -1.7943
16793SOL     OW51819   3.469   0.351   0.145 -0.0610  0.0544  0.1205
16793SOL    HW151820   3.417   0.311   0.214 -1.7134  0.1245 -1.0315
16793SOL    HW251821   3.502   0.277   0.093 -1.6882  0.0676 -0.9979
16794SOL     OW51822   0.827   0.257  10.159 -0.0905  0.3922 -0.2276
16794SOL    HW151823   0.769   0.230  10.230  0.5159 -2.1100 -0.5659
16794SOL    HW251824   0.775   0.245  10.080  0.6687 -1.5163 -0.5035
16795SOL     OW51825   6.511   0.648   4.909 -0.6031 -0.5682 -0.3941
16795SOL    HW151826   6.424   0.677   4.935 -1.2815 -1.8729 -1.1385
16795SOL    HW251827   6.497   0.567   4.861  0.6472  1.0010 -3.7637
16796SOL     OW51828   6.990   4.707  11.382  0.3488 -0.1631 -0.0719
16796SOL    HW151829   7.006   4.688  11.290  1.5037  1.9965 -0.3968
16796SOL    HW251830   6.898   4.735  11.385  0.1273 -0.8390 -0.4475
16797SOL     OW51831   6.982   0.046   4.386  0.3263 -0.2690 -0.4428
16797SOL    HW151832   7.023   0.007   4.308  0.5174 -3.7394  1.2126
16797SOL    HW251833   6.914  -0.016   4.411 -0.7857  1.5440  1.3034
16798SOL     OW51834   0.622   2.095   8.185  0.1933 -0.1120 -0.6166
16798SOL    HW151835   0.600   2.027   8.249  0.9909 -1.7525 -2.0232
16798SOL    HW251836   0.714   2.114   8.201  0.1337  0.1933 -0.6320
16799SOL     OW51837   5.207   2.516  11.224 -0.5473  0.0012  0.2734
16799SOL    HW151838   5.197   2.586  11.160 -1.4316 -0.4499 -0.0912
16799SOL    HW251839   5.118   2.490  11.246 -0.3205 -3.0705 -1.8847
16800SOL     OW51840   6.516   5.345   2.787 -0.1222  0.0189 -0.5851
16800SOL    HW151841   6.553   5.257   2.776  0.3801 -0.3454  2.9338
16800SOL    HW251842   6.547   5.374   2.872  0.2938  3.9905 -1.8827
16801SOL     OW51843   3.438   2.505   6.505 -0.2180 -0.4756 -0.5643
16801SOL    HW151844   3.408   2.447   6.435 -1.1463 -0.2636 -0.3596
16801SOL    HW251845   3.375   2.493   6.576 -0.9036  1.3246 -0.8001
16802SOL     OW51846   0.980   3.530   6.838  0.1468 -0.2014 -0.0883
16802SOL    HW151847   1.008   3.475   6.765  0.3660 -2.0631  1.3356
16802SOL    HW251848   1.062   3.555   6.881 -0.0845 -0.9340  0.7851
16803SOL     OW51849   1.676   2.995   1.461  0.4947  0.1624  0.0305
16803SOL    HW151850   1.738   2.966   1.527 -0.1798 -0.7626  0.2787
16803SOL    HW251851   1.632   3.071   1.500 -0.8993 -1.2182  1.2709
16804SOL     OW51852   0.868   4.127   3.012 -0.3429 -0.2757  0.4519
16804SOL    HW151853   0.857   4.203   2.953  2.6498 -0.8524 -1.0351
16804SOL    HW251854   0.911   4.163   3.089 -1.2242 -0.0656  0.8511
16805SOL     OW51855   4.880   1.952   9.686  0.1428  0.2661 -0.4638
16805SOL    HW151856   4.826   2.008   9.630  3.2518  1.4177 -2.5462
16805SOL    HW251857   4.938   2.012   9.732  1.3177 -1.0384 -0.1666
16806SOL     OW51858   6.821   3.585   0.271  0.5145  0.6271  0.4261
16806SOL    HW151859   6.753   3.570   0.206 -0.3397  1.9587  0.9451
16806SOL    HW251860   6.819   3.680   0.285  1.0510  0.4367  1.9664
16807SOL     OW51861   4.611   2.059   6.942  0.0130  0.6430  0.3326
16807SOL    HW151862   4.591   2.151   6.925  0.8824  0.8698  0.5137
16807SOL    HW251863   4.680   2.060   7.009  1.9450 -0.0579 -1.5503
16808SOL     OW51864   7.100   1.600   2.580 -0.3626  0.0499  0.3970
16808SOL    HW151865   7.073   1.670   2.522  2.0185  0.3535 -0.4490
16808SOL    HW251866   7.123   1.644   2.662 -0.6148  0.0354  0.4745
16809SOL     OW51867   1.693   0.930   5.487 -0.2833 -0.4614 -0.1888
16809SOL    HW151868   1.757   0.904   5.421  0.3972  2.7031 -0.9376
16809SOL    HW251869   1.609   0.923   5.442  0.1099  0.9372 -1.2021
16810SOL     OW51870   2.113   6.326   2.636 -0.4868 -0.3445  0.1977
16810SOL    HW151871   2.207   6.337   2.647 -0.7029  0.3960  1.4349
16810SOL    HW251872   2.104   6.247   2.581  0.8705  0.6476 -1.5401
16811SOL     OW51873   6.174   0.563  10.432  0.1387 -0.2340  0.0243
16811SOL    HW151874   6.248   0.593  10.380  0.1828 -0.3066  0.0453
16811SOL    HW251875   6.170   0.625  10.505  0.1353 -0.1888 -0.0139
16812SOL     OW51876   2.145   1.192   4.723  0.5143  0.0178  0.4891
16812SOL    HW151877   2.124   1.106   4.760 -0.7324  0.4437  0.7897
16812SOL    HW251878   2.219   1.223   4.776 -0.4578  0.0847  1.8641
16813SOL     OW51879   1.781   7.116   1.489  0.0914 -0.2860  0.2817
16813SOL    HW151880   1.816   7.132   1.401 -1.2189 -2.7181 -0.7900
16813SOL    HW251881   1.698   7.071   1.474 -1.3815  1.3831  2.7846
16814SOL     OW51882   6.599   4.491  11.729 -0.0357 -0.0954 -0.8247
16814SOL    HW151883   6.667   4.459  11.670  0.7386 -1.5224  0.7885
16814SOL    HW251884   6.526   4.513  11.671  0.1235 -2.8668 -2.2385
16815SOL     OW51885   4.683   0.717   7.609 -0.5240 -0.0345 -0.1630
16815SOL    HW151886   4.632   0.776   7.553 -1.2495 -0.3705  0.1320
16815SOL    HW251887   4.744   0.774   7.654 -0.7141  0.3961 -0.4425
16816SOL     OW51888   2.094   4.461   7.137 -0.3053 -0.2073  0.0895
16816SOL    HW151889   2.072   4.483   7.046  0.9393  1.0014  0.0577
16816SOL    HW251890   2.046   4.380   7.154 -0.2299 -0.6849 -1.7842
16817SOL     OW51891   0.798   1.941  10.691  0.3891  0.7546 -0.3996
16817SOL    HW151892   0.795   1.873  10.624 -0.4020 -2.0295  2.2356
16817SOL    HW251893   0.706   1.958  10.712  0.6272  1.5121  0.0753
16818SOL     OW51894   1.228   3.629   9.283 -0.0779 -0.1951 -0.0431
16818SOL    HW151895   1.270   3.610   9.366 -0.2206 -2.0194 -0.3299
16818SOL    HW251896   1.266   3.711   9.254  1.9269 -0.8561  0.5776
16819SOL     OW51897   0.465   1.698   8.704  0.1095  0.3469 -0.2216
16819SOL    HW151898   0.479   1.793   8.711 -0.1202  0.4319 -0.8658
16819SOL    HW251899   0.554   1.661   8.704  0.2199  0.6020 -0.4844
16820SOL     OW51900   0.562   2.744  11.473  0.0497  0.4591  0.1353
16820SOL    HW151901   0.565   2.652  11.498  0.8814  0.2938 -0.5216
16820SOL    HW251902   0.478   2.756  11.431 -0.5023  0.2542  1.1461
16821SOL     OW51903   4.003   2.220   3.303  0.3097 -0.2789 -0.8229
16821SOL    HW151904   3.956   2.298   3.272  1.0075 -0.7551 -3.2536
16821SOL    HW251905   4.030   2.174   3.223  3.4101 -0.9263  0.4364
16822SOL     OW51906   0.521   5.107  10.339 -0.2902  0.0093  0.0429
16822SOL    HW151907   0.563   5.034  10.293  0.8160  0.7863 -0.2012
16822SOL    HW251908   0.469   5.065  10.407 -0.4105 -1.0557 -0.6739
16823SOL     OW51909   7.506   1.051   3.667 -0.1338 -0.1339  0.1410
16823SOL    HW151910   7.546   1.104   3.598 -1.5566  1.1366  0.2458
16823SOL    HW251911   7.475   1.114   3.731  0.5480 -1.2563  1.6421
16824SOL     OW51912   2.350   1.462   6.707  0.2274 -0.3462 -0.0823
16824SOL    HW151913   2.292   1.428   6.774  0.4748 -0.2810  0.1647
16824SOL    HW251914   2.436   1.428   6.730  0.0095 -1.9366 -1.4489
16825SOL     OW51915   2.098   7.145   7.624 -0.2545 -0.1639  0.1935
16825SOL    HW151916   2.094   7.148   7.719 -1.8516 -2.2574  0.2470
16825SOL    HW251917   2.101   7.052   7.602 -1.2302  0.2131 -1.8137
16826SOL     OW51918   6.389   4.825   4.727 -0.4015  0.5705  0.1074
16826SOL    HW151919   6.434   4.869   4.800  0.2200  1.6423 -0.8917
16826SOL    HW251920   6.296   4.838   4.746 -0.2483  0.6957  0.8026
16827SOL     OW51921   5.752   4.385   9.326 -0.5911  0.2820 -0.1042
16827SOL    HW151922   5.698   4.345   9.258 -0.9192  2.0220 -0.9015
16827SOL    HW251923   5.842   4.373   9.295 -0.7349  1.0078 -0.8437
16828SOL     OW51924   5.238   7.495   0.248 -0.0182 -0.3473 -0.1814
16828SOL    HW151925   5.318   7.487   0.299 -0.7639  0.7728  1.2261
16828SOL    HW251926   5.169   7.459   0.304 -0.9812  1.6202 -0.0336
16829SOL     OW51927   3.659   7.962   7.988  0.2301 -0.1802 -0.3828
16829SOL    HW151928   3.705   7.960   8.072 -1.0882  1.3787  0.4333
16829SOL    HW251929   3.603   7.884   7.989 -1.4183  0.9256  1.2468
16830SOL     OW51930   7.695   0.106  11.819  0.8174  0.6669 -0.2768
16830SOL    HW151931   7.621   0.159  11.847  1.0578  1.1779 -0.5976
16830SOL    HW251932   7.665   0.015  11.830 -0.6866  0.8149 -2.5158
16831SOL     OW51933   3.335   1.366  10.230 -0.3984  0.2375 -0.4236
16831SOL    HW151934   3.406   1.420  10.197 -0.0467  0.0860  0.0744
16831SOL    HW251935   3.300   1.414  10.305 -0.2105 -0.1260 -0.0979
16832SOL     OW51936   4.294   1.084   8.546  0.4514 -0.1330 -0.0850
16832SOL    HW151937   4.272   1.170   8.508 -0.9660  0.3965  1.7861
16832SOL    HW251938   4.255   1.021   8.485 -0.1329  0.6281 -0.5247
16833SOL     OW51939   3.437   0.104   1.996  1.1273 -0.2287 -0.3392
16833SOL    HW151940   3.444   0.032   2.059  0.7354 -1.2477 -1.4369
16833SOL    HW251941   3.440   0.183   2.050  0.4410 -1.0784  0.9903
16834SOL     OW51942   5.809   6.993   6.702  0.2645 -0.6643  0.1257
16834SOL    HW151943   5.879   6.962   6.645 -0.6341 -1.0225 -0.8277
16834SOL    HW251944   5.763   6.913   6.729 -0.3883 -0.3734 -0.0939
16835SOL     OW51945   4.775   6.135   9.944 -0.1425  0.7957 -0.3200
16835SOL    HW151946   4.709   6.118  10.010  0.4159 -1.1732 -0.2197
16835SOL    HW251947   4.848   6.173   9.992  0.4899 -1.1632  0.3622
16836SOL     OW51948   4.499   4.255   1.382 -0.0270  0.0903  0.3733
16836SOL    HW151949   4.490   4.303   1.299  1.1764 -1.4323 -0.6901
16836SOL    HW251950   4.567   4.302   1.430  0.1393  0.2681 -0.0349
16837SOL     OW51951   3.514   7.712  11.355  0.3792  0.5429  0.0575
16837SOL    HW151952   3.521   7.777  11.285 -0.4311 -2.2570 -2.8815
16837SOL    HW251953   3.465   7.640  11.316 -0.7486 -0.9579  3.8171
16838SOL     OW51954   2.149   7.089   4.024 -0.5384 -0.3449  0.0513
16838SOL    HW151955   2.143   7.010   4.078 -0.2621  0.3161  1.0731
16838SOL    HW251956   2.073   7.085   3.967 -1.1633 -0.7601  0.8981
16839SOL     OW51957   2.409   2.942   1.856 -0.0934 -0.8420  0.4480
16839SOL    HW151958   2.345   2.878   1.824 -1.6377 -0.3623  2.3956
16839SOL    HW251959   2.486   2.890   1.876 -0.1502 -1.5781 -1.0561
16840SOL     OW51960   6.257   4.787   8.833  0.2238  0.3414 -1.0604
16840SOL    HW151961   6.341   4.748   8.859  0.0884  0.7222 -0.0050
16840SOL    HW251962   6.246   4.760   8.742  0.7996 -0.9243 -0.7815
16841SOL     OW51963   4.213   6.734   1.794  0.0222 -0.2312 -0.0771
16841SOL    HW151964   4.178   6.687   1.870  1.3882 -1.3837 -0.1428
16841SOL    HW251965   4.256   6.811   1.832 -1.5188  0.5926  0.0881
16842SOL     OW51966   5.411   5.262   5.554  0.2358  0.2478 -0.0378
16842SOL    HW151967   5.504   5.266   5.530  0.3326  0.1868  0.3276
16842SOL    HW251968   5.409   5.213   5.636 -0.4320 -2.5896 -1.6388
16843SOL     OW51969   1.137   3.133   4.524 -0.0293 -0.5918 -0.2598
16843SOL    HW151970   1.227   3.140   4.491  0.4508  1.0396  1.2573
16843SOL    HW251971   1.100   3.220   4.511 -1.7344 -1.4691 -1.6608
16844SOL     OW51972   7.235   7.060  11.106 -0.3325 -0.2600  0.4814
16844SOL    HW151973   7.266   7.035  11.019  0.1555 -0.6091  0.7549
16844SOL    HW251974   7.240   6.979  11.157  0.0025  0.0947  1.0110
16845SOL     OW51975   6.274   3.579   4.161 -0.3584  0.5002  0.2315
16845SOL    HW151976   6.309   3.611   4.244 -1.3098  1.2692  0.3606
16845SOL    HW251977   6.324   3.627   4.094 -1.2634  1.7719  0.4164
16846SOL     OW51978   5.164   5.572   5.473  0.7486  0.0382  0.0897
16846SOL    HW151979   5.133   5.485   5.499  0.7325 -0.1258 -0.4826
16846SOL    HW251980   5.164   5.622   5.555 -0.6583 -0.0692  0.1867
16847SOL     OW51981   6.349   5.533   3.804  0.0493 -0.1500  0.7540
16847SOL    HW151982   6.385   5.614   3.770 -0.4124  0.2545  1.2002
16847SOL    HW251983   6.396   5.464   3.758  1.3815  0.3545  1.3227
16848SOL     OW51984   1.578   6.082  11.126 -0.1587 -0.0640 -0.7198
16848SOL    HW151985   1.663   6.090  11.083  0.2635 -2.7140 -0.5618
16848SOL    HW251986   1.560   6.169  11.160  2.0875  0.7793 -1.4880
16849SOL     OW51987   3.853   3.378  12.391 -0.1184 -0.0924 -0.1789
16849SOL    HW151988   3.931   3.376  12.336  0.2320 -0.6083  0.3278
16849SOL    HW251989   3.788   3.425  12.339  0.3431 -0.1853 -0.8478
16850SOL     OW51990   6.411   5.553   1.130  0.3550 -0.3549  0.0028
16850SOL    HW151991   6.363   5.536   1.049  1.5151 -0.9632 -0.5976
16850SOL    HW251992   6.497   5.512   1.115  1.4773  1.6549  0.5517
16851SOL     OW51993   1.665   2.375   6.957 -0.0742 -0.2712  0.0363
16851SOL    HW151994   1.726   2.394   6.886  0.4629 -0.1432  0.5248
16851SOL    HW251995   1.690   2.435   7.028 -1.9135  1.0808 -0.3732
16852SOL     OW51996   2.187   4.997   0.877 -0.0907  0.4592 -0.4901
16852SOL    HW151997   2.240   4.924   0.909 -1.9924 -0.5945  0.4254
16852SOL    HW251998   2.236   5.075   0.904  0.1672 -0.4292  1.8867
16853SOL     OW51999   0.387   1.351   0.579 -0.1995  0.0631  0.4269
16853SOL    HW152000   0.386   1.446   0.568 -0.0159  0.1440  1.1134
16853SOL    HW252001   0.420   1.318   0.496 -1.7981  0.5074 -0.4358
16854SOL     OW52002   3.360   6.781   0.691  0.2230 -0.7637 -0.3299
16854SOL    HW152003   3.309   6.840   0.746  0.8202 -0.7103  0.1796
16854SOL    HW252004   3.414   6.731   0.752  0.6306 -0.9562 -0.8367
16855SOL     OW52005   3.129   7.680  10.537  0.1344  0.5967 -0.3437
16855SOL    HW152006   3.047   7.720  10.508 -0.6169  1.4321  2.5997
16855SOL    HW252007   3.183   7.754  10.566  0.1049 -0.1899  1.9404
16856SOL     OW52008   3.766   3.787   1.897  0.3328  0.2019  0.4564
16856SOL    HW152009   3.792   3.706   1.854  0.2764 -0.1233  1.0272
16856SOL    HW252010   3.676   3.771   1.927 -0.2879  1.0556 -0.8635
16857SOL     OW52011   7.305   5.446  11.842 -0.2609  0.1343 -0.2749
16857SOL    HW152012   7.326   5.423  11.933 -0.5828 -0.3846 -0.3280
16857SOL    HW252013   7.265   5.367  11.806 -2.2033  1.0473 -0.2236
16858SOL     OW52014   2.755   7.982  11.131 -0.3550 -0.4842  0.5388
16858SOL    HW152015   2.813   7.923  11.083  1.0315 -0.3197  1.9317
16858SOL    HW252016   2.669   7.968  11.091  0.6780 -0.3330 -1.9884
16859SOL     OW52017   3.018   5.359   8.735  0.5202 -0.4797 -0.1892
16859SOL    HW152018   2.946   5.296   8.750  0.2554  0.0148  0.6906
16859SOL    HW252019   3.074   5.315   8.671  0.5657 -1.8066  0.7104
16860SOL     OW52020   0.634   4.378   4.627 -0.3210 -0.2513 -0.0586
16860SOL    HW152021   0.619   4.334   4.543  0.2374  0.0104 -0.2948
16860SOL    HW252022   0.603   4.315   4.692 -1.6743 -0.0717 -0.4887
16861SOL     OW52023   1.317   1.186   6.924 -0.1315  0.0584  0.0281
16861SOL    HW152024   1.272   1.208   6.843  0.4338  0.4923 -0.1774
16861SOL    HW252025   1.388   1.129   6.898  0.5238  0.8146  0.1026
16862SOL     OW52026   5.194   3.462   7.176  0.1795  0.5451 -0.1080
16862SOL    HW152027   5.155   3.412   7.104 -0.5343  1.1572 -0.1513
16862SOL    HW252028   5.159   3.550   7.166  2.1095  1.3090 -0.5626
16863SOL     OW52029   1.234   7.505   9.170 -0.8497 -0.2754 -0.0493
16863SOL    HW152030   1.328   7.518   9.153 -0.9613  0.3198 -0.2364
16863SOL    HW252031   1.214   7.419   9.132 -0.0873 -1.0304  1.1847
16864SOL     OW52032   6.339   2.565   6.522  0.3737 -0.5754  0.2715
16864SOL    HW152033   6.307   2.615   6.448 -1.1180 -1.9384 -0.0510
16864SOL    HW252034   6.432   2.553   6.504 -0.0443 -1.2561 -1.6242
16865SOL     OW52035   0.581   7.837   5.418 -0.2568 -0.4035 -0.7874
16865SOL    HW152036   0.594   7.900   5.489 -0.3376  1.2957 -2.2089
16865SOL    HW252037   0.496   7.861   5.380  0.0316 -0.9159 -1.7956
16866SOL     OW52038   3.886   1.073  11.789  0.7862 -0.5276 -0.3972
16866SOL    HW152039   3.903   1.134  11.718  2.9954 -1.4977 -0.7805
16866SOL    HW252040   3.898   0.986  11.751  1.2578 -1.0960  0.9741
16867SOL     OW52041   0.013   2.631   8.135  0.1765  0.0046  0.2049
16867SOL    HW152042  -0.051   2.648   8.067  1.4888 -1.7465 -1.5638
16867SOL    HW252043   0.067   2.711   8.137  0.9426 -0.3992 -1.8250
16868SOL     OW52044   3.694   3.562  11.934 -0.2501  0.1536 -0.3953
16868SOL    HW152045   3.767   3.575  11.996 -1.8300  0.4773  1.4975
16868SOL    HW252046   3.680   3.649  11.897 -0.4839  0.3827  0.2107
16869SOL     OW52047   4.921   5.070   9.257 -0.0963 -0.2668  0.1644
16869SOL    HW152048   4.872   5.109   9.329 -2.6360 -0.2579 -1.4401
16869SOL    HW252049   5.012   5.071   9.286 -0.7028  2.0311  2.3169
16870SOL     OW52050   6.195   0.409   8.180  0.3084 -0.2503 -0.4850
16870SOL    HW152051   6.103   0.389   8.160 -0.0905 -0.1827  1.1833
16870SOL    HW252052   6.237   0.324   8.185  0.0675 -0.3440 -0.0253
16871SOL     OW52053   7.870   5.415  10.924  0.3108 -0.4066 -0.3906
16871SOL    HW152054   7.868   5.328  10.884  0.1229 -0.0534 -1.1674
16871SOL    HW252055   7.893   5.474  10.853 -0.5937  0.3054 -0.1214
16872SOL     OW52056   7.622   3.158   4.820  0.3061  0.3052 -0.2737
16872SOL    HW152057   7.694   3.104   4.854  0.2553  1.1578  1.3069
16872SOL    HW252058   7.554   3.153   4.888 -0.4359  0.8760 -0.9511
16873SOL     OW52059   7.329   3.222   1.225 -0.0167 -0.2780  0.2201
16873SOL    HW152060   7.364   3.262   1.145  1.3672  0.4178  1.1379
16873SOL    HW252061   7.309   3.132   1.199  1.0033 -0.2509 -0.7713
16874SOL     OW52062   1.056   1.537  10.031 -0.6049  0.0795  0.3180
16874SOL    HW152063   1.114   1.484  10.086 -0.5040 -1.1341 -0.9137
16874SOL    HW252064   0.968   1.503  10.050 -0.6155 -0.0229  0.0924
16875SOL     OW52065   2.929   3.006   1.556  0.3368  0.1576  0.3898
16875SOL    HW152066   2.840   3.041   1.554 -0.2073 -1.1257  0.9541
16875SOL    HW252067   2.971   3.043   1.478 -1.2523 -0.6122 -0.9074
16876SOL     OW52068   3.619   0.901  12.475  0.0427  0.2645 -0.1635
16876SOL    HW152069   3.559   0.934  12.542  1.5930  1.1944  0.8203
16876SOL    HW252070   3.655   0.820  12.512  1.5308  1.2144  0.5396
16877SOL     OW52071   4.525   5.332   2.726 -0.3741  0.0712  0.0858
16877SOL    HW152072   4.536   5.375   2.811  1.5547  1.1675 -0.6562
16877SOL    HW252073   4.612   5.297   2.706 -0.9294 -0.6033 -1.2198
16878SOL     OW52074   6.684   7.506   6.294  0.6769 -0.2005  0.4561
16878SOL    HW152075   6.676   7.601   6.296 -1.0748 -0.2985 -0.4775
16878SOL    HW252076   6.695   7.485   6.201 -0.2003 -0.9828  0.5169
16879SOL     OW52077   0.427   4.678   0.149  0.1288  0.0539 -0.0878
16879SOL    HW152078   0.423   4.720   0.063  0.9528  0.5756  0.1171
16879SOL    HW252079   0.467   4.744   0.206  0.5694 -0.6711  0.4574
16880SOL     OW52080   1.316   2.401   6.008 -0.3744 -0.8937  0.1262
16880SOL    HW152081   1.321   2.387   6.102 -2.7139 -0.2714  0.4019
16880SOL    HW252082   1.259   2.477   5.997  0.9805 -0.0573 -1.7791
16881SOL     OW52083   6.360   0.280   6.788  0.7915 -0.1049 -0.2800
16881SOL    HW152084   6.355   0.328   6.706 -0.0153  0.7229  0.2267
16881SOL    HW252085   6.281   0.306   6.836  1.3882 -0.3343  0.8739
16882SOL     OW52086   2.929   4.840   1.770  0.6174 -0.1153  0.2426
16882SOL    HW152087   2.972   4.755   1.779  0.2864 -0.2650  0.4189
16882SOL    HW252088   2.839   4.825   1.801  0.0945 -0.0967 -1.1604
16883SOL     OW52089   2.925   3.296   8.853  0.2074 -0.3818 -0.2865
16883SOL    HW152090   2.946   3.389   8.867  3.3850 -1.2205  1.7556
16883SOL    HW252091   2.937   3.283   8.759  0.0433  1.1950 -0.5584
16884SOL     OW52092   3.010   0.462  12.076 -0.1029 -0.4773 -0.4584
16884SOL    HW152093   2.936   0.402  12.065 -1.1232  1.1620 -3.8301
16884SOL    HW252094   2.986   0.514  12.153 -0.2008 -2.8519  1.2390
16885SOL     OW52095   2.790   6.027   9.227  0.4003  0.1409 -0.5110
16885SOL    HW152096   2.811   5.962   9.160 -0.2669 -2.5320  1.6824
16885SOL    HW252097   2.725   6.084   9.186  1.5313 -0.0705 -2.7660
16886SOL     OW52098   3.984   5.866   4.597  0.0687 -0.7596 -0.3035
16886SOL    HW152099   3.896   5.849   4.564 -0.7566  0.3359  1.1812
16886SOL    HW252100   3.990   5.814   4.677  0.5558 -0.3811 -0.0922
16887SOL     OW52101   7.639   2.261   9.379 -0.1015  0.3488  0.1496
16887SOL    HW152102   7.629   2.329   9.446 -0.0362  1.8127 -1.2454
16887SOL    HW252103   7.615   2.305   9.297 -0.0163 -1.3265 -0.8175
16888SOL     OW52104   1.385   5.390  12.062  0.0457 -0.2938  0.3882
16888SOL    HW152105   1.397   5.341  11.981  0.7623 -0.7289  0.7384
16888SOL    HW252106   1.472   5.392  12.102 -0.0401  1.0009  0.5448
16889SOL     OW52107   6.792   3.533  10.116 -0.0243  0.3564  0.1504
16889SOL    HW152108   6.801   3.463  10.052  1.4763 -0.6277  1.3658
16889SOL    HW252109   6.725   3.503  10.177  0.9910 -0.2968  0.9710
16890SOL     OW52110   1.507   7.671   7.060 -0.1889 -0.4665  0.0401
16890SOL    HW152111   1.456   7.594   7.083 -0.4545 -0.5460 -0.7904
16890SOL    HW252112   1.575   7.638   7.001  1.8412 -0.6451  2.3513
16891SOL     OW52113   1.060   7.641   3.056  0.2773 -0.2093  0.5548
16891SOL    HW152114   0.971   7.608   3.042  0.3746 -0.4249  0.4380
16891SOL    HW252115   1.103   7.630   2.972  0.4183 -0.1106  0.6139
16892SOL     OW52116   5.396   3.994   3.341 -0.0581  0.4758  0.3132
16892SOL    HW152117   5.411   4.059   3.409  0.4244  0.7813 -0.0776
16892SOL    HW252118   5.472   4.001   3.284 -0.6216  0.4608 -0.4531
16893SOL     OW52119   7.383   5.962   3.371 -0.5530  0.1679  0.6650
16893SOL    HW152120   7.474   5.991   3.377 -0.8613  0.9119  4.3233
16893SOL    HW252121   7.386   5.867   3.383 -0.2390  0.1725  0.6126
16894SOL     OW52122   1.977   5.595  10.212 -1.1470 -0.2660  0.3830
16894SOL    HW152123   1.889   5.630  10.220 -0.9173  0.2106  0.8787
16894SOL    HW252124   2.024   5.630  10.287 -0.1895  0.5387 -0.5515
16895SOL     OW52125   4.858   2.477  11.637 -0.2397 -0.2253  0.3175
16895SOL    HW152126   4.927   2.528  11.593 -0.5344 -0.8455 -0.8976
16895SOL    HW252127   4.843   2.524  11.719  0.8976  0.5110  0.1334
16896SOL     OW52128   6.244   6.718  10.568 -0.1237 -0.3486  0.4899
16896SOL    HW152129   6.195   6.677  10.639  0.2678 -1.5382  0.0971
16896SOL    HW252130   6.226   6.664  10.491  0.8303 -0.1037  0.0738
16897SOL     OW52131   2.767   2.199   8.588  0.0035  0.4679  0.2542
16897SOL    HW152132   2.850   2.188   8.542  1.1012  0.2466  2.1530
16897SOL    HW252133   2.790   2.194   8.681 -2.4937 -2.2302  0.8866
16898SOL     OW52134   5.676   5.466  11.024  0.6773  0.5642  0.6544
16898SOL    HW152135   5.584   5.488  11.008  0.6024  0.3256  0.7528
16898SOL    HW252136   5.687   5.379  10.986  0.6041  0.1606  1.5321
16899SOL     OW52137   6.834   0.454   9.861  0.2324  0.0171 -0.0985
16899SOL    HW152138   6.822   0.488   9.950  0.5458 -0.4851  0.1350
16899SOL    HW252139   6.753   0.479   9.815 -0.4061 -0.6500  0.6241
16900SOL     OW52140   3.912   0.265   6.786  0.0552  0.0319 -0.0378
16900SOL    HW152141   3.860   0.224   6.716  0.8298 -1.3887  0.1769
16900SOL    HW252142   3.995   0.217   6.785  0.0796 -0.0304  1.8558
16901SOL     OW52143   0.772   1.253   3.168 -0.2378 -0.2943 -0.0269
16901SOL    HW152144   0.716   1.225   3.096 -0.8945 -1.7721  1.0101
16901SOL    HW252145   0.813   1.334   3.137  0.4055 -1.4756 -2.5103
16902SOL     OW52146   3.528   3.731  10.613  0.5966 -0.0658 -0.2736
16902SOL    HW152147   3.606   3.746  10.667 -0.0705 -0.3373  0.8095
16902SOL    HW252148   3.459   3.780  10.657  0.1558  0.2298 -1.2629
16903SOL     OW52149   7.808   3.383   0.872 -0.2500 -0.1404 -0.9727
16903SOL    HW152150   7.805   3.453   0.806  0.8913  0.3462 -0.5298
16903SOL    HW252151   7.870   3.415   0.938 -2.4439  0.0407  1.1292
16904SOL     OW52152   3.860   6.724  12.112  0.3863 -0.0973 -0.7023
16904SOL    HW152153   3.828   6.644  12.070  1.4688  0.5002 -2.7802
16904SOL    HW252154   3.932   6.694  12.168 -0.3424 -0.7686 -0.1003
16905SOL     OW52155   1.753   5.031   3.771 -0.1236  0.0866 -0.3104
16905SOL    HW152156   1.680   5.035   3.834 -0.8292  0.5583 -1.1366
16905SOL    HW252157   1.802   4.953   3.797 -0.2514  0.4176  0.9834
16906SOL     OW52158   2.044   7.217   2.453 -0.0108  0.3250 -0.4407
16906SOL    HW152159   2.110   7.199   2.521  1.2753 -0.6786 -1.8877
16906SOL    HW252160   1.962   7.183   2.490  0.7058 -0.4389  0.5140
16907SOL     OW52161   4.921   4.339   2.987  0.1290  0.3342 -0.1655
16907SOL    HW152162   4.830   4.351   2.959 -0.4013 -0.8028  0.9783
16907SOL    HW252163   4.923   4.252   3.026  1.6370  0.4919  0.1734
16908SOL     OW52164   4.106   1.393   8.183 -0.4897 -0.1855 -0.3961
16908SOL    HW152165   4.039   1.462   8.180 -1.1968 -0.8802 -1.0423
16908SOL    HW252166   4.067   1.320   8.136  1.0738 -0.3262 -1.5641
16909SOL     OW52167   6.763   6.300  12.176 -0.2256  0.1308 -0.4374
16909SOL    HW152168   6.733   6.368  12.236  1.2541 -0.2403  0.7735
16909SOL    HW252169   6.710   6.224  12.198  0.0466  0.1041  0.1390
16910SOL     OW52170   1.290   1.672   7.476  0.3281 -0.1809 -0.4378
16910SOL    HW152171   1.212   1.710   7.516  0.2928 -0.6319 -0.0767
16910SOL    HW252172   1.335   1.747   7.436  0.5912  0.3580  0.8181
16911SOL     OW52173   5.118   6.749   3.933 -0.0309  0.4932 -0.4265
16911SOL    HW152174   5.038   6.801   3.948  0.2181  0.5777  0.6844
16911SOL    HW252175   5.105   6.669   3.984  0.2280  0.1169 -0.9426
16912SOL     OW52176   7.761   4.974   1.402  0.6804 -0.5013  0.1321
16912SOL    HW152177   7.771   5.065   1.373  0.6454 -0.1597  1.1648
16912SOL    HW252178   7.832   4.927   1.357  1.2432  0.1987  0.2623
16913SOL     OW52179   3.383   7.153   3.971 -0.1869 -0.0739  0.8868
16913SOL    HW152180   3.458   7.107   4.007  0.0012  0.4730  1.2152
16913SOL    HW252181   3.417   7.240   3.947 -0.5134 -0.1215  0.2176
16914SOL     OW52182   1.637   5.922  10.273 -0.1990 -0.2301 -0.0518
16914SOL    HW152183   1.729   5.935  10.251  0.4412 -1.2684  1.7234
16914SOL    HW252184   1.610   5.847  10.220 -0.5558  1.0646 -1.7920
16915SOL     OW52185   4.242   4.604  11.934  0.1681  0.1543 -0.0382
16915SOL    HW152186   4.197   4.574  12.013  0.0063  0.0481 -0.1670
16915SOL    HW252187   4.244   4.526  11.878 -0.2505  0.3815 -0.3766
16916SOL     OW52188   7.363   6.007   3.102  0.3520  0.2711 -0.5297
16916SOL    HW152189   7.318   6.085   3.070  1.3414  1.1426  0.1271
16916SOL    HW252190   7.345   6.006   3.196 -1.1915 -1.3588 -0.7950
16917SOL     OW52191   6.323   4.826   4.472  0.2793 -0.1377  0.9668
16917SOL    HW152192   6.366   4.823   4.558 -0.6486  0.7648  1.4769
16917SOL    HW252193   6.231   4.840   4.492 -0.2260 -1.6874 -0.1377
16918SOL     OW52194   4.431   2.784   2.205 -0.4039  0.1520  0.2222
16918SOL    HW152195   4.372   2.711   2.225 -1.0060  0.5326 -0.1393
16918SOL    HW252196   4.513   2.761   2.249 -0.6527 -0.6402  0.2903
16919SOL     OW52197   4.193   4.190   6.391 -0.0233  0.1994  0.1038
16919SOL    HW152198   4.215   4.275   6.429 -0.1259  0.0608  0.4699
16919SOL    HW252199   4.097   4.189   6.388 -0.0602  1.4643 -2.9519
16920SOL     OW52200   7.228   0.295  11.197  0.5801  0.2889 -0.3688
16920SOL    HW152201   7.200   0.218  11.246  0.3427  0.8270  0.3569
16920SOL    HW252202   7.262   0.355  11.263 -2.9278  2.4904 -0.3090
16921SOL     OW52203   5.403   6.342   6.661 -0.0172 -0.2214 -0.3365
16921SOL    HW152204   5.375   6.430   6.687  0.6948 -0.7444  2.5937
16921SOL    HW252205   5.498   6.344   6.671  0.0477 -1.1662 -0.7493
16922SOL     OW52206   5.757   3.224   7.944 -0.0855 -0.2746  0.0833
16922SOL    HW152207   5.692   3.178   7.998 -0.7425 -0.2428 -0.6628
16922SOL    HW252208   5.713   3.237   7.860  0.4765  0.7622 -0.0674
16923SOL     OW52209   0.452   7.737   4.503 -0.0351  0.2359 -0.2356
16923SOL    HW152210   0.469   7.643   4.503  1.6078  0.4702  1.9846
16923SOL    HW252211   0.357   7.744   4.516  0.1360 -1.1442  2.2184
16924SOL     OW52212   4.162   6.136   5.745  0.0588 -0.2699 -0.2190
16924SOL    HW152213   4.188   6.045   5.729 -1.8199 -0.9250  0.1707
16924SOL    HW252214   4.116   6.162   5.665 -1.1555 -0.3699  0.4246
16925SOL     OW52215   7.671   6.556   7.307 -0.1498 -0.7886 -0.6839
16925SOL    HW152216   7.654   6.648   7.328 -0.9014 -1.4285  1.9324
16925SOL    HW252217   7.584   6.518   7.298  0.1588 -1.1466 -2.5267
16926SOL     OW52218   3.680   4.494   9.253  0.1781 -0.2561  0.4305
16926SOL    HW152219   3.702   4.584   9.278 -0.4021  0.0380 -0.0995
16926SOL    HW252220   3.596   4.478   9.294 -0.0568 -0.3026 -0.0646
16927SOL     OW52221   7.194   2.684   6.117 -1.0289  0.0028  0.1590
16927SOL    HW152222   7.128   2.751   6.134 -0.4413  0.8822 -0.8374
16927SOL    HW252223   7.256   2.692   6.189 -0.8026  0.7656 -0.1113
16928SOL     OW52224   7.002   5.283   3.188  0.5396  0.3132 -0.7091
16928SOL    HW152225   7.093   5.271   3.214 -0.2696 -0.2973  2.3394
16928SOL    HW252226   6.966   5.341   3.255 -1.2811  0.6682 -1.9284
16929SOL     OW52227   0.333   7.162   6.988  0.1008  0.6977 -0.5500
16929SOL    HW152228   0.352   7.120   7.072  1.4439  0.9276 -0.7199
16929SOL    HW252229   0.237   7.164   6.983  0.0102  0.0002  0.6270
16930SOL     OW52230   3.231   5.765   6.127 -0.4188  0.0802 -1.2350
16930SOL    HW152231   3.249   5.671   6.116  2.8399  0.4708 -0.3647
16930SOL    HW252232   3.182   5.771   6.209 -0.2551 -0.8164 -1.0654
16931SOL     OW52233   7.691   5.305   7.133  0.0645  0.0112  0.3359
16931SOL    HW152234   7.671   5.386   7.087  0.5137  0.2322  0.5186
16931SOL    HW252235   7.622   5.244   7.107 -0.2995  0.4649  0.2345
16932SOL     OW52236   2.643   5.595   6.497 -0.0418 -0.1735  0.8191
16932SOL    HW152237   2.591   5.515   6.506  0.0067 -0.2719  0.2264
16932SOL    HW252238   2.652   5.608   6.403 -0.5300  0.8516  0.9039
16933SOL     OW52239   3.844   2.334   6.353  0.1820  0.1617  0.0705
16933SOL    HW152240   3.935   2.360   6.369 -0.0148  0.7090  0.3122
16933SOL    HW252241   3.849   2.240   6.338  0.5886 -0.1037  1.7003
16934SOL     OW52242   3.452   6.294   9.761  0.0403 -0.3865  0.6123
16934SOL    HW152243   3.386   6.244   9.713 -0.0350  1.8376 -1.8594
16934SOL    HW252244   3.525   6.234   9.771  0.0463 -1.0580 -2.3947
16935SOL     OW52245   6.733   5.190   4.482  0.3460 -0.1698 -0.5106
16935SOL    HW152246   6.824   5.161   4.487  0.5714  0.6682  0.7727
16935SOL    HW252247   6.688   5.119   4.436  1.3356 -1.3878  0.3051
16936SOL     OW52248   0.051   5.575  10.063 -0.1913 -0.0716 -0.1325
16936SOL    HW152249   0.024   5.518  10.134  0.5160  2.0704  1.9909
16936SOL    HW252250   0.134   5.612  10.092 -0.5094  1.8474 -1.4639
16937SOL     OW52251   1.594   0.144   5.963 -0.2777 -0.1955 -0.1950
16937SOL    HW152252   1.612   0.219   6.020  1.9980 -1.1042  0.4011
16937SOL    HW252253   1.506   0.160   5.929 -0.1447  2.3784  0.4524
16938SOL     OW52254   2.915   4.720  11.438  0.1814  0.3409 -0.1966
16938SOL    HW152255   2.831   4.734  11.393 -1.1913  1.5381  2.5291
16938SOL    HW252256   2.970   4.793  11.410 -1.7579  2.9738  2.3007
16939SOL     OW52257   0.174   0.873   0.307  0.0326 -0.0790 -0.2693
16939SOL    HW152258   0.234   0.932   0.260  0.7759 -0.0374  0.7204
16939SOL    HW252259   0.157   0.802   0.244  1.9821 -0.6610 -0.2008
16940SOL     OW52260   7.221   4.909   1.003 -0.0288  0.2959  0.9927
16940SOL    HW152261   7.190   4.830   0.958  1.9958 -0.9508  1.6596
16940SOL    HW252262   7.272   4.955   0.936 -0.4424  0.5942  0.8737
16941SOL     OW52263   7.429   0.725   2.471 -0.2042  0.0278 -0.0741
16941SOL    HW152264   7.409   0.818   2.461  2.0015  0.6033  0.2505
16941SOL    HW252265   7.411   0.707   2.563 -0.4411  0.1914 -0.0872
16942SOL     OW52266   0.417   2.482   3.114  0.5194  0.2941  0.1592
16942SOL    HW152267   0.371   2.566   3.112 -1.6147 -0.8150 -1.3584
16942SOL    HW252268   0.510   2.505   3.115  0.0958  2.6706  3.5585
16943SOL     OW52269   3.186   4.137   2.396  0.1888 -0.1525  0.0170
16943SOL    HW152270   3.242   4.202   2.437 -1.1395 -0.3659  2.3435
16943SOL    HW252271   3.098   4.158   2.426 -0.3981 -2.4446  0.1018
16944SOL     OW52272   7.772   0.301   4.290  0.3367 -0.2672 -0.0936
16944SOL    HW152273   7.765   0.221   4.237  0.0119 -0.4359  0.1934
16944SOL    HW252274   7.866   0.311   4.306  0.4831  0.0903 -1.1487
16945SOL     OW52275   5.151   3.028  10.501  0.2717 -0.1083 -0.1456
16945SOL    HW152276   5.177   2.943  10.466  1.4571  0.0029  0.4154
16945SOL    HW252277   5.162   3.020  10.596 -3.0018 -0.4482  0.3091
16946SOL     OW52278   4.804   2.513   2.185 -0.4994  0.2582  0.0580
16946SOL    HW152279   4.834   2.590   2.135 -0.2309 -0.3758 -0.7852
16946SOL    HW252280   4.796   2.444   2.119 -0.7299 -0.4426  0.8087
16947SOL     OW52281   0.920   7.748   2.073 -0.4195 -0.0252  0.0989
16947SOL    HW152282   0.978   7.730   2.000  0.2854  0.1708  0.5979
16947SOL    HW252283   0.836   7.770   2.033  0.4638  2.0967 -0.7477
16948SOL     OW52284   4.284   3.475   7.401  0.2345 -0.1531  0.1131
16948SOL    HW152285   4.354   3.480   7.466 -0.1041 -2.3120  0.7404
16948SOL    HW252286   4.280   3.382   7.377 -0.8003  0.3181 -1.7286
16949SOL     OW52287   2.415   7.410   0.412 -0.0301 -0.0725 -0.2683
16949SOL    HW152288   2.459   7.495   0.416  0.7747 -0.5095  1.1005
16949SOL    HW252289   2.366   7.405   0.494 -1.7276 -0.1071 -1.2346
16950SOL     OW52290   0.225   5.598   4.894 -0.0221  0.1898  0.8319
16950SOL    HW152291   0.221   5.656   4.818  0.9039 -0.6644  0.1016
16950SOL    HW252292   0.174   5.521   4.867  0.8745 -0.4025  0.7987
16951SOL     OW52293   4.472   5.924   1.513  0.0336  0.1712  0.0244
16951SOL    HW152294   4.380   5.949   1.522 -0.5189 -1.8494  0.5503
16951SOL    HW252295   4.521   5.999   1.548 -1.3551  1.4735 -0.6918
16952SOL     OW52296   1.823   5.220   4.817  0.0032 -0.3554  0.0342
16952SOL    HW152297   1.803   5.142   4.868  0.1746 -1.1905 -1.1319
16952SOL    HW252298   1.797   5.293   4.874  0.7119 -1.2135  1.5104
16953SOL     OW52299   0.285   2.811   5.908 -0.6663  0.0532  0.0578
16953SOL    HW152300   0.331   2.735   5.944 -2.5529 -1.5667 -0.7570
16953SOL    HW252301   0.322   2.885   5.954  1.1944 -1.3521  0.9731
16954SOL     OW52302   7.752   5.626   9.442  0.0387 -0.3622  0.4538
16954SOL    HW152303   7.762   5.569   9.518  0.1159 -0.4701  0.3643
16954SOL    HW252304   7.677   5.681   9.462 -0.4040 -0.9000  0.2862
16955SOL     OW52305   5.600   3.499   2.819  0.1076  0.2848 -0.5195
16955SOL    HW152306   5.640   3.491   2.732  1.0155  2.0477 -0.3298
16955SOL    HW252307   5.506   3.502   2.803  0.2948  1.5342 -1.5826
16956SOL     OW52308   1.115   2.598  11.531  0.0628 -0.3759 -0.0846
16956SOL    HW152309   1.190   2.569  11.582 -0.5343  0.9148  1.6541
16956SOL    HW252310   1.144   2.595  11.440  1.9618 -0.5959  0.4913
16957SOL     OW52311   2.084   2.290   5.800  0.0514  0.4604  0.1938
16957SOL    HW152312   2.096   2.382   5.824  1.1214 -0.1745  2.3185
16957SOL    HW252313   2.170   2.261   5.771 -0.3181  0.1507 -0.6204
16958SOL     OW52314   6.244   5.091   1.925 -0.3823  0.3480 -0.1745
16958SOL    HW152315   6.185   5.030   1.880  1.1175 -0.4496 -1.1391
16958SOL    HW252316   6.240   5.064   2.017  0.1973 -1.1890 -0.5738
16959SOL     OW52317   7.667   0.463  10.320 -0.0640  0.4468 -0.1967
16959SOL    HW152318   7.606   0.455  10.393  0.3465 -1.3819  0.0051
16959SOL    HW252319   7.688   0.373  10.296  1.2643  1.0146 -1.3553
16960SOL     OW52320   4.649   3.508  11.023  0.1920 -0.2451  0.3423
16960SOL    HW152321   4.612   3.590  10.992  2.6175  0.6001 -0.4956
16960SOL    HW252322   4.599   3.440  10.976 -0.2595  0.8264 -0.7801
16961SOL     OW52323   0.059   0.765   6.318 -0.4331  0.0293  0.1201
16961SOL    HW152324   0.128   0.703   6.342  0.0052  0.1469 -0.8037
16961SOL    HW252325  -0.023   0.721   6.340 -0.0665  0.1017  1.7444
16962SOL     OW52326   7.864   5.787  10.101 -0.0645  0.1407  0.0910
16962SOL    HW152327   7.785   5.769  10.153  0.8206 -0.2211  1.3547
16962SOL    HW252328   7.903   5.701  10.087  1.3350  0.4851  1.5257
16963SOL     OW52329   6.423   6.218   1.831  0.0933 -0.1671 -0.4725
16963SOL    HW152330   6.419   6.145   1.893 -0.1907  0.5348  0.3526
16963SOL    HW252331   6.374   6.187   1.755 -1.0808 -0.4083  0.3495
16964SOL     OW52332   5.565   3.721  11.450 -0.3148  0.0665  0.2280
16964SOL    HW152333   5.587   3.721  11.357 -0.0936  0.4547  0.2775
16964SOL    HW252334   5.508   3.645  11.461 -2.1965  1.2461 -0.6584
16965SOL     OW52335   5.103   3.296  10.809 -0.6387  0.1190  0.9097
16965SOL    HW152336   5.038   3.333  10.870 -2.0800  0.0685 -0.5206
16965SOL    HW252337   5.064   3.309  10.723  0.3029 -1.8420  0.1311
16966SOL     OW52338   3.874   7.783   7.388  0.8268 -0.2725  0.6440
16966SOL    HW152339   3.843   7.712   7.331  1.0325  0.2360 -0.1214
16966SOL    HW252340   3.803   7.797   7.450 -0.1978  0.3752 -0.6193
16967SOL     OW52341   3.447   2.769   3.108  0.1730 -0.4581  0.7033
16967SOL    HW152342   3.363   2.812   3.124  0.2401  0.3577 -0.9267
16967SOL    HW252343   3.510   2.841   3.098  0.6481 -0.9766 -0.1741
16968SOL     OW52344   6.035   4.098   1.595  0.1241 -0.0147  0.2244
16968SOL    HW152345   5.949   4.123   1.560  1.1860  0.2695 -2.4112
16968SOL    HW252346   6.076   4.049   1.524  1.6889 -1.2320  1.8963
16969SOL     OW52347   2.155   0.458   7.998  0.3005 -0.1299 -0.2295
16969SOL    HW152348   2.145   0.368   8.028  1.2486  0.3968  1.8145
16969SOL    HW252349   2.249   0.474   8.001 -0.0014  1.5810  1.5705
16970SOL     OW52350   0.991   5.230   0.610  0.1889 -0.2106 -0.0879
16970SOL    HW152351   1.071   5.282   0.597 -0.9594  1.4762 -0.8442
16970SOL    HW252352   1.013   5.169   0.680  2.0723  0.3267 -0.1463
16971SOL     OW52353   7.169   6.559   3.443  0.3768  0.5255  0.2693
16971SOL    HW152354   7.080   6.558   3.478  0.2034 -0.6953 -0.1472
16971SOL    HW252355   7.167   6.495   3.372  1.4282  0.9560 -0.1680
16972SOL     OW52356   5.962   6.489   9.860 -0.5509  0.1728 -0.1256
16972SOL    HW152357   5.992   6.540   9.785 -0.5988 -1.0393 -1.0043
16972SOL    HW252358   5.875   6.523   9.879 -1.4631 -0.9122 -2.0325
16973SOL     OW52359   2.498   7.340   4.304  0.0414 -0.2198 -0.0635
16973SOL    HW152360   2.565   7.406   4.320  1.4578 -1.5889 -0.0656
16973SOL    HW252361   2.498   7.330   4.208 -0.0371 -0.3600 -0.0485
16974SOL     OW52362   4.298   6.962  10.235  0.8429 -0.0965 -0.2960
16974SOL    HW152363   4.303   7.040  10.291  3.0405  0.4950 -1.2002
16974SOL    HW252364   4.289   6.889  10.295  1.2012  0.6766  0.7142
16975SOL     OW52365   6.327   6.791   7.195 -1.0922 -0.2417 -0.0184
16975SOL    HW152366   6.363   6.706   7.219 -1.2317 -0.7554 -1.5384
16975SOL    HW252367   6.232   6.782   7.209 -0.8880  0.5705  2.3729
16976SOL     OW52368   6.231   3.527   3.350  0.0671  0.4796 -0.5272
16976SOL    HW152369   6.161   3.523   3.416 -0.1180 -0.2467 -0.7558
16976SOL    HW252370   6.206   3.599   3.292 -1.0271 -0.4017 -1.1867
16977SOL     OW52371   4.713   0.349   4.268  0.3578 -0.5788 -0.5179
16977SOL    HW152372   4.791   0.394   4.236  0.6364 -2.3024 -2.4366
16977SOL    HW252373   4.641   0.384   4.216  0.1387 -0.3568 -0.0717
16978SOL     OW52374   4.569   4.926   0.024  0.1384 -0.0431  0.3510
16978SOL    HW152375   4.508   4.864  -0.016 -0.2676  0.9478 -0.6566
16978SOL    HW252376   4.656   4.893   0.001 -0.0870  0.2575 -1.0065
16979SOL     OW52377   7.111   5.551  10.186 -0.1922  0.1399  0.2215
16979SOL    HW152378   7.066   5.575  10.267 -1.1719 -1.2629  0.1262
16979SOL    HW252379   7.055   5.584  10.117  0.0786  0.3524  0.1005
16980SOL     OW52380   4.511   3.627   1.435 -0.6889 -0.6127  0.3516
16980SOL    HW152381   4.600   3.653   1.410 -0.5654 -1.8737 -0.6649
16980SOL    HW252382   4.488   3.559   1.371 -1.5674 -1.8185  1.8858
16981SOL     OW52383   2.566   4.030   0.422 -0.2653  0.6232  0.8326
16981SOL    HW152384   2.611   4.091   0.363  0.2431  0.7607  1.3548
16981SOL    HW252385   2.599   4.052   0.509 -0.6103  0.0690  1.1094
16982SOL     OW52386   4.245   1.471   3.193  0.0617  0.5504  0.6158
16982SOL    HW152387   4.236   1.513   3.108 -0.1300  0.2605  0.4899
16982SOL    HW252388   4.208   1.534   3.255  0.3589  0.8341  0.5059
16983SOL     OW52389   1.837   5.908   0.293  0.6776 -0.2103  0.3414
16983SOL    HW152390   1.787   5.989   0.299 -0.0434 -0.5475 -0.7114
16983SOL    HW252391   1.807   5.855   0.366 -0.6129 -0.4486 -0.3424
16984SOL     OW52392   4.048   4.440  11.646 -0.5368 -0.4927  0.1496
16984SOL    HW152393   3.987   4.461  11.716  1.7771  0.0232  2.1234
16984SOL    HW252394   4.115   4.386  11.688  1.1223  0.1300 -1.5535
16985SOL     OW52395   3.697   6.047   2.099  0.2991 -0.1188  0.3557
16985SOL    HW152396   3.751   6.126   2.092 -0.5794  0.4078 -1.0252
16985SOL    HW252397   3.682   6.021   2.008  1.1518 -2.3168  0.7795
16986SOL     OW52398   1.656   1.644   8.020  0.0234  0.4027 -0.2754
16986SOL    HW152399   1.665   1.645   7.925  1.9894  0.0997 -0.1315
16986SOL    HW252400   1.657   1.551   8.043 -0.5827  0.4679  0.0504
16987SOL     OW52401   2.688   2.708   3.096  0.2867  1.0928 -0.0945
16987SOL    HW152402   2.674   2.781   3.157  0.3512  2.2915 -1.4517
16987SOL    HW252403   2.607   2.658   3.099  0.3821  0.9809  1.1393
16988SOL     OW52404   5.443   1.117   1.240 -0.2927 -0.1298  0.0674
16988SOL    HW152405   5.405   1.196   1.200  1.1643  1.2775  1.3021
16988SOL    HW252406   5.368   1.062   1.260 -1.5265  1.6665  0.6494
16989SOL     OW52407   0.048   6.589   2.586 -0.3889 -0.4307 -0.0399
16989SOL    HW152408  -0.014   6.519   2.602  0.0313 -0.2152  3.1366
16989SOL    HW252409   0.133   6.545   2.577 -0.6269 -0.5585 -2.2978
16990SOL     OW52410   0.119   7.464   9.317 -0.2261  0.2556 -0.0094
16990SOL    HW152411   0.082   7.481   9.403 -2.1005 -1.0481 -0.5091
16990SOL    HW252412   0.126   7.551   9.277 -1.9022  0.6562  0.4810
16991SOL     OW52413   4.791   1.966  11.565 -0.2519 -0.4698 -0.5591
16991SOL    HW152414   4.717   1.941  11.621  0.5624  2.0925  1.9114
16991SOL    HW252415   4.840   2.029  11.617  3.3061 -1.4431 -2.3936
16992SOL     OW52416   5.715   0.147   5.401  0.3035 -0.5269 -0.2073
16992SOL    HW152417   5.653   0.200   5.451 -0.5062 -1.7660  0.1729
16992SOL    HW252418   5.786   0.206   5.379  0.2797  0.2819  1.7052
16993SOL     OW52419   7.764   2.521  11.630 -0.1093 -0.3151  0.2793
16993SOL    HW152420   7.841   2.483  11.672  0.9779 -0.6205 -1.8313
16993SOL    HW252421   7.750   2.604  11.675  1.6623 -0.0950  0.5043
16994SOL     OW52422   5.926   1.124   3.603  0.1049  0.0729  0.7660
16994SOL    HW152423   5.863   1.133   3.531  0.8740  1.3324  0.2062
16994SOL    HW252424   5.991   1.061   3.569 -1.0962 -1.6888  1.5713
16995SOL     OW52425   6.898   4.360   5.134 -0.5034  0.1666  0.5611
16995SOL    HW152426   6.943   4.381   5.216 -0.1113  2.9121 -0.2508
16995SOL    HW252427   6.834   4.431   5.123 -0.2169  0.1498 -1.7173
16996SOL     OW52428   6.693   1.459   0.698  0.6978  0.5552 -0.1852
16996SOL    HW152429   6.625   1.526   0.694  0.0541 -0.0066  0.9718
16996SOL    HW252430   6.649   1.381   0.731  1.7745 -0.0022 -0.0010
16997SOL     OW52431   1.740   7.981   6.354  0.0544  0.5850 -0.0395
16997SOL    HW152432   1.674   7.913   6.343 -0.9398  1.3794  0.7785
16997SOL    HW252433   1.800   7.969   6.281 -1.7943  0.7170 -1.6511
16998SOL     OW52434   5.555   5.122  11.605 -0.5582  0.2766  0.6321
16998SOL    HW152435   5.478   5.172  11.579  0.8664  2.1070 -0.2603
16998SOL    HW252436   5.620   5.141  11.538  0.0604 -2.9716  0.1328
16999SOL     OW52437   2.316   4.957  11.522  0.1061  0.2691 -0.9899
16999SOL    HW152438   2.373   4.936  11.448 -1.1181  1.6841 -2.4200
16999SOL    HW252439   2.272   4.875  11.542  0.2121 -0.0676 -2.0702
17000SOL     OW52440   0.768   6.535   3.288 -0.5128  0.3258 -0.2254
17000SOL    HW152441   0.748   6.623   3.255 -0.9885  0.4203  0.2953
17000SOL    HW252442   0.812   6.492   3.215 -0.9233  0.7585 -0.7412
17001SOL     OW52443   3.314   5.807  10.973  0.7114  0.2752 -0.1333
17001SOL    HW152444   3.351   5.820  10.885  0.7274  0.2296 -0.1332
17001SOL    HW252445   3.281   5.893  10.998  0.5232  0.2434 -0.2680
17002SOL     OW52446   5.731   5.594  10.379 -0.1200 -1.2263 -0.1865
17002SOL    HW152447   5.665   5.589  10.448  2.3647 -3.2635  2.2629
17002SOL    HW252448   5.695   5.656  10.316 -2.3453  1.2618  3.1867
17003SOL     OW52449   5.689   3.006   4.222  0.3854 -0.4750  0.6450
17003SOL    HW152450   5.688   3.087   4.273 -0.6250 -0.8006  1.1808
17003SOL    HW252451   5.684   3.034   4.131  0.0027  0.0747  0.8299
17004SOL     OW52452   2.515   2.973   1.270 -0.1438 -0.1535 -0.0518
17004SOL    HW152453   2.588   2.939   1.218  1.6880  1.0331  1.6069
17004SOL    HW252454   2.546   3.058   1.303 -0.6350 -1.3101  3.9155
17005SOL     OW52455   6.958   4.066  11.124  0.0199  0.4130 -0.3974
17005SOL    HW152456   7.023   4.004  11.156 -0.7311 -0.3114 -0.2604
17005SOL    HW252457   6.942   4.125  11.199  0.6351  0.6975 -0.4868
17006SOL     OW52458   2.239   5.055  10.270  0.1887 -0.3359 -0.5873
17006SOL    HW152459   2.165   5.078  10.214  0.8918  0.0016 -1.3889
17006SOL    HW252460   2.264   4.967  10.242  0.2105 -0.3721 -0.4530
17007SOL     OW52461   0.792   1.850  12.133 -0.0363  0.1174  0.1311
17007SOL    HW152462   0.796   1.946  12.132  0.3322  0.1061  0.3574
17007SOL    HW252463   0.854   1.824  12.202 -0.5376 -0.2631  0.4471
17008SOL     OW52464   3.729   1.991   3.672  0.0011  0.4915 -0.2212
17008SOL    HW152465   3.775   1.970   3.753 -2.1597  0.0713  0.9653
17008SOL    HW252466   3.739   2.086   3.663  1.2485  0.3889 -0.1293
17009SOL     OW52467   7.018   4.999  11.095 -0.2543  0.5599 -0.3631
17009SOL    HW152468   6.963   4.954  11.031  0.2318  1.0431 -1.1289
17009SOL    HW252469   6.976   5.084  11.108 -0.8873  0.1047  0.7025
17010SOL     OW52470   5.864   2.188   7.769  0.2207 -0.2572 -0.3019
17010SOL    HW152471   5.852   2.165   7.861  0.8015 -1.3659 -0.4792
17010SOL    HW252472   5.837   2.109   7.721 -1.9562  0.9351 -1.2147
17011SOL     OW52473   6.167   5.236   0.497 -0.0859 -0.0847  0.1334
17011SOL    HW152474   6.191   5.298   0.428 -2.9008  0.0282 -0.8665
17011SOL    HW252475   6.233   5.249   0.565  1.1153  1.8620 -1.2988
17012SOL     OW52476   0.990   5.980   3.736 -0.0117 -0.1119 -0.2601
17012SOL    HW152477   0.923   5.935   3.684  0.8661 -0.9571 -0.6994
17012SOL    HW252478   1.055   5.912   3.756  0.6944  0.6706  0.2001
17013SOL     OW52479   1.646   3.871  10.934  0.1202  0.0028 -0.1707
17013SOL    HW152480   1.735   3.849  10.963  0.3791 -1.4510 -1.8187
17013SOL    HW252481   1.620   3.796  10.880 -2.2721  0.2323  0.5576
17014SOL     OW52482   5.334   6.265   7.713  0.2948 -0.7887  0.1051
17014SOL    HW152483   5.242   6.279   7.688  0.0700  0.2986  1.3703
17014SOL    HW252484   5.335   6.179   7.754 -0.2803 -0.6015  0.5296
17015SOL     OW52485   5.710   5.429   7.752  0.1023 -0.4292  0.8181
17015SOL    HW152486   5.766   5.437   7.675  0.4037 -0.9841  0.9723
17015SOL    HW252487   5.638   5.374   7.723 -0.4933  0.4712  0.5550
17016SOL     OW52488   6.996   7.610   5.153  0.0434 -0.1909  0.3909
17016SOL    HW152489   7.062   7.564   5.101 -0.7393 -0.0639 -0.7504
17016SOL    HW252490   6.927   7.545   5.168  0.3828 -0.3063  1.5269
17017SOL     OW52491   5.058   3.313   0.859 -0.1159  0.4424  0.1131
17017SOL    HW152492   5.028   3.229   0.824 -0.9838  1.0592 -0.6439
17017SOL    HW252493   5.151   3.316   0.838 -0.3781  0.2802 -1.1041
17018SOL     OW52494   0.266   1.763  12.261 -0.5007  0.5149  0.2025
17018SOL    HW152495   0.253   1.813  12.342 -0.0440 -0.0944  0.6661
17018SOL    HW252496   0.353   1.789  12.230 -0.5330  0.4983  0.0987
17019SOL     OW52497   3.562   1.060   8.392  0.1110  0.7040 -0.1627
17019SOL    HW152498   3.559   0.993   8.323  0.4364 -0.1415  0.6235
17019SOL    HW252499   3.578   1.142   8.345  3.5956 -0.2375 -0.9015
17020SOL     OW52500   3.137   6.091   9.041 -0.1738  0.3876 -0.2611
17020SOL    HW152501   3.113   6.115   9.130 -0.3881 -1.6668  0.2675
17020SOL    HW252502   3.083   6.148   8.986 -3.2440 -1.1618  0.9105
17021SOL     OW52503   2.295   1.237   8.785 -0.8843 -0.4664  0.2219
17021SOL    HW152504   2.316   1.240   8.878 -3.3929  2.2682  0.8560
17021SOL    HW252505   2.345   1.308   8.746  0.5033 -1.8762 -0.6846
17022SOL     OW52506   6.520   3.166  12.269 -0.3445  0.0022  0.2078
17022SOL    HW152507   6.515   3.086  12.321 -2.2555  0.6582  1.1398
17022SOL    HW252508   6.493   3.139  12.181 -0.4018 -0.4895  0.3756
17023SOL     OW52509   5.137   6.011  10.346  0.1992 -0.0932 -0.7022
17023SOL    HW152510   5.131   5.944  10.278 -0.2880  0.4638 -1.2205
17023SOL    HW252511   5.113   5.966  10.426 -0.6225 -0.4300 -1.1256
17024SOL     OW52512   2.529   1.886  10.215 -0.1886 -0.5744  0.3657
17024SOL    HW152513   2.542   1.959  10.275 -0.8801 -0.7848  0.7796
17024SOL    HW252514   2.617   1.856  10.193  0.2393  1.8286 -1.6204
17025SOL     OW52515   5.378   3.624  10.891  0.1967 -0.3574 -0.2450
17025SOL    HW152516   5.473   3.638  10.883  0.0232  0.1135 -1.7588
17025SOL    HW252517   5.353   3.578  10.811 -0.6914 -1.5448  0.6791
17026SOL     OW52518   5.667   5.240  10.238 -0.1529  0.1363  0.3163
17026SOL    HW152519   5.636   5.150  10.249  1.1500 -0.0979  2.6083
17026SOL    HW252520   5.737   5.233  10.173 -1.1114 -0.1998 -0.7230
17027SOL     OW52521   1.154   7.473   4.564 -0.2018 -0.4978 -0.2406
17027SOL    HW152522   1.109   7.553   4.536 -0.8985 -0.7803  0.0371
17027SOL    HW252523   1.211   7.501   4.636 -1.4974 -0.4641  0.8270
17028SOL     OW52524   6.153   1.276   8.298  0.3278  0.1530  0.0447
17028SOL    HW152525   6.197   1.337   8.239  0.3739  2.1772  2.0258
17028SOL    HW252526   6.060   1.283   8.275  0.4557  0.1173 -0.4833
17029SOL     OW52527   0.194   2.903   9.607  0.1260 -0.4598  0.1623
17029SOL    HW152528   0.275   2.939   9.570 -0.7813  0.8691 -0.5952
17029SOL    HW252529   0.158   2.847   9.538  0.0006 -0.4279  0.2017
17030SOL     OW52530   0.980   6.971   3.336  0.3619  0.0972  0.0123
17030SOL    HW152531   1.058   7.026   3.341  0.5358 -0.1832  0.4571
17030SOL    HW252532   0.991   6.906   3.406  0.5743 -1.0516 -1.0526
17031SOL     OW52533   1.679   0.195   3.849  0.3730  0.1540  0.3702
17031SOL    HW152534   1.620   0.184   3.924  0.3540  0.6188  0.4292
17031SOL    HW252535   1.724   0.111   3.841 -0.1460 -0.1368  0.4549
17032SOL     OW52536   5.549   6.076   3.043  0.1144 -0.0956 -0.2856
17032SOL    HW152537   5.546   6.168   3.018  0.4519  0.0949  0.3388
17032SOL    HW252538   5.608   6.073   3.119 -2.6969 -0.2349  2.0863
17033SOL     OW52539   3.698   6.604   4.315  0.0134  0.1611  0.1219
17033SOL    HW152540   3.630   6.536   4.315  1.0431 -0.9315 -1.2697
17033SOL    HW252541   3.771   6.565   4.267  1.9456  1.0108  2.1838
17034SOL     OW52542   6.198   0.940  10.154  0.8494 -0.1146  0.2483
17034SOL    HW152543   6.137   0.999  10.198  0.6099 -1.2361  1.4941
17034SOL    HW252544   6.142   0.882  10.102  1.0876  0.7364 -1.0205
17035SOL     OW52545   5.153   2.313   6.515  0.3279 -0.2044  0.1080
17035SOL    HW152546   5.164   2.236   6.459 -0.4807  0.2358 -0.6812
17035SOL    HW252547   5.082   2.363   6.474  0.1285  0.4391  1.1924
17036SOL     OW52548   5.492   5.175   9.615 -0.2503 -0.0036 -0.4786
17036SOL    HW152549   5.585   5.150   9.620  0.0732  1.2330 -0.0570
17036SOL    HW252550   5.451   5.128   9.687 -0.0356 -0.8507 -0.8886
17037SOL     OW52551   5.882   3.430   1.603  0.2116 -0.5116 -0.1255
17037SOL    HW152552   5.817   3.479   1.653  0.8959  1.2104 -0.8597
17037SOL    HW252553   5.964   3.441   1.651  0.4351 -0.6673 -0.4592
17038SOL     OW52554   3.108   4.882   8.716  0.4403  0.5598  0.3495
17038SOL    HW152555   3.099   4.948   8.647  1.7510 -0.1332 -0.5171
17038SOL    HW252556   3.148   4.807   8.672  1.5344  0.1915  1.8942
17039SOL     OW52557   7.223   7.756   1.460 -0.2949 -0.8850 -0.3580
17039SOL    HW152558   7.316   7.771   1.445  0.0042 -2.2282 -0.0138
17039SOL    HW252559   7.218   7.719   1.549 -1.5214  2.2893  1.0621
17040SOL     OW52560   6.287   0.051   1.990 -0.6091 -0.1776 -0.0295
17040SOL    HW152561   6.309   0.120   1.927  0.5534 -0.2262  0.2999
17040SOL    HW252562   6.221   0.091   2.047 -2.2388 -0.3790 -1.6967
17041SOL     OW52563   3.169   7.817   8.098 -0.8011 -0.2466 -0.5726
17041SOL    HW152564   3.154   7.759   8.172 -1.0723  0.0495 -0.3917
17041SOL    HW252565   3.089   7.810   8.046 -1.7001  1.4352  0.4637
17042SOL     OW52566   5.632   1.958   4.403  0.4901  0.1769  0.1983
17042SOL    HW152567   5.634   1.907   4.484  0.8531  0.7743  0.5682
17042SOL    HW252568   5.618   2.048   4.431 -0.3000  0.2742 -0.4657
17043SOL     OW52569   7.267   7.570   7.033  0.1217  0.2234 -0.3581
17043SOL    HW152570   7.331   7.501   7.048 -0.6221 -0.2158  0.9265
17043SOL    HW252571   7.311   7.650   7.061  0.2378 -0.0280  0.1820
17044SOL     OW52572   6.448   2.334  10.589  0.1092 -0.0066  0.0064
17044SOL    HW152573   6.367   2.283  10.585 -1.3646  2.0924  1.1063
17044SOL    HW252574   6.469   2.352  10.497  0.4866 -2.2002 -0.3938
17045SOL     OW52575   5.101   2.451   6.141  0.0154  0.7086 -0.5619
17045SOL    HW152576   5.069   2.377   6.089 -0.8737  0.1387  0.7417
17045SOL    HW252577   5.049   2.525   6.111  0.0559  0.5555 -1.0239
17046SOL     OW52578   6.202   3.186   9.611 -0.3256 -0.6279 -0.1376
17046SOL    HW152579   6.262   3.250   9.572  1.4180 -2.1240 -0.0567
17046SOL    HW252580   6.192   3.215   9.702  0.3201 -0.3918 -0.1373
17047SOL     OW52581   4.218   1.648  10.916 -0.6940 -0.2305 -0.1712
17047SOL    HW152582   4.148   1.607  10.866 -1.5363  1.7381 -0.6990
17047SOL    HW252583   4.275   1.575  10.942 -1.1420 -1.5097 -2.5145
17048SOL     OW52584   7.036   3.688   2.370 -0.0886 -0.0708 -0.2738
17048SOL    HW152585   6.979   3.765   2.374 -1.6105 -1.0996 -1.1243
17048SOL    HW252586   7.003   3.638   2.296  0.9496 -1.4957  0.1866
17049SOL     OW52587   3.634   4.902   6.321  0.7320  0.3267  0.4027
17049SOL    HW152588   3.605   4.878   6.233  0.5898  0.1696  0.4909
17049SOL    HW252589   3.656   4.994   6.315  0.5643  0.3578  0.2426
17050SOL     OW52590   2.660   0.013   3.193 -0.1752 -0.1486  0.0102
17050SOL    HW152591   2.745   0.047   3.165 -0.6398  0.1043 -1.1573
17050SOL    HW252592   2.650  -0.069   3.145 -0.5825 -0.1987  0.1781
17051SOL     OW52593   4.159   0.186   1.179  0.1383 -0.6634  0.5878
17051SOL    HW152594   4.189   0.105   1.221  1.4016  0.2638  1.5729
17051SOL    HW252595   4.237   0.242   1.178 -0.0807 -0.2658 -2.1804
17052SOL     OW52596   4.812   0.897   5.925  0.0026  0.0741  0.4915
17052SOL    HW152597   4.777   0.851   6.002  1.0974  1.4288  1.8656
17052SOL    HW252598   4.906   0.900   5.940  0.1795  0.8324 -0.6575
17053SOL     OW52599   5.869   3.031   9.581 -0.0774  0.0552  0.1504
17053SOL    HW152600   5.963   3.026   9.565 -0.1312  2.5023 -1.4322
17053SOL    HW252601   5.841   2.940   9.588  2.3643 -0.7392  0.6002
17054SOL     OW52602   6.582   4.527   7.831 -0.7669  0.2999 -0.0095
17054SOL    HW152603   6.508   4.566   7.783 -0.2266  1.6854  0.2465
17054SOL    HW252604   6.607   4.451   7.778 -1.7757  0.3517 -0.5915
17055SOL     OW52605   5.467   1.331   5.945  0.1311  0.0741  0.5005
17055SOL    HW152606   5.466   1.268   5.873  2.4092  1.1375 -0.5565
17055SOL    HW252607   5.404   1.398   5.919  0.3461  0.0467 -0.0928
17056SOL     OW52608   5.201   4.223   2.887 -0.4696  0.5179  0.2936
17056SOL    HW152609   5.124   4.277   2.870 -1.1862 -1.0007 -1.6137
17056SOL    HW252610   5.184   4.183   2.973 -1.7912  0.2523 -0.0740
17057SOL     OW52611   7.388   0.352   2.872 -0.6394  0.2542 -0.6443
17057SOL    HW152612   7.374   0.386   2.960 -0.8278 -1.3889 -0.0030
17057SOL    HW252613   7.315   0.291   2.857  0.1885 -0.6201 -1.3286
17058SOL     OW52614   5.914   5.577   1.140  0.6814  0.2609 -0.2514
17058SOL    HW152615   5.964   5.512   1.190  2.6715  1.5787 -0.4365
17058SOL    HW252616   5.950   5.571   1.051 -0.7986 -0.0243 -0.8524
17059SOL     OW52617   2.078   6.138   7.978 -0.2961  0.2508  0.0162
17059SOL    HW152618   2.029   6.208   8.022 -1.0262 -0.4039  0.2653
17059SOL    HW252619   2.063   6.154   7.885  1.8021  2.0426 -0.0866
17060SOL     OW52620   2.664   4.316   4.421 -0.4470  0.2556  0.2736
17060SOL    HW152621   2.741   4.361   4.455 -1.2405  0.7777  1.4325
17060SOL    HW252622   2.697   4.263   4.349  0.6771  2.0042 -0.5647
17061SOL     OW52623   4.950   1.975   6.620 -0.3430 -0.0461  0.0010
17061SOL    HW152624   4.976   2.034   6.549 -0.1582  0.1355  0.2185
17061SOL    HW252625   5.018   1.908   6.622 -1.5221 -1.3506 -1.4889
17062SOL     OW52626   2.260   7.305   7.488 -0.1618 -0.1623  0.7962
17062SOL    HW152627   2.344   7.271   7.520  0.3077  1.0453  0.9278
17062SOL    HW252628   2.194   7.264   7.544  0.4913  0.2654  1.9188
17063SOL     OW52629   0.960   3.568   3.900  0.4981 -0.0768 -0.4419
17063SOL    HW152630   0.965   3.533   3.989  1.7303 -0.3116 -0.5919
17063SOL    HW252631   1.040   3.620   3.890  0.5123 -0.2825 -1.5103
17064SOL     OW52632   5.668   5.742   7.225  0.5754  1.0669 -0.0867
17064SOL    HW152633   5.615   5.804   7.175  0.5224  0.0626 -1.3484
17064SOL    HW252634   5.736   5.714   7.163 -0.1333 -1.0389 -0.0032
17065SOL     OW52635   5.172   1.327   4.424 -0.7171 -1.0041 -0.0281
17065SOL    HW152636   5.142   1.253   4.372 -0.0885 -0.1568 -1.6508
17065SOL    HW252637   5.110   1.398   4.405  1.5026  0.4352 -2.5856
17066SOL     OW52638   2.382   7.979   1.864 -0.3374 -0.5132  0.1925
17066SOL    HW152639   2.428   8.022   1.793 -2.1102  1.2674  0.0487
17066SOL    HW252640   2.414   7.888   1.862  1.3899  0.0817 -1.3155
17067SOL     OW52641   1.104   7.642   1.075 -0.0546  0.2665 -0.0555
17067SOL    HW152642   1.099   7.717   1.015 -0.5618  1.2428  1.1838
17067SOL    HW252643   1.041   7.580   1.040 -0.8589  1.1180 -0.1597
17068SOL     OW52644   2.955   1.346  11.700 -0.1205  0.4057 -0.0677
17068SOL    HW152645   2.912   1.262  11.681 -0.4352  0.3343  0.8982
17068SOL    HW252646   2.906   1.411  11.650  0.2866 -0.0130 -1.0287
17069SOL     OW52647   5.754   4.312  11.239  0.3257  0.3122  0.1625
17069SOL    HW152648   5.800   4.230  11.222  0.1060  0.4750 -1.3014
17069SOL    HW252649   5.700   4.326  11.161 -2.9917 -0.3589  2.1305
17070SOL     OW52650   1.649   6.131   8.463 -0.0320 -0.9961  0.3007
17070SOL    HW152651   1.560   6.117   8.431 -0.0984  0.7810 -0.4060
17070SOL    HW252652   1.638   6.176   8.547  0.1688  0.4909 -0.4380
17071SOL     OW52653   2.000   7.550  10.274 -0.1146  0.1262 -0.3712
17071SOL    HW152654   1.918   7.561  10.323  0.7960 -0.0534  1.2556
17071SOL    HW252655   2.043   7.635  10.278  0.4018 -0.1482 -0.0524
17072SOL     OW52656   5.003   6.365  11.189 -0.0495 -0.0829  0.2029
17072SOL    HW152657   4.911   6.372  11.164  0.1474  1.5286 -0.2009
17072SOL    HW252658   5.019   6.443  11.241  0.5246 -1.4967  2.2575
17073SOL     OW52659   5.222   6.849   5.029 -0.1735  0.5026  0.4267
17073SOL    HW152660   5.149   6.787   5.025 -0.2186  0.6119 -0.4544
17073SOL    HW252661   5.299   6.794   5.044  0.0397  0.0072 -2.0524
17074SOL     OW52662   5.103   3.674   8.586  0.1828  0.2532  0.3725
17074SOL    HW152663   5.085   3.610   8.655 -0.3346 -1.4820 -1.2721
17074SOL    HW252664   5.035   3.740   8.596 -1.6753 -1.4816 -0.1732
17075SOL     OW52665   7.217   3.365   5.689 -0.3264  0.5643  0.6551
17075SOL    HW152666   7.306   3.391   5.664  0.5467 -2.1947  0.4878
17075SOL    HW252667   7.176   3.338   5.607  0.1998 -2.0568  1.1446
17076SOL     OW52668   6.785   0.618   3.527 -0.1205  0.3100  0.5004
17076SOL    HW152669   6.729   0.616   3.450  1.8435  1.4072 -1.0249
17076SOL    HW252670   6.842   0.542   3.518  0.3125  0.6018  0.7153
17077SOL     OW52671   2.080   6.772  11.680 -0.4054  0.0781 -0.2558
17077SOL    HW152672   2.065   6.855  11.724 -2.0080  1.0129 -2.3733
17077SOL    HW252673   2.112   6.796  11.593  0.9119 -1.6202 -0.3074
17078SOL     OW52674   6.360   2.181   0.297  0.0080  0.4335 -0.3541
17078SOL    HW152675   6.442   2.179   0.346 -0.3899 -1.1595  0.3289
17078SOL    HW252676   6.385   2.203   0.208  1.2641 -0.5040 -0.2551
17079SOL     OW52677   4.999   6.867   2.607 -0.4657  0.0022 -0.2717
17079SOL    HW152678   5.010   6.899   2.697 -0.3747 -1.7109  0.3568
17079SOL    HW252679   4.914   6.902   2.580 -0.2090  1.0530  0.2412
17080SOL     OW52680   3.700   1.072   3.985 -0.1143  0.3388 -0.2057
17080SOL    HW152681   3.617   1.120   3.990 -0.0997  0.2380  2.1133
17080SOL    HW252682   3.674   0.981   3.970 -0.4498  0.3068  0.5211
17081SOL     OW52683   4.703   5.771   7.435  0.1898 -0.2140 -0.0425
17081SOL    HW152684   4.729   5.778   7.527 -0.0939  3.0865 -0.0847
17081SOL    HW252685   4.641   5.843   7.422  0.7076 -0.1604 -2.9595
17082SOL     OW52686   2.815   3.271   4.246 -0.2675 -0.2804  0.0406
17082SOL    HW152687   2.788   3.362   4.262 -1.4537 -0.5777 -0.1403
17082SOL    HW252688   2.846   3.241   4.331  1.5102  0.7074 -0.2097
17083SOL     OW52689   5.865   6.868   7.517  0.0360 -0.2255 -0.5330
17083SOL    HW152690   5.837   6.783   7.549  1.0055 -1.3654 -2.5675
17083SOL    HW252691   5.958   6.873   7.538 -0.1963  0.7558  0.3825
17084SOL     OW52692   1.119   7.752   0.706 -0.1170 -0.0442  0.2455
17084SOL    HW152693   1.051   7.687   0.690  0.4227 -0.7912  0.9348
17084SOL    HW252694   1.071   7.833   0.723 -0.7810  0.3879 -3.0602
17085SOL     OW52695   5.311   6.955   3.954 -0.3283  0.5372  0.1179
17085SOL    HW152696   5.252   7.002   3.895  0.0935 -0.3264 -1.0467
17085SOL    HW252697   5.278   6.865   3.954  0.2465  0.3169  0.4301
17086SOL     OW52698   4.242   3.495   9.788  0.1640 -0.3785  0.4396
17086SOL    HW152699   4.268   3.536   9.705  0.0539 -1.0071  0.0935
17086SOL    HW252700   4.203   3.567   9.838 -1.2136 -0.3120 -0.6625
17087SOL     OW52701   0.788   3.671  10.957  0.3549 -0.3746  0.2930
17087SOL    HW152702   0.765   3.640  11.044  1.8377 -0.4420  0.6881
17087SOL    HW252703   0.738   3.616  10.897 -0.8614 -0.1688  1.0972
17088SOL     OW52704   3.393   0.007   4.432  0.1467  0.2538 -0.5829
17088SOL    HW152705   3.427   0.056   4.507 -0.0583 -0.2494 -0.1485
17088SOL    HW252706   3.393  -0.084   4.462  0.6288 -0.0265 -1.4127
17089SOL     OW52707   4.728   7.169   0.659  0.1295 -0.5711  0.3143
17089SOL    HW152708   4.746   7.203   0.747  1.5304 -1.1032  0.2458
17089SOL    HW252709   4.647   7.120   0.669  0.8403 -1.5384  1.5649
17090SOL     OW52710   1.580   7.535   5.118  0.2820  0.1801 -0.4519
17090SOL    HW152711   1.605   7.520   5.210 -1.2532  0.7057  0.0747
17090SOL    HW252712   1.642   7.482   5.068  2.4434  1.4230  0.7515
17091SOL     OW52713   3.787   6.184   5.549 -0.2678 -0.2274 -0.1622
17091SOL    HW152714   3.805   6.122   5.620 -2.4792  2.0907  2.6353
17091SOL    HW252715   3.693   6.201   5.554 -0.0757  1.9088 -2.0498
17092SOL     OW52716   5.000   2.116   4.332  0.4011 -0.0916  0.1248
17092SOL    HW152717   5.080   2.140   4.286  0.8964 -0.9025  0.5258
17092SOL    HW252718   4.930   2.130   4.268  0.9814 -0.3594 -0.5875
17093SOL     OW52719   0.069   6.380   7.569  1.0205 -0.0435 -0.2038
17093SOL    HW152720  -0.020   6.371   7.535 -0.3018  2.3886  2.1721
17093SOL    HW252721   0.087   6.296   7.612 -0.1782 -0.5338 -0.6136
17094SOL     OW52722   2.004   2.889   1.404 -0.0393  0.0766  0.3786
17094SOL    HW152723   2.064   2.949   1.449  0.2269  0.5611 -0.5999
17094SOL    HW252724   1.981   2.934   1.323 -0.7659 -0.6436  0.1684
17095SOL     OW52725   7.040   4.866   6.755  0.2247 -0.3157  0.4367
17095SOL    HW152726   7.050   4.953   6.794  0.2018 -0.0694 -0.0911
17095SOL    HW252727   7.010   4.810   6.827 -0.7676  0.3350  0.5465
17096SOL     OW52728   5.314   1.763   7.235 -0.5524 -0.2882 -0.5802
17096SOL    HW152729   5.267   1.776   7.318  0.1665  4.2073 -0.6311
17096SOL    HW252730   5.250   1.720   7.178 -3.5115  2.3920  0.4151
17097SOL     OW52731   5.699   5.574   6.970  0.1106 -0.6207  0.1087
17097SOL    HW152732   5.644   5.643   6.934 -1.0290 -1.1689  0.7326
17097SOL    HW252733   5.773   5.621   7.009 -0.1977  0.1794 -0.2390
17098SOL     OW52734   0.114   5.396   1.762 -0.1805 -0.3965  0.5381
17098SOL    HW152735   0.205   5.367   1.754  0.0217  0.6363 -1.4267
17098SOL    HW252736   0.063   5.328   1.718 -0.6192 -1.8729  3.1331
17099SOL     OW52737   2.969   3.648   0.974  0.1024  0.2511 -0.2253
17099SOL    HW152738   2.901   3.582   0.958 -0.9996  1.0867  0.8898
17099SOL    HW252739   2.988   3.683   0.887 -0.5810 -0.3052 -0.6116
17100SOL     OW52740   0.623   7.169  11.265 -0.4781  0.4134  0.0162
17100SOL    HW152741   0.556   7.210  11.320  0.8802  1.3876  1.0068
17100SOL    HW252742   0.599   7.076  11.263  0.1445  0.0490  3.4521
17101SOL     OW52743   4.086   5.698   6.354 -0.2329  0.1650  0.2618
17101SOL    HW152744   4.070   5.605   6.366  0.4328 -0.3024 -1.9109
17101SOL    HW252745   4.065   5.713   6.261  0.0118  2.1067  0.4876
17102SOL     OW52746   6.594   1.164   0.564 -0.2782 -0.3956 -0.2590
17102SOL    HW152747   6.504   1.148   0.536 -0.4107  1.2027 -0.8693
17102SOL    HW252748   6.593   1.148   0.658 -1.1613 -0.5719 -0.2913
17103SOL     OW52749   6.281   4.540   8.231  0.5216 -0.4447 -0.4378
17103SOL    HW152750   6.344   4.504   8.168  0.0353  1.0570 -1.8671
17103SOL    HW252751   6.217   4.470   8.244  1.2611 -1.1884 -0.7123
17104SOL     OW52752   0.291   6.766  10.097  0.0264  0.1752 -0.3267
17104SOL    HW152753   0.315   6.751  10.006 -0.9059  2.1801 -0.9651
17104SOL    HW252754   0.359   6.825  10.131 -0.2522  0.3586 -0.0808
17105SOL     OW52755   7.852   5.544  12.449 -0.6622 -0.2847 -0.1168
17105SOL    HW152756   7.882   5.515  12.535 -1.2128 -3.1090 -0.7949
17105SOL    HW252757   7.931   5.542  12.394 -0.9512 -2.1122 -0.5194
17106SOL     OW52758   1.487   7.341  10.428  0.0949 -0.4628 -0.0866
17106SOL    HW152759   1.512   7.279  10.359  0.9364  0.5176 -0.6947
17106SOL    HW252760   1.410   7.386  10.393  0.3851 -0.1258 -0.3038
17107SOL     OW52761   7.754   0.055  11.401  0.0849 -0.6073 -0.5073
17107SOL    HW152762   7.794   0.068  11.315 -0.4770 -1.0232 -0.8381
17107SOL    HW252763   7.820   0.006  11.451  0.2400 -0.7368 -0.8386
17108SOL     OW52764   3.738   2.856   4.321 -0.2942  0.2829  0.0514
17108SOL    HW152765   3.678   2.876   4.393  0.3183  2.0210  0.1338
17108SOL    HW252766   3.701   2.902   4.246  0.0079 -0.0755 -0.3230
17109SOL     OW52767   5.342   0.189   9.155 -0.1622  0.0771  0.0986
17109SOL    HW152768   5.295   0.263   9.195 -0.5693  0.0425 -0.3076
17109SOL    HW252769   5.335   0.205   9.061  0.8941  0.2237  0.0375
17110SOL     OW52770   5.509   6.274   8.504  0.1979  0.3626  0.4863
17110SOL    HW152771   5.589   6.311   8.543 -0.4804  0.2412  2.0781
17110SOL    HW252772   5.447   6.271   8.577 -1.0202 -0.2541 -0.5529
17111SOL     OW52773   7.791   6.343   4.722  0.3720 -0.3339  0.1343
17111SOL    HW152774   7.738   6.419   4.746  2.4723  0.6526  2.0580
17111SOL    HW252775   7.851   6.375   4.656 -0.1392 -0.9302 -0.6332
17112SOL     OW52776   6.434   6.391   7.383 -0.5257  0.4709  0.1035
17112SOL    HW152777   6.345   6.361   7.403 -0.5543 -0.3946 -1.2296
17112SOL    HW252778   6.463   6.434   7.463 -1.5344 -0.6708  1.1162
17113SOL     OW52779   7.445   6.228   8.801  0.7530 -0.0878  0.2329
17113SOL    HW152780   7.370   6.269   8.759  1.8351  1.9112  0.1389
17113SOL    HW252781   7.431   6.242   8.895  1.3792  1.0237  0.1750
17114SOL     OW52782   5.943   2.623   7.234 -0.0549  0.4425 -0.5720
17114SOL    HW152783   5.886   2.694   7.204 -0.6596  0.2773  0.1595
17114SOL    HW252784   5.893   2.581   7.304  0.4322 -0.5095 -0.7932
17115SOL     OW52785   5.840   7.220   9.098  0.2578  0.5053  0.1564
17115SOL    HW152786   5.810   7.292   9.042  0.2709  1.6086  1.5040
17115SOL    HW252787   5.934   7.236   9.107  0.0251  1.1967  1.6256
17116SOL     OW52788   6.365   2.496   3.432 -0.1461 -0.1970  0.4552
17116SOL    HW152789   6.357   2.478   3.526  1.5424 -0.7014  0.5205
17116SOL    HW252790   6.389   2.588   3.427 -4.2699  1.0715  0.2876
17117SOL     OW52791   5.217   3.152   2.577  0.3148  0.3592  0.0341
17117SOL    HW152792   5.253   3.232   2.615 -0.8425  0.0023  2.0166
17117SOL    HW252793   5.128   3.176   2.550  0.7991  0.3512 -1.6598
17118SOL     OW52794   3.456   6.932  11.232 -0.0217  0.6045 -0.0878
17118SOL    HW152795   3.501   6.848  11.225 -0.9191 -0.1063  2.0362
17118SOL    HW252796   3.520   6.996  11.201  0.2405 -0.9104 -3.0633
17119SOL     OW52797   4.771   7.262   8.650 -0.2329  0.7492 -0.6922
17119SOL    HW152798   4.816   7.322   8.591  1.3386 -0.2308 -0.5591
17119SOL    HW252799   4.831   7.251   8.724 -2.1487  1.9549  1.1531
17120SOL     OW52800   4.846   6.829   4.152  0.4292 -0.0813  0.3508
17120SOL    HW152801   4.777   6.771   4.119  0.1567 -1.3342  2.8743
17120SOL    HW252802   4.821   6.916   4.122 -0.9654 -0.8365 -0.7753
17121SOL     OW52803   4.177   6.244   0.093  0.0560 -0.0429  0.5348
17121SOL    HW152804   4.117   6.172   0.113 -2.1491  0.2545 -3.8381
17121SOL    HW252805   4.251   6.201   0.049  0.1387  0.1125  0.5241
17122SOL     OW52806   5.671   3.892   7.852 -0.1149  0.3612  0.1408
17122SOL    HW152807   5.671   3.897   7.756  1.1318  1.6925  0.1752
17122SOL    HW252808   5.600   3.949   7.879  0.1537  0.7601  0.0177
17123SOL     OW52809   4.346   7.848   0.787  0.2770 -0.3041 -0.4915
17123SOL    HW152810   4.420   7.807   0.743  1.9268  0.6746  1.2042
17123SOL    HW252811   4.385   7.918   0.840 -1.5380 -1.1579  2.2174
17124SOL     OW52812   7.075   6.389   5.394  0.0271 -0.1661  0.0521
17124SOL    HW152813   7.015   6.419   5.326 -1.4325 -0.6871  1.0641
17124SOL    HW252814   7.133   6.327   5.349  0.8721  1.4995 -1.2823
17125SOL     OW52815   0.361   7.636   0.579 -0.1382 -0.3003 -0.1555
17125SOL    HW152816   0.274   7.643   0.617 -1.1300  0.4044 -2.3955
17125SOL    HW252817   0.413   7.701   0.625 -0.9473 -0.3278  0.8167
17126SOL     OW52818   0.177   7.051   9.029  0.3173  0.5171 -0.0256
17126SOL    HW152819   0.189   6.993   9.105 -2.8463 -1.3782 -0.7792
17126SOL    HW252820   0.258   7.042   8.979  1.4639 -0.1656  1.8463
17127SOL     OW52821   5.128   7.043  11.018 -0.0239  0.1865  0.0831
17127SOL    HW152822   5.131   6.947  11.011  2.8018  0.0417  1.9361
17127SOL    HW252823   5.043   7.061  11.058 -1.4634 -1.3247 -2.0671
17128SOL     OW52824   2.391   4.301  10.108  0.1093 -0.6591  0.2105
17128SOL    HW152825   2.330   4.245  10.157 -0.1218 -2.8123 -2.2993
17128SOL    HW252826   2.350   4.387  10.108 -0.5427 -0.9093  2.5459
17129SOL     OW52827   7.923   0.104   1.955  0.3153  0.1106 -0.0922
17129SOL    HW152828   7.913   0.187   2.001 -1.1520 -0.5101  0.7917
17129SOL    HW252829   7.838   0.091   1.912  1.1254 -0.0972 -1.7041
17130SOL     OW52830   4.139   4.988   7.892 -0.6546  0.0731  0.6658
17130SOL    HW152831   4.158   4.898   7.918  2.5329  0.3663 -0.2591
17130SOL    HW252832   4.084   5.023   7.962  0.9314 -1.5659  2.8329
17131SOL     OW52833   3.996   0.041   2.279  0.5151  0.5854 -0.0556
17131SOL    HW152834   3.992   0.055   2.374 -0.6745 -0.6740  0.1240
17131SOL    HW252835   4.010  -0.054   2.270  2.4064  0.9176 -1.1537
17132SOL     OW52836   1.154   0.977   4.720 -0.0733 -0.2901  0.6254
17132SOL    HW152837   1.191   1.062   4.698  0.1766 -0.6356 -0.3093
17132SOL    HW252838   1.220   0.914   4.694 -0.4001 -0.7979  1.0002
17133SOL     OW52839   1.832   2.724   0.337  0.3677  0.1572 -0.4823
17133SOL    HW152840   1.767   2.740   0.269  0.4086 -0.1389 -0.5910
17133SOL    HW252841   1.792   2.760   0.416  0.9238  1.8130 -0.9212
17134SOL     OW52842   0.676   1.529  12.429  0.1254 -0.1457 -0.6869
17134SOL    HW152843   0.611   1.548  12.361 -0.6614 -0.7061 -0.1102
17134SOL    HW252844   0.760   1.526  12.382 -0.2948  0.3131 -1.4889
17135SOL     OW52845   1.828   1.578   7.213 -0.2395  0.3372  0.2662
17135SOL    HW152846   1.737   1.564   7.238 -0.1020 -0.0217  0.5789
17135SOL    HW252847   1.849   1.503   7.158 -0.4758  1.0133 -0.7766
17136SOL     OW52848   4.812   4.951  11.053  0.6261  0.0610  0.0206
17136SOL    HW152849   4.846   4.967  10.965 -0.4974  1.4243 -0.2059
17136SOL    HW252850   4.868   4.882  11.088  1.6845  0.1376 -1.4147
17137SOL     OW52851   4.365   2.681   7.729 -0.1948  0.6384 -1.0047
17137SOL    HW152852   4.343   2.643   7.814 -0.0738 -0.8303 -1.5892
17137SOL    HW252853   4.424   2.753   7.748  3.4123 -2.2844  0.0095
17138SOL     OW52854   2.329   3.539   8.818 -0.7464 -0.1782  0.1405
17138SOL    HW152855   2.372   3.550   8.734 -2.3861 -0.0266 -0.7061
17138SOL    HW252856   2.308   3.628   8.847  1.3866 -0.0873  1.6086
17139SOL     OW52857   6.272   1.873   8.306  0.1609  0.0835 -0.0255
17139SOL    HW152858   6.329   1.839   8.238  0.5558 -0.9532  0.7837
17139SOL    HW252859   6.330   1.917   8.367 -0.4732  3.5767 -1.7316
17140SOL     OW52860   6.124   7.519   7.746  0.0886 -0.5739 -0.1639
17140SOL    HW152861   6.061   7.510   7.818  0.5885  0.1596  0.3827
17140SOL    HW252862   6.205   7.481   7.780  0.1715 -0.7605 -0.5626
17141SOL     OW52863   4.960   2.357   0.121 -0.5782  0.0612 -0.3792
17141SOL    HW152864   4.894   2.392   0.181 -0.8409  1.4001 -1.4010
17141SOL    HW252865   4.962   2.419   0.048 -0.2737 -1.5190 -1.7802
17142SOL     OW52866   1.841   1.977   4.762  1.1709 -0.4314  0.2346
17142SOL    HW152867   1.837   1.959   4.856  2.4904 -1.2229  0.1654
17142SOL    HW252868   1.921   2.029   4.751 -0.0078  1.3972 -0.2227
17143SOL     OW52869   5.395   4.689   0.051 -0.0167  0.1899 -0.1739
17143SOL    HW152870   5.348   4.617   0.094  1.1585 -0.3355  0.2885
17143SOL    HW252871   5.429   4.741   0.124 -1.5954  1.7591 -0.4947
17144SOL     OW52872   1.280   4.828   1.077 -0.1598  0.1546 -0.3483
17144SOL    HW152873   1.358   4.812   1.130  0.9369  0.5652 -1.7759
17144SOL    HW252874   1.215   4.861   1.140  0.8018 -0.1718  0.8643
17145SOL     OW52875   3.827   1.874   0.180  0.7375 -0.4741 -0.1298
17145SOL    HW152876   3.793   1.896   0.093  1.0645  0.1798 -0.0988
17145SOL    HW252877   3.871   1.954   0.209 -0.1629 -0.3649  1.0219
17146SOL     OW52878   0.194   7.120  11.306 -0.2300  0.3929  0.0524
17146SOL    HW152879   0.170   7.101  11.215 -1.1314 -0.5558  0.4679
17146SOL    HW252880   0.128   7.182  11.336  1.8008  3.1869 -0.8132
17147SOL     OW52881   1.564   3.741   0.272  0.2162 -0.5515  0.3277
17147SOL    HW152882   1.642   3.784   0.235  0.9185 -1.2401  0.9778
17147SOL    HW252883   1.530   3.688   0.200 -0.3459  0.6433 -0.3207
17148SOL     OW52884   0.646   6.392   8.989  0.1751 -0.0358  0.1498
17148SOL    HW152885   0.688   6.339   8.922  0.9418 -0.1147  0.6840
17148SOL    HW252886   0.561   6.350   9.003  0.6475 -0.9410  0.3555
17149SOL     OW52887   4.739   6.400  11.481  0.8940 -0.1733 -0.0981
17149SOL    HW152888   4.811   6.361  11.530  1.0198  0.2726  0.0753
17149SOL    HW252889   4.661   6.382  11.533  1.0220  0.2619  0.2401
17150SOL     OW52890   0.835   1.155  10.345  0.2296  0.2351 -0.5122
17150SOL    HW152891   0.921   1.114  10.352  0.1382 -0.2394 -1.8113
17150SOL    HW252892   0.776   1.083  10.322 -0.5543  0.5284  0.5264
17151SOL     OW52893   5.715   0.766  11.388 -0.2848  0.1729  0.4217
17151SOL    HW152894   5.726   0.718  11.306  0.5804  0.0752  0.5865
17151SOL    HW252895   5.780   0.727  11.447  0.0774  1.1902  0.7125
17152SOL     OW52896   0.935   2.653   8.391 -0.3005  0.8295  0.1620
17152SOL    HW152897   0.939   2.681   8.300  1.6261  1.3643  0.3544
17152SOL    HW252898   0.948   2.733   8.442  2.1160  0.1468  0.7822
17153SOL     OW52899   0.096   5.531   9.379 -0.2379 -0.2410  0.0570
17153SOL    HW152900   0.117   5.518   9.287 -0.2046 -0.9964  0.1693
17153SOL    HW252901   0.008   5.568   9.379 -0.3456 -0.5026 -0.2680
17154SOL     OW52902   7.547   1.681   4.377  0.5086  0.9025  0.4828
17154SOL    HW152903   7.600   1.629   4.438 -0.2292 -0.3722  0.0769
17154SOL    HW252904   7.485   1.618   4.340 -3.5215  2.7975  3.3135
17155SOL     OW52905   2.168   7.274   8.224 -0.0911 -0.5941 -0.0898
17155SOL    HW152906   2.155   7.328   8.302 -0.4453  0.1909 -0.6815
17155SOL    HW252907   2.206   7.333   8.159 -0.9292 -0.9075 -0.9032
17156SOL     OW52908   5.634   7.902   7.187 -0.3842 -0.0351 -0.0383
17156SOL    HW152909   5.636   7.929   7.279 -0.3816  3.5637 -0.9601
17156SOL    HW252910   5.727   7.891   7.164 -0.2513  1.1743 -0.1255
17157SOL     OW52911   3.731   2.576   4.230  0.0529 -0.7237  0.3015
17157SOL    HW152912   3.741   2.671   4.240 -2.2502 -0.4902  0.9027
17157SOL    HW252913   3.703   2.565   4.139 -1.3029 -0.6166  0.6764
17158SOL     OW52914   5.088   4.761  12.345  0.6497 -0.4852  0.0807
17158SOL    HW152915   5.163   4.820  12.347  0.0297  0.3466 -0.5736
17158SOL    HW252916   5.057   4.763  12.255  0.7854 -2.0617 -0.0364
17159SOL     OW52917   4.373   4.910   3.418 -0.9748  0.2688 -0.7224
17159SOL    HW152918   4.378   4.968   3.494  0.3866 -0.3236 -0.3227
17159SOL    HW252919   4.424   4.954   3.351  2.2398 -1.4961  0.3593
17160SOL     OW52920   7.072   1.864   4.502  0.0247  0.0654  0.1042
17160SOL    HW152921   7.134   1.835   4.435 -1.1260  0.8649 -1.3702
17160SOL    HW252922   7.087   1.958   4.510 -1.5903  0.4727 -1.0075
17161SOL     OW52923   1.257   5.292   9.339  0.5631  0.0189  0.4721
17161SOL    HW152924   1.300   5.326   9.260 -0.3289  0.0242 -0.0219
17161SOL    HW252925   1.324   5.298   9.407  0.7129  1.9890  0.2143
17162SOL     OW52926   6.719   7.198   8.176  0.7751 -0.9257  0.2683
17162SOL    HW152927   6.813   7.209   8.185  1.2360 -2.6216 -1.5730
17162SOL    HW252928   6.705   7.103   8.187 -0.9359 -0.5569  1.8761
17163SOL     OW52929   3.264   4.155   4.571 -0.5896 -0.0397  0.4862
17163SOL    HW152930   3.174   4.174   4.598 -0.7062  1.4142 -0.7938
17163SOL    HW252931   3.300   4.240   4.547  1.3302 -0.5266  1.4789
17164SOL     OW52932   2.145   4.488  12.348  0.4624  0.2822  0.0381
17164SOL    HW152933   2.111   4.560  12.400 -0.2881 -0.4089  0.5383
17164SOL    HW252934   2.236   4.512  12.329  0.0847  1.5567 -0.1961
17165SOL     OW52935   1.001   1.533   1.375  0.0009  0.5053  0.1597
17165SOL    HW152936   0.970   1.582   1.451  0.4360  2.7532 -1.0063
17165SOL    HW252937   1.094   1.520   1.392  0.0912  0.9789  0.0502
17166SOL     OW52938   5.272   3.765   6.700  0.8374 -0.2294  0.6827
17166SOL    HW152939   5.186   3.726   6.684  1.0715 -1.0824  1.3939
17166SOL    HW252940   5.334   3.692   6.691  1.4860  0.3588  0.2329
17167SOL     OW52941   0.696   2.883   8.205  0.0818 -0.0530 -0.2266
17167SOL    HW152942   0.704   2.955   8.268 -0.7743 -1.8947  2.1361
17167SOL    HW252943   0.635   2.915   8.139 -1.0931  1.0630  1.3365
17168SOL     OW52944   2.500   6.433   0.940  0.6746 -0.0569  0.2963
17168SOL    HW152945   2.437   6.469   0.878  1.2618  1.1503  0.3673
17168SOL    HW252946   2.554   6.374   0.888  0.5537  0.2128 -0.1365
17169SOL     OW52947   7.357   7.795   4.957  0.3840 -0.0522  0.3808
17169SOL    HW152948   7.430   7.838   4.914  0.3156 -1.2683 -1.0255
17169SOL    HW252949   7.384   7.703   4.964 -1.3145 -0.6949 -0.9410
17170SOL     OW52950   7.859   2.530   4.467 -1.0492 -0.4461 -0.5213
17170SOL    HW152951   7.876   2.476   4.390  2.1066  1.5351 -1.4016
17170SOL    HW252952   7.822   2.611   4.432  0.9536  0.7060 -0.1387
17171SOL     OW52953   0.248   7.967   9.729  0.6294 -0.2682  0.1319
17171SOL    HW152954   0.292   8.030   9.787  1.9482 -1.6041  0.6542
17171SOL    HW252955   0.156   7.970   9.756  0.6202  1.5333  0.0189
17172SOL     OW52956   0.019   0.752   4.851  0.3536 -0.0305 -0.4877
17172SOL    HW152957  -0.072   0.775   4.831  0.5281  0.4646 -0.7260
17172SOL    HW252958   0.012   0.685   4.919 -0.1538  1.7169  1.2646
17173SOL     OW52959   5.207   2.314   5.780 -0.6775  0.0401 -0.7699
17173SOL    HW152960   5.250   2.312   5.695  1.6000 -0.3279  0.3326
17173SOL    HW252961   5.236   2.396   5.820  0.2143 -0.8868  0.5720
17174SOL     OW52962   7.449   3.091   0.762  0.1343 -0.3473  0.5348
17174SOL    HW152963   7.536   3.128   0.751  0.4034 -0.6771  1.5176
17174SOL    HW252964   7.390   3.164   0.744  0.5761 -0.2911 -0.8227
17175SOL     OW52965   5.596   4.180   8.437  0.1278  0.0515  0.2889
17175SOL    HW152966   5.624   4.091   8.459 -0.3128 -0.1850 -0.1051
17175SOL    HW252967   5.621   4.192   8.346  4.0079  1.8283  1.3486
17176SOL     OW52968   3.495   6.632  10.524  0.7276 -0.2528  0.4920
17176SOL    HW152969   3.483   6.597  10.612  3.7048  1.1145  1.5727
17176SOL    HW252970   3.534   6.560  10.474  0.1669 -0.6626  0.6445
17177SOL     OW52971   6.058   3.784  12.423 -0.0515 -0.0104  0.1055
17177SOL    HW152972   6.069   3.761  12.330 -0.4274 -0.7047  0.2226
17177SOL    HW252973   5.971   3.751  12.445  0.0273  0.1751  0.6995
17178SOL     OW52974   6.948   1.460   3.104 -0.1107  0.3906 -0.1196
17178SOL    HW152975   6.876   1.404   3.074  0.5467 -1.1669  1.0546
17178SOL    HW252976   7.016   1.449   3.038 -0.0935  0.0067 -0.0414
17179SOL     OW52977   6.510   6.988   0.849  0.3253 -0.5333 -0.2249
17179SOL    HW152978   6.518   6.896   0.822 -0.7376 -0.2813 -1.5295
17179SOL    HW252979   6.428   6.991   0.899  0.8452 -0.4577  0.6439
17180SOL     OW52980   1.153   6.349   9.073 -0.1385 -0.1569 -0.2688
17180SOL    HW152981   1.069   6.390   9.091  0.0474  0.0379  0.1668
17180SOL    HW252982   1.197   6.409   9.012 -0.0942  0.0119 -0.0706
17181SOL     OW52983   2.920   3.646   8.230 -0.8339 -0.7361  0.2058
17181SOL    HW152984   3.001   3.696   8.219 -0.2567 -1.7035 -0.1033
17181SOL    HW252985   2.858   3.687   8.170 -0.9444  0.7230  1.2434
17182SOL     OW52986   2.763   7.014   9.252  0.2397 -0.0199 -0.9414
17182SOL    HW152987   2.710   7.060   9.318 -0.7557 -3.1922  0.6672
17182SOL    HW252988   2.712   7.022   9.171 -0.3979  0.8085 -0.4739
17183SOL     OW52989   3.437   2.487   7.102 -0.3110 -0.2320 -0.3122
17183SOL    HW152990   3.463   2.539   7.178  0.3981  0.8224 -1.2449
17183SOL    HW252991   3.516   2.480   7.049 -0.9517 -0.3803 -1.2794
17184SOL     OW52992   6.388   1.760   1.844 -0.7502  0.2635 -0.8235
17184SOL    HW152993   6.342   1.714   1.914  0.2857  1.5528  0.7889
17184SOL    HW252994   6.399   1.694   1.775 -2.5787 -0.8020 -0.1589
17185SOL     OW52995   7.611   4.741   3.207  0.0344  0.1428 -0.0293
17185SOL    HW152996   7.688   4.782   3.169 -1.0108  0.6096 -1.7552
17185SOL    HW252997   7.614   4.650   3.175  1.0976 -0.5587  1.8787
17186SOL     OW52998   4.155   2.223   7.945 -0.3763  0.5834  0.1359
17186SOL    HW152999   4.146   2.307   7.901  3.0324  1.6701  1.1401
17186SOL    HW253000   4.249   2.216   7.963 -0.6849 -2.9551  1.0913
17187SOL     OW53001   6.516   4.376   8.430 -0.1313  0.1947  0.1674
17187SOL    HW153002   6.484   4.380   8.520 -0.4521  3.1937  0.0288
17187SOL    HW253003   6.464   4.441   8.383  1.6637  0.4618 -1.6015
17188SOL     OW53004   4.018   0.068   8.533 -0.0624 -0.2573 -0.2425
17188SOL    HW153005   4.013   0.124   8.611 -0.4553 -0.4663 -0.1175
17188SOL    HW253006   3.977   0.119   8.463  0.0588 -0.1738 -0.2525
17189SOL     OW53007   6.107   2.249   7.589 -0.8247  0.0241  0.1710
17189SOL    HW153008   6.190   2.284   7.557 -0.7055 -1.6050 -1.4695
17189SOL    HW253009   6.129   2.210   7.674  0.1703 -0.6501 -0.3766
17190SOL     OW53010   3.621   7.131  11.171 -0.1527 -0.7160  0.0453
17190SOL    HW153011   3.626   7.212  11.121 -1.2462 -1.3708 -1.1866
17190SOL    HW253012   3.654   7.155  11.258  0.6117  0.7548 -0.6031
17191SOL     OW53013   2.711   6.806   2.744 -0.1302  0.0295 -0.0322
17191SOL    HW153014   2.712   6.710   2.741  0.9262  0.0385 -0.7322
17191SOL    HW253015   2.656   6.827   2.819 -0.4660 -1.1260  0.0706
17192SOL     OW53016   0.234   0.896   6.816 -0.4384 -0.2779 -0.2842
17192SOL    HW153017   0.279   0.974   6.849  1.6195 -0.8758 -1.5018
17192SOL    HW253018   0.235   0.834   6.889 -1.8083  0.6668  0.5890
17193SOL     OW53019   0.069   1.867   6.459  0.3324  0.6352  0.2156
17193SOL    HW153020   0.102   1.784   6.493  0.4272  0.1851 -0.9434
17193SOL    HW253021   0.126   1.934   6.498  1.0658  0.0563  0.1501
17194SOL     OW53022   0.825   1.375  10.131  0.4133  1.1281 -0.4194
17194SOL    HW153023   0.844   1.309  10.197  0.9291 -0.1357 -1.7864
17194SOL    HW253024   0.765   1.436  10.174  1.8077  1.1306  1.6380
17195SOL     OW53025   0.925   2.763   9.310  0.0641 -0.5453 -0.5222
17195SOL    HW153026   0.974   2.842   9.332  0.9109 -1.5285  1.4151
17195SOL    HW253027   0.843   2.771   9.357  1.1381 -1.8357  1.7281
17196SOL     OW53028   1.354   0.256   4.447  0.2610 -0.0349 -0.8142
17196SOL    HW153029   1.406   0.324   4.490  0.1974 -0.1690 -0.5241
17196SOL    HW253030   1.285   0.303   4.401  0.4693  0.1251 -0.9673
17197SOL     OW53031   4.598   7.774   2.655  0.4027 -0.7276 -0.0123
17197SOL    HW153032   4.516   7.754   2.609  0.4840 -1.4270  0.1465
17197SOL    HW253033   4.652   7.817   2.588  0.9584 -2.7526 -0.9312
17198SOL     OW53034   1.198   5.009   9.437  0.0952  0.0434  0.0149
17198SOL    HW153035   1.205   5.092   9.390  0.5310 -0.6244 -1.1394
17198SOL    HW253036   1.110   4.977   9.415  0.7954 -0.9309 -1.5320
17199SOL     OW53037   1.689   5.242   2.903  0.5301  0.8231  0.1002
17199SOL    HW153038   1.610   5.192   2.886  2.3755 -2.2039 -0.3685
17199SOL    HW253039   1.720   5.269   2.817  1.0174  0.2467  0.0859
17200SOL     OW53040   3.427   4.619   0.965 -0.1249 -0.1393  0.1526
17200SOL    HW153041   3.422   4.588   1.055  0.2768  1.0177  0.5874
17200SOL    HW253042   3.521   4.630   0.949 -0.0637 -1.8636 -0.9664
17201SOL     OW53043   5.838   1.735   1.413 -0.2830  0.3499 -0.4734
17201SOL    HW153044   5.929   1.722   1.390  0.2573  2.2890  0.3318
17201SOL    HW253045   5.838   1.744   1.508 -1.3392  0.1940 -0.4472
17202SOL     OW53046   2.941   2.516   9.496  0.5273  0.9008 -0.2987
17202SOL    HW153047   3.006   2.586   9.486  1.6334  0.0144  0.4355
17202SOL    HW253048   2.968   2.449   9.434  1.2953 -0.1595  1.1234
17203SOL     OW53049   7.389   2.689   1.235 -0.0571  0.0360  0.0868
17203SOL    HW153050   7.404   2.623   1.167  2.3136  0.5054  0.0763
17203SOL    HW253051   7.309   2.659   1.279  0.0067 -1.9059 -0.9791
17204SOL     OW53052   6.699   3.153   5.936 -0.2612 -0.2200  0.3173
17204SOL    HW153053   6.632   3.221   5.930 -1.7775 -1.6911 -0.2598
17204SOL    HW253054   6.712   3.140   6.030 -0.8023  0.0461  0.4320
17205SOL     OW53055   1.433   4.357   9.017  0.2998  1.0103 -0.1845
17205SOL    HW153056   1.438   4.409   8.937  1.5514 -0.1075 -0.8744
17205SOL    HW253057   1.503   4.292   9.008 -1.0106 -0.6182  0.7597
17206SOL     OW53058   1.688   5.959   5.098  0.0406  0.5495  0.0639
17206SOL    HW153059   1.773   5.991   5.127  0.5192 -0.1223 -0.5593
17206SOL    HW253060   1.708   5.882   5.044 -0.9310  0.6275 -0.4383
17207SOL     OW53061   1.781   2.043   6.867  0.0070 -0.1026 -0.3943
17207SOL    HW153062   1.760   1.952   6.847 -0.3605  0.3512 -2.2788
17207SOL    HW253063   1.704   2.077   6.913  0.7032 -1.0737  1.6074
17208SOL     OW53064   6.287   1.280   9.670  0.1093  0.2571  0.4445
17208SOL    HW153065   6.251   1.276   9.759 -0.7202  0.8906  0.1587
17208SOL    HW253066   6.315   1.191   9.652 -1.0866 -0.2216  0.8044
17209SOL     OW53067   3.616   3.232  12.087  0.1622 -0.1689  0.6892
17209SOL    HW153068   3.663   3.251  12.005 -0.8733  1.1557  0.3714
17209SOL    HW253069   3.562   3.155  12.067  2.8276 -2.3845  1.3561
17210SOL     OW53070   0.284   7.747   4.172  0.3120 -0.2003  0.2768
17210SOL    HW153071   0.299   7.653   4.160 -0.0886 -0.2448  0.1049
17210SOL    HW253072   0.371   7.787   4.161  0.5218 -0.5702  0.5802
17211SOL     OW53073   6.551   1.743   4.973 -0.3302  0.0733  0.0727
17211SOL    HW153074   6.499   1.777   5.046 -2.2120 -0.0697 -1.1223
17211SOL    HW253075   6.513   1.657   4.955  0.4557 -0.1185 -0.7296
17212SOL     OW53076   6.696   6.301  10.426  0.6547 -0.2611  0.3353
17212SOL    HW153077   6.607   6.321  10.455  0.2328 -2.2152  0.5380
17212SOL    HW253078   6.737   6.387  10.415 -1.0837  0.6804  0.7207
17213SOL     OW53079   2.051   2.935   9.774  0.1346  0.0928 -0.4350
17213SOL    HW153080   1.961   2.958   9.751  0.3124  1.7085  0.3155
17213SOL    HW253081   2.050   2.927   9.870  1.0261  1.4011 -0.2850
17214SOL     OW53082   3.231   7.399   0.937 -0.0109 -0.2456  0.3651
17214SOL    HW153083   3.325   7.384   0.933 -0.4147 -3.5649  1.1112
17214SOL    HW253084   3.219   7.459   1.011  1.4692 -0.1424  0.5409
17215SOL     OW53085   7.125   2.769   1.379 -0.1185 -0.1430  0.3937
17215SOL    HW153086   7.127   2.675   1.395  1.6512 -0.5081 -1.4775
17215SOL    HW253087   7.158   2.809   1.460 -0.1014 -1.1739  0.9034
17216SOL     OW53088   1.225   3.340   0.512 -0.1425 -0.1685  0.6571
17216SOL    HW153089   1.292   3.271   0.510 -1.1178 -1.1750  1.3490
17216SOL    HW253090   1.142   3.292   0.510 -0.8744  1.0953 -1.5814
17217SOL     OW53091   1.999   3.351  11.919  0.5234  0.1646  0.1720
17217SOL    HW153092   2.051   3.403  11.981  0.3878  2.5151 -1.5341
17217SOL    HW253093   2.065   3.304  11.867  0.8737  1.3802 -0.5184
17218SOL     OW53094   7.392   3.422   7.324 -0.0237  0.2537 -0.1986
17218SOL    HW153095   7.456   3.491   7.305 -0.1937  0.3143 -0.5614
17218SOL    HW253096   7.326   3.431   7.255 -0.6621  0.4785  0.4174
17219SOL     OW53097   2.691   3.316   6.618 -0.3033 -0.4891  0.1952
17219SOL    HW153098   2.783   3.344   6.622  0.7364 -3.5888  1.2136
17219SOL    HW253099   2.651   3.355   6.696  0.2950  0.3382  0.1103
17220SOL     OW53100   2.382   6.223  10.987  0.4163  0.1662 -0.8266
17220SOL    HW153101   2.409   6.262  11.070  1.0644  0.4485 -1.1642
17220SOL    HW253102   2.464   6.197  10.945  0.2722  1.7794 -2.2412
17221SOL     OW53103   5.282   7.169   8.405  0.0537 -0.0100  0.2770
17221SOL    HW153104   5.341   7.235   8.440  0.7420 -0.5503  0.1714
17221SOL    HW253105   5.223   7.148   8.477  0.0077  0.5127  0.3935
17222SOL     OW53106   2.238   6.738   7.138  0.1164  0.2739 -0.0811
17222SOL    HW153107   2.230   6.705   7.228 -0.2736  1.9599  0.5251
17222SOL    HW253108   2.157   6.712   7.096  0.6415 -1.2537 -0.2296
17223SOL     OW53109   6.079   1.557   2.616 -0.1999  0.3030 -0.1573
17223SOL    HW153110   6.109   1.488   2.674  2.6474  1.2349 -0.3675
17223SOL    HW253111   6.113   1.638   2.655 -1.0303  1.2976 -1.4019
17224SOL     OW53112   7.215   0.858   1.967  0.3471 -0.2143 -0.0316
17224SOL    HW153113   7.122   0.842   1.985  0.3708  1.6981  2.2889
17224SOL    HW253114   7.261   0.807   2.034  0.9558 -0.4611 -0.6259
17225SOL     OW53115   2.682   3.640   2.447  0.0491  0.3156 -0.6539
17225SOL    HW153116   2.664   3.630   2.540 -1.5035  0.2979 -0.9259
17225SOL    HW253117   2.677   3.552   2.411 -1.2306  0.5064 -1.0259
17226SOL     OW53118   2.052   3.310   1.634  0.4986  0.2173 -0.7270
17226SOL    HW153119   2.053   3.380   1.569 -0.2558  0.3574 -0.5985
17226SOL    HW253120   2.014   3.235   1.588 -1.5581  0.7640 -0.0393
17227SOL     OW53121   6.635   0.205   8.872  0.5756  0.0695 -0.3739
17227SOL    HW153122   6.723   0.177   8.846  0.4992  0.5945 -1.2471
17227SOL    HW253123   6.623   0.169   8.960 -0.1002 -3.9570 -1.8925
17228SOL     OW53124   6.087   6.305   4.176  0.1057 -0.2790 -0.0775
17228SOL    HW153125   6.057   6.392   4.149  1.7969  0.3828  0.0475
17228SOL    HW253126   6.169   6.322   4.223  0.2646 -1.9186  0.2775
17229SOL     OW53127   6.801   6.362   1.120  0.1738  0.7959  0.1326
17229SOL    HW153128   6.751   6.435   1.084  1.0994  1.7455  0.6922
17229SOL    HW253129   6.873   6.404   1.168  0.6545 -0.4868  0.5807
17230SOL     OW53130   5.524   0.650   4.006 -0.1365 -0.5013  0.3241
17230SOL    HW153131   5.538   0.555   4.007 -0.4656 -0.5594 -0.4129
17230SOL    HW253132   5.478   0.667   3.924  0.1079  0.3240  0.3510
17231SOL     OW53133   5.448   4.913   0.708 -0.1059  0.6306  0.3512
17231SOL    HW153134   5.541   4.935   0.717  0.3425 -1.3358  0.9622
17231SOL    HW253135   5.441   4.823   0.740 -1.9568  0.1807 -1.1227
17232SOL     OW53136   3.338   0.340  11.479  0.0206 -0.4389 -0.7172
17232SOL    HW153137   3.418   0.388  11.503  1.1399 -1.8137 -1.5834
17232SOL    HW253138   3.272   0.373  11.541  1.4582  0.0970  0.6152
17233SOL     OW53139   4.869   7.672   0.427 -0.2103 -0.1782  0.4558
17233SOL    HW153140   4.830   7.585   0.431  0.0023 -0.3064 -0.2379
17233SOL    HW253141   4.891   7.685   0.335 -0.8924  0.9024  0.4319
17234SOL     OW53142   0.416   6.119  10.346 -0.2551  1.0382  0.3974
17234SOL    HW153143   0.398   6.063  10.271 -1.3179  0.1649  1.2764
17234SOL    HW253144   0.492   6.171  10.319  0.1769 -0.1534 -0.7917
17235SOL     OW53145   4.194   0.068   5.717 -0.0142  0.1710  0.1581
17235SOL    HW153146   4.193   0.149   5.666  0.5321  0.6371  0.8672
17235SOL    HW253147   4.120   0.018   5.684 -0.6003  1.1245 -0.0196
17236SOL     OW53148   6.316   5.794   8.023 -0.5104 -0.5696  0.0900
17236SOL    HW153149   6.238   5.840   7.992 -0.4696 -1.0801 -0.7798
17236SOL    HW253150   6.371   5.863   8.061 -0.9593 -0.0710 -0.1601
17237SOL     OW53151   3.453   0.406   8.516 -0.1949 -0.5975  0.3953
17237SOL    HW153152   3.489   0.445   8.595 -0.8475  1.2062 -0.1526
17237SOL    HW253153   3.526   0.357   8.478  0.5913 -0.1214  1.2544
17238SOL     OW53154   7.091   0.453   7.564 -0.0268 -0.1448 -0.4035
17238SOL    HW153155   7.120   0.525   7.509  0.3372  0.2086  0.2338
17238SOL    HW253156   6.996   0.454   7.558 -0.1145  1.2241  0.6017
17239SOL     OW53157   2.620   6.146   7.493 -0.2619  0.4631 -0.2732
17239SOL    HW153158   2.691   6.207   7.515  0.0732 -0.8579  2.6156
17239SOL    HW253159   2.650   6.104   7.412  1.7487  0.7487  0.2590
17240SOL     OW53160   3.877   1.694   4.430  0.2200 -0.8023 -0.4141
17240SOL    HW153161   3.916   1.717   4.346 -0.8340  0.3747 -0.6022
17240SOL    HW253162   3.843   1.605   4.418  0.0090 -0.6097 -1.2560
17241SOL     OW53163   7.248   6.182   2.714  0.1304  0.4855 -0.2904
17241SOL    HW153164   7.250   6.086   2.722  1.2082  0.5388  0.1907
17241SOL    HW253165   7.234   6.213   2.803 -0.1861  0.7831 -0.4414
17242SOL     OW53166   5.649   3.696   6.758 -0.2078  0.5938  0.2702
17242SOL    HW153167   5.652   3.791   6.748 -0.4062  0.6156  0.4298
17242SOL    HW253168   5.647   3.682   6.853 -0.9487  0.4493  0.2343
17243SOL     OW53169   5.768   7.160   6.900  0.8606 -0.0396  0.1769
17243SOL    HW153170   5.772   7.248   6.862 -1.4207  0.9312  1.9144
17243SOL    HW253171   5.782   7.101   6.826  0.5316  1.7783 -1.4079
17244SOL     OW53172   5.802   3.974  11.619  0.3593  0.6006 -0.3779
17244SOL    HW153173   5.835   4.060  11.593 -0.2908  1.2241  0.7557
17244SOL    HW253174   5.717   3.967  11.575  1.1980 -0.2623 -1.9178
17245SOL     OW53175   3.782   2.399   0.229 -0.1291 -0.0160  0.2142
17245SOL    HW153176   3.734   2.316   0.240 -0.6210  0.3017  0.5291
17245SOL    HW253177   3.717   2.467   0.249  0.5732  0.4214  1.1131
17246SOL     OW53178   6.196   5.814   1.123 -0.4435 -0.7534  0.3039
17246SOL    HW153179   6.251   5.736   1.111 -0.2997 -0.6536  0.3131
17246SOL    HW253180   6.161   5.806   1.212  0.8324 -0.0147  0.8938
17247SOL     OW53181   0.253   6.846   4.504  0.5069  0.1295 -0.4543
17247SOL    HW153182   0.199   6.914   4.464 -0.4731 -1.1492 -1.3983
17247SOL    HW253183   0.340   6.885   4.509  0.5127  0.6754 -3.1050
17248SOL     OW53184   1.170   3.870   3.587 -0.2646 -0.0221 -0.0302
17248SOL    HW153185   1.175   3.804   3.517  0.0308 -0.6202  0.5547
17248SOL    HW253186   1.241   3.931   3.567 -1.6323  1.1607 -1.6049
17249SOL     OW53187   2.614   3.818   3.444  0.1732 -0.1311  0.1002
17249SOL    HW153188   2.698   3.863   3.440 -0.8241  1.7446 -2.2676
17249SOL    HW253189   2.593   3.816   3.537  1.3254  2.4220  0.5185
17250SOL     OW53190   5.045   1.664   7.678 -0.0156  0.0899 -0.3457
17250SOL    HW153191   5.133   1.624   7.676  0.4012  0.9896 -2.0473
17250SOL    HW253192   5.059   1.752   7.714 -0.1131  0.4412 -1.1529
17251SOL     OW53193   7.760   7.584   9.792 -0.5131  0.2296  0.2946
17251SOL    HW153194   7.831   7.582   9.856  0.1438 -1.7960 -0.4307
17251SOL    HW253195   7.742   7.492   9.772 -2.2431  0.7350 -0.7635
17252SOL     OW53196   4.585   4.760  10.232  0.0413 -0.1855 -0.5235
17252SOL    HW153197   4.606   4.780  10.323 -0.5707  0.5493 -0.5305
17252SOL    HW253198   4.661   4.789  10.183  0.2106 -0.2250 -0.2884
17253SOL     OW53199   4.408   5.586  12.462 -0.0206  0.4617  0.3254
17253SOL    HW153200   4.455   5.513  12.422  1.5018  0.9424  1.1586
17253SOL    HW253201   4.374   5.550  12.545 -0.8210  0.2189 -0.1007
17254SOL     OW53202   0.836   7.266   3.223  0.0287 -0.1121  0.5502
17254SOL    HW153203   0.833   7.170   3.218  1.4127 -0.1569 -0.0294
17254SOL    HW253204   0.746   7.292   3.241  0.0001 -1.6465  3.1869
17255SOL     OW53205   3.054   3.781  10.218 -0.0667 -0.0470 -0.4543
17255SOL    HW153206   3.085   3.836  10.146  1.0650 -0.0807 -0.0157
17255SOL    HW253207   2.999   3.715  10.176  2.1025 -1.2392 -1.5793
17256SOL     OW53208   1.776   4.271   1.095 -0.5479 -0.2136  0.1661
17256SOL    HW153209   1.811   4.222   1.020  1.0482  2.6311 -1.1372
17256SOL    HW253210   1.682   4.278   1.077 -0.1899  0.4917 -1.7288
17257SOL     OW53211   5.341   4.964   8.810  0.0615 -0.6020 -0.0153
17257SOL    HW153212   5.270   4.979   8.872  0.6178 -0.5454  0.6182
17257SOL    HW253213   5.311   5.004   8.729  0.6297  2.2674  1.0614
17258SOL     OW53214   5.307   6.439   3.425  0.3853  0.8345 -0.1235
17258SOL    HW153215   5.337   6.416   3.513  0.3427  2.6762  0.4079
17258SOL    HW253216   5.355   6.380   3.367  1.9633  0.9596  0.9911
17259SOL     OW53217   4.460   6.074   2.714 -0.1038 -0.2491  0.0799
17259SOL    HW153218   4.481   6.012   2.644  0.1880  2.6149 -2.5933
17259SOL    HW253219   4.425   6.150   2.668 -0.0099  1.7808  3.1185
17260SOL     OW53220   7.555   0.052   8.341 -0.0680 -0.6977 -0.3464
17260SOL    HW153221   7.551   0.034   8.248  0.3231  0.5515 -0.6253
17260SOL    HW253222   7.528  -0.029   8.383 -2.1071 -0.7090 -1.5746
17261SOL     OW53223   1.226   1.116   2.162  0.0463  0.1044  0.3225
17261SOL    HW153224   1.254   1.109   2.071 -2.1294 -0.9639 -0.3279
17261SOL    HW253225   1.297   1.078   2.212  0.1924 -1.6961 -1.1519
17262SOL     OW53226   0.906   0.914  11.475 -0.2726 -0.0405  0.1776
17262SOL    HW153227   0.898   1.006  11.503  2.0121  0.2387  0.0911
17262SOL    HW253228   0.937   0.868  11.554 -0.1210 -0.4757 -0.1331
17263SOL     OW53229   5.810   3.051   5.370 -0.0157  0.4830  0.1501
17263SOL    HW153230   5.791   3.141   5.345 -1.0161  0.9494  2.3484
17263SOL    HW253231   5.872   3.058   5.442 -1.9000 -0.4010  1.9643
17264SOL     OW53232   3.679   5.741   3.376 -0.1284  0.0230  0.3234
17264SOL    HW153233   3.764   5.711   3.345 -0.0893  0.4942 -0.0319
17264SOL    HW253234   3.673   5.708   3.466 -0.0926 -1.0564 -0.0581
17265SOL     OW53235   1.964   7.713   5.017 -0.2263 -0.1916 -0.0374
17265SOL    HW153236   2.054   7.718   4.986  0.0146  0.1881  0.6960
17265SOL    HW253237   1.930   7.632   4.979  0.8809 -1.0879  0.8304
17266SOL     OW53238   5.406   6.523   5.302 -0.0186  0.2861 -0.3778
17266SOL    HW153239   5.428   6.444   5.253 -1.7866 -0.3122 -0.2802
17266SOL    HW253240   5.394   6.591   5.236  0.2287  0.1510 -0.5621
17267SOL     OW53241   5.002   2.035   2.333  0.4745  0.1885  0.1659
17267SOL    HW153242   4.980   2.035   2.240 -0.6421  0.9296  0.4103
17267SOL    HW253243   5.091   2.000   2.337  0.2510 -0.5676 -1.1064
17268SOL     OW53244   0.924   6.634   4.411  0.1619  0.3613 -0.5291
17268SOL    HW153245   0.952   6.701   4.472  1.6891 -0.3058 -0.4528
17268SOL    HW253246   0.989   6.636   4.341 -1.2251  0.7143 -1.8734
17269SOL     OW53247   4.743   2.386   3.677 -0.0514  1.1649 -0.3214
17269SOL    HW153248   4.691   2.409   3.600 -1.8084  0.2148  0.5245
17269SOL    HW253249   4.696   2.314   3.718  1.4589  0.8776  1.0266
17270SOL     OW53250   7.743   7.610   1.600 -0.1887  0.5372 -0.5261
17270SOL    HW153251   7.764   7.598   1.508  0.1167 -0.6879 -0.3115
17270SOL    HW253252   7.807   7.674   1.632 -0.3556  1.0352 -1.1752
17271SOL     OW53253   6.230   6.437   9.369  0.0920 -0.4578 -0.8265
17271SOL    HW153254   6.245   6.392   9.285  0.5472  0.3292 -1.1772
17271SOL    HW253255   6.142   6.410   9.395 -0.2859 -0.2663 -1.8548
17272SOL     OW53256   5.772   6.144   2.273  0.3216 -0.5116 -0.2419
17272SOL    HW153257   5.823   6.102   2.343 -0.1272 -2.0776 -0.8036
17272SOL    HW253258   5.782   6.085   2.198 -0.5989  0.2445 -0.9752
17273SOL     OW53259   3.586   7.595   1.629 -0.2312 -0.0998  0.3303
17273SOL    HW153260   3.600   7.673   1.683  1.6524 -1.4638  1.9333
17273SOL    HW253261   3.530   7.626   1.558  1.5059  3.0445  0.1258
17274SOL     OW53262   1.983   2.184   8.382 -0.0561 -0.2333 -0.3850
17274SOL    HW153263   2.021   2.248   8.322  0.5340 -0.0962  0.1238
17274SOL    HW253264   1.894   2.215   8.398  0.1676  0.3625 -0.2839
17275SOL     OW53265   5.109   1.282  11.875 -0.3182 -0.3493 -0.2661
17275SOL    HW153266   5.164   1.218  11.830 -0.0924  0.2876 -0.9111
17275SOL    HW253267   5.019   1.251  11.860 -0.1531 -1.6965  1.2538
17276SOL     OW53268   6.924   4.958   2.163  0.3473 -0.9411 -0.2302
17276SOL    HW153269   6.880   5.039   2.140 -0.5465 -0.8423  1.6039
17276SOL    HW253270   6.856   4.906   2.208  1.8633 -1.0771  2.0737
17277SOL     OW53271   3.676   1.440   5.555 -0.1505 -0.1859 -0.0218
17277SOL    HW153272   3.727   1.360   5.568 -0.2511 -0.1881  0.3932
17277SOL    HW253273   3.714   1.502   5.618  1.6072  0.9189 -2.0445
17278SOL     OW53274   6.647   2.917  11.108  0.3569  0.6469  0.5322
17278SOL    HW153275   6.739   2.930  11.133  0.3514  1.1273  0.3050
17278SOL    HW253276   6.642   2.824  11.087  1.0789  0.8388 -0.6010
17279SOL     OW53277   3.031   2.883   8.705  0.1516  0.1276 -0.4225
17279SOL    HW153278   3.025   2.926   8.790 -1.4468 -0.2302 -0.3169
17279SOL    HW253279   2.988   2.944   8.645  1.3784  0.4367 -1.0318
17280SOL     OW53280   3.361   4.331   1.213  0.3291  0.3469 -0.2587
17280SOL    HW153281   3.419   4.406   1.223  0.7569 -0.1412  1.1436
17280SOL    HW253282   3.395   4.266   1.274  0.2215 -1.1689 -1.7579
17281SOL     OW53283   4.371   5.589  11.585 -0.1394 -0.6696 -1.2097
17281SOL    HW153284   4.443   5.547  11.633 -0.2602  0.9147  0.4573
17281SOL    HW253285   4.414   5.633  11.512  0.5879  0.0114 -0.3988
17282SOL     OW53286   2.591   3.155   2.623 -0.3128 -0.2818 -0.0454
17282SOL    HW153287   2.524   3.202   2.574 -1.0562 -0.5933  0.6454
17282SOL    HW253288   2.557   3.066   2.632  0.9837 -0.9256 -1.1540
17283SOL     OW53289   1.794   3.820   3.191  0.2064 -0.2924  0.1410
17283SOL    HW153290   1.842   3.793   3.270 -0.5396 -1.5940  0.1609
17283SOL    HW253291   1.860   3.817   3.122  0.4171 -1.0538  0.3615
17284SOL     OW53292   6.270   4.602   0.821 -0.2021 -0.3719 -0.5214
17284SOL    HW153293   6.246   4.595   0.729 -3.1624  1.1597  0.0273
17284SOL    HW253294   6.191   4.634   0.864  1.5483  0.4554  2.3276
17285SOL     OW53295   7.604   5.369   0.470  0.5250  0.5610 -0.3962
17285SOL    HW153296   7.632   5.314   0.397 -0.1821  0.2684 -0.4491
17285SOL    HW253297   7.656   5.449   0.460  1.0829  0.1702 -0.6943
17286SOL     OW53298   3.211   5.546  10.922  0.1962 -0.2690 -0.9343
17286SOL    HW153299   3.213   5.640  10.939  1.4099  0.1439 -2.9430
17286SOL    HW253300   3.194   5.506  11.007 -0.5089  1.7614 -0.0632
17287SOL     OW53301   2.797   6.101   3.274 -0.0590  0.9583 -0.3821
17287SOL    HW153302   2.826   6.159   3.204  1.4071 -0.0770 -0.6899
17287SOL    HW253303   2.759   6.159   3.339  0.1845  2.1259 -1.2396
17288SOL     OW53304   5.830   0.027   4.329 -0.0222 -0.0036 -0.1441
17288SOL    HW153305   5.805   0.082   4.255  0.3067 -0.6391 -0.7386
17288SOL    HW253306   5.802   0.077   4.406  0.7811  1.2716 -0.6304
17289SOL     OW53307   7.392   7.002   8.542 -0.1473  0.2140 -0.1630
17289SOL    HW153308   7.301   6.990   8.513  0.4769  0.1379 -2.2336
17289SOL    HW253309   7.394   7.091   8.577 -1.2997 -0.2393  1.1399
17290SOL     OW53310   4.455   5.172   0.010 -0.1329  0.1616 -0.7305
17290SOL    HW153311   4.368   5.167   0.049  0.5948  0.4959  1.0004
17290SOL    HW253312   4.486   5.082   0.009 -0.5495  0.0128 -1.5401
17291SOL     OW53313   1.778   7.888   2.571 -0.0401 -0.1424  0.6966
17291SOL    HW153314   1.833   7.955   2.531 -0.0236 -0.7937 -0.4181
17291SOL    HW253315   1.761   7.826   2.500 -0.2983 -1.1602  1.6268
17292SOL     OW53316   0.025   6.842   7.050 -0.4641  0.0887  0.4121
17292SOL    HW153317  -0.036   6.769   7.036 -0.3914  0.0984  0.0293
17292SOL    HW253318   0.050   6.835   7.142  0.0909 -0.8014  0.2007
17293SOL     OW53319   6.271   5.359   3.218 -0.0518  0.2231 -0.5175
17293SOL    HW153320   6.250   5.276   3.177  0.0347  0.6912 -1.5306
17293SOL    HW253321   6.341   5.396   3.165 -0.5394  1.2468 -0.4862
17294SOL     OW53322   7.801   6.878   6.768  0.1504  0.1177  0.7581
17294SOL    HW153323   7.789   6.919   6.854  0.5184 -1.3566  1.5409
17294SOL    HW253324   7.776   6.787   6.781  2.2534 -0.6567 -0.1207
17295SOL     OW53325   4.762   0.501   9.841  0.3323 -0.0432 -0.1562
17295SOL    HW153326   4.680   0.548   9.832 -0.2170 -1.1521 -1.3081
17295SOL    HW253327   4.791   0.486   9.751  1.6855  0.1300  0.2297
17296SOL     OW53328   2.574   5.226  11.313 -0.2103 -0.0958 -0.5159
17296SOL    HW153329   2.592   5.204  11.222 -0.0676  0.4411 -0.6212
17296SOL    HW253330   2.481   5.245  11.316 -0.6501 -2.0580 -0.1384
17297SOL     OW53331   2.795   1.946  10.142  0.1275  0.6116 -0.1939
17297SOL    HW153332   2.818   1.884  10.072  1.7692  0.4192  0.4466
17297SOL    HW253333   2.797   2.032  10.100  0.6764  0.4614 -0.4869
17298SOL     OW53334   3.703   1.362  11.315 -0.2420  0.6171  0.8827
17298SOL    HW153335   3.682   1.391  11.404  0.9337 -3.0911  2.5608
17298SOL    HW253336   3.702   1.267  11.320 -0.4762  0.2355 -3.2491
17299SOL     OW53337   5.259   2.778  11.444  0.5772 -0.1366 -0.1640
17299SOL    HW153338   5.307   2.764  11.362  0.5192  0.3413 -0.2875
17299SOL    HW253339   5.281   2.869  11.468 -0.3158  0.1089 -0.2546
17300SOL     OW53340   2.367   3.506   9.945  0.0640  0.3605  0.2467
17300SOL    HW153341   2.376   3.592   9.986  2.5281  0.9013 -1.2193
17300SOL    HW253342   2.362   3.524   9.851  0.7675 -1.0851 -0.1021
17301SOL     OW53343   0.572   1.571  10.726  0.0687  0.0203  0.0004
17301SOL    HW153344   0.570   1.490  10.675  0.8215  1.7838 -3.0805
17301SOL    HW253345   0.480   1.597  10.733 -0.0081  0.7571 -2.4699
17302SOL     OW53346   2.484   0.506   0.485 -0.9205 -0.2351  0.1934
17302SOL    HW153347   2.454   0.449   0.556 -3.1494  0.7096  0.0934
17302SOL    HW253348   2.463   0.457   0.405  1.7416 -1.3734  0.0889
17303SOL     OW53349   0.328   4.376  11.294  0.1037  0.2552  0.2112
17303SOL    HW153350   0.249   4.420  11.324 -0.7621 -1.4303  0.4805
17303SOL    HW253351   0.297   4.298  11.249  1.5942 -0.0291 -0.3852
17304SOL     OW53352   6.472   0.860  10.499 -0.1272  0.4106 -0.0467
17304SOL    HW153353   6.559   0.900  10.501  0.1708 -0.1092 -1.4427
17304SOL    HW253354   6.467   0.810  10.580  1.4794 -0.7406 -0.6025
17305SOL     OW53355   4.264   3.000   8.163  0.3001 -0.4604  0.2258
17305SOL    HW153356   4.334   3.018   8.226  1.3023  0.8090 -1.1840
17305SOL    HW253357   4.187   3.044   8.200  1.3028  1.8228 -0.2278
17306SOL     OW53358   6.605   2.506   9.275  0.5005 -1.2189  0.4054
17306SOL    HW153359   6.632   2.559   9.200  0.2908 -0.2942  0.9792
17306SOL    HW253360   6.533   2.452   9.242  0.8798 -1.3469 -0.2435
17307SOL     OW53361   2.356   2.233   9.126 -0.7668  0.0657 -0.4639
17307SOL    HW153362   2.387   2.230   9.217 -0.9034 -0.3240 -0.4238
17307SOL    HW253363   2.292   2.161   9.121  1.0994 -1.6400 -1.5380
17308SOL     OW53364   1.095   7.441   7.281  0.2839 -0.4359 -0.6452
17308SOL    HW153365   1.053   7.522   7.249  0.6832 -0.6799 -1.8388
17308SOL    HW253366   1.072   7.437   7.374  0.3845  1.1400 -0.5227
17309SOL     OW53367   2.449   5.104   4.391  0.1144 -0.0764 -0.7092
17309SOL    HW153368   2.537   5.067   4.395 -0.0067 -0.2936  0.9202
17309SOL    HW253369   2.398   5.050   4.452 -0.4093  1.8859  0.6822
17310SOL     OW53370   7.943   5.818   7.675  0.0808  0.7619 -0.3393
17310SOL    HW153371   7.865   5.791   7.626 -1.0635  2.6280  0.3396
17310SOL    HW253372   7.958   5.747   7.737 -0.1042 -0.3636 -1.5385
17311SOL     OW53373   2.142   6.517   2.377 -0.3706  0.1673  0.0143
17311SOL    HW153374   2.153   6.581   2.306 -2.4057 -0.4838 -0.9737
17311SOL    HW253375   2.192   6.441   2.348  0.1918  0.4961  0.1033
17312SOL     OW53376   7.357   3.489  11.907  0.1689  0.2366  0.7138
17312SOL    HW153377   7.285   3.546  11.932  1.1930  1.5022  0.8995
17312SOL    HW253378   7.436   3.535  11.937  1.2360  0.1261 -1.6836
17313SOL     OW53379   4.515   1.572   1.019  0.3202 -0.0237  0.1565
17313SOL    HW153380   4.419   1.571   1.022  0.3429 -1.2766  2.2807
17313SOL    HW253381   4.535   1.592   0.927 -1.9438  0.9194 -0.2162
17314SOL     OW53382   2.716   4.715  11.870 -0.7401 -0.7368 -0.4057
17314SOL    HW153383   2.788   4.669  11.826 -0.0564 -0.0905  0.0215
17314SOL    HW253384   2.694   4.787  11.811 -2.3000 -1.9770 -1.4298
17315SOL     OW53385   2.973   2.570  11.570  0.3648  0.4811 -0.0391
17315SOL    HW153386   2.878   2.576  11.578  0.2909 -0.9350  0.4962
17315SOL    HW253387   3.005   2.653  11.606 -0.6256  0.4586  0.9794
17316SOL     OW53388   0.962   0.765   5.969  0.4070 -0.1154  0.5408
17316SOL    HW153389   1.050   0.761   5.932  0.2732  0.7316  0.1141
17316SOL    HW253390   0.947   0.676   6.003  0.8639 -0.6832 -0.6649
17317SOL     OW53391   0.489   0.316   2.389  0.0175 -0.8483 -0.0704
17317SOL    HW153392   0.555   0.247   2.392  2.6491  1.4458  3.6283
17317SOL    HW253393   0.523   0.380   2.326  0.0699 -0.7653  0.0416
17318SOL     OW53394   4.330   1.477   6.058 -0.2257 -0.0647 -0.5223
17318SOL    HW153395   4.420   1.452   6.035 -0.2411 -0.6430  0.0064
17318SOL    HW253396   4.301   1.408   6.118 -1.2415 -0.2163 -1.1623
17319SOL     OW53397   0.889   4.030   2.601 -0.4069 -0.3074 -0.1181
17319SOL    HW153398   0.853   3.955   2.553  1.3592 -1.3787  0.1607
17319SOL    HW253399   0.946   3.992   2.668 -0.0555  1.2646  0.5303
17320SOL     OW53400   5.962   7.083   5.610 -0.6223 -0.0763 -1.1353
17320SOL    HW153401   6.033   7.020   5.623  0.2105  0.9629 -0.3773
17320SOL    HW253402   6.005   7.168   5.618 -2.1631  0.5898  0.6829
17321SOL     OW53403   7.973   2.628   3.581 -0.3108 -0.2121  0.6700
17321SOL    HW153404   7.897   2.655   3.633 -0.3016 -0.2213  0.6884
17321SOL    HW253405   7.993   2.539   3.612  1.2286  0.6750  2.4151
17322SOL     OW53406   4.213   1.067   1.478  0.5680 -0.4450 -0.6173
17322SOL    HW153407   4.147   1.133   1.455  0.2639 -0.6304 -0.2770
17322SOL    HW253408   4.253   1.100   1.559 -1.0199 -1.6834  0.7397
17323SOL     OW53409   3.449   6.007   9.232  0.5818 -0.6276  0.3152
17323SOL    HW153410   3.505   5.954   9.288  1.3196  0.6059  0.7810
17323SOL    HW253411   3.391   6.053   9.293  0.2661 -0.5326 -0.0509
17324SOL     OW53412   7.966   2.802   7.310 -0.3093 -0.4385 -0.5904
17324SOL    HW153413   8.043   2.801   7.253  1.0096 -1.4695  1.1278
17324SOL    HW253414   7.955   2.893   7.335  1.9439 -0.5756  1.1511
17325SOL     OW53415   7.533   2.398   9.966 -0.5317 -0.2569 -0.3684
17325SOL    HW153416   7.501   2.399  10.056  0.1880  2.3985 -0.0605
17325SOL    HW253417   7.597   2.327   9.964 -0.4923 -0.2988  1.2361
17326SOL     OW53418   6.460   7.169   5.714  0.4882 -0.0531 -0.2207
17326SOL    HW153419   6.450   7.141   5.623  0.0752  0.3666 -0.3066
17326SOL    HW253420   6.528   7.237   5.711  1.9344 -1.4143  0.0701
17327SOL     OW53421   3.455   4.469  11.863  0.2491  0.0093  0.4828
17327SOL    HW153422   3.388   4.415  11.903  0.9310  0.4611  2.3465
17327SOL    HW253423   3.537   4.439  11.902  0.7338  1.7392  0.9307
17328SOL     OW53424   4.691   5.866   6.717  0.5482  0.6232 -0.6133
17328SOL    HW153425   4.604   5.869   6.679  0.0381 -1.7947  0.1637
17328SOL    HW253426   4.733   5.947   6.688 -1.3141  0.9987 -2.5086
17329SOL     OW53427   3.626   0.743   4.969  0.6381  0.0882 -1.1232
17329SOL    HW153428   3.599   0.683   4.899  1.3043  0.0501 -1.3540
17329SOL    HW253429   3.597   0.829   4.939  1.5219  0.1727 -1.7850
17330SOL     OW53430   0.537   4.351   6.773 -0.1095 -0.0706 -0.0737
17330SOL    HW153431   0.447   4.319   6.781 -0.2236  0.1437 -0.4896
17330SOL    HW253432   0.533   4.442   6.799  0.2649 -0.4474  1.3652
17331SOL     OW53433   7.076   2.779   2.168 -0.1687  0.2400  0.0054
17331SOL    HW153434   7.156   2.768   2.116  0.0423 -0.7638  0.5234
17331SOL    HW253435   7.026   2.845   2.121  0.1570 -0.4147 -1.3101
17332SOL     OW53436   7.496   4.304   4.499 -0.3475 -0.0810 -0.3100
17332SOL    HW153437   7.534   4.308   4.587 -1.3475 -0.7813  0.1789
17332SOL    HW253438   7.402   4.298   4.514 -0.6352  1.1033 -1.4722
17333SOL     OW53439   5.588   3.654   5.962  0.7585  0.5305 -0.1336
17333SOL    HW153440   5.641   3.592   6.011  0.5704  0.2829 -0.2387
17333SOL    HW253441   5.519   3.681   6.023 -0.0143 -0.4658 -0.5214
17334SOL     OW53442   7.257   1.499  10.352 -0.1858 -0.0603 -0.0065
17334SOL    HW153443   7.254   1.473  10.444  1.8606 -0.6959 -0.0830
17334SOL    HW253444   7.284   1.419  10.305 -1.9500  0.0277 -1.2929
17335SOL     OW53445   3.683   4.286   3.460 -0.5242 -0.3577  0.0294
17335SOL    HW153446   3.599   4.241   3.451  0.4166 -2.1004 -0.7266
17335SOL    HW253447   3.742   4.237   3.402  1.1419  0.4292  0.9839
17336SOL     OW53448   0.723   3.561   4.292  0.1558  0.4851  0.1046
17336SOL    HW153449   0.812   3.558   4.257 -0.2272 -0.8673 -0.8581
17336SOL    HW253450   0.700   3.469   4.307 -1.2510  0.7634 -0.1391
17337SOL     OW53451   3.778   7.618   3.687  0.4860  0.1451 -0.0253
17337SOL    HW153452   3.727   7.572   3.754 -3.4458  1.2140 -1.9910
17337SOL    HW253453   3.755   7.574   3.605  2.0842  1.3284 -1.1673
17338SOL     OW53454   2.186   4.884   3.374  0.6859 -0.1099 -0.8242
17338SOL    HW153455   2.180   4.978   3.360  1.3565  0.3756  1.6685
17338SOL    HW253456   2.278   4.869   3.396  0.2599 -1.0802  0.3748
17339SOL     OW53457   2.521   0.075  12.025  0.1497  0.4647  0.1359
17339SOL    HW153458   2.571   0.054  12.103 -1.5485  0.3587  1.2455
17339SOL    HW253459   2.476  -0.007  12.002  1.1456  0.3041 -1.3775
17340SOL     OW53460   0.439   7.617   9.794  0.3843 -0.1590  1.3515
17340SOL    HW153461   0.394   7.608   9.878  0.2597 -0.4113  1.2601
17340SOL    HW253462   0.476   7.705   9.796 -2.4604  1.2059  0.2934
17341SOL     OW53463   7.479   0.250   4.969  0.0711 -0.1152  0.5578
17341SOL    HW153464   7.479   0.160   4.937  0.9207  0.0422  0.0895
17341SOL    HW253465   7.444   0.301   4.896  2.5090  0.3143 -0.4094
17342SOL     OW53466   3.789   6.968   7.405  0.1172 -0.5593  0.5393
17342SOL    HW153467   3.861   6.944   7.347 -0.1140 -1.4247  0.5918
17342SOL    HW253468   3.714   6.920   7.370  0.4844 -3.1160  2.9673
17343SOL     OW53469   6.674   5.855  12.343  0.1865 -0.2590 -0.3305
17343SOL    HW153470   6.753   5.806  12.318  0.2863 -0.4340  0.3094
17343SOL    HW253471   6.602   5.799  12.313  0.2931  0.0738 -1.2489
17344SOL     OW53472   5.150   0.773   1.486  0.5778  0.0875 -0.3234
17344SOL    HW153473   5.153   0.678   1.493 -2.0366 -0.0959 -0.6450
17344SOL    HW253474   5.064   0.797   1.522  1.3630  2.3850  0.2004
17345SOL     OW53475   3.006   4.178  10.023 -0.3844 -0.6777  0.1537
17345SOL    HW153476   2.930   4.163   9.966  0.4207 -1.2617 -0.8091
17345SOL    HW253477   3.079   4.137   9.976  0.5186 -0.1761  1.0854
17346SOL     OW53478   5.105   0.814   8.974 -0.8436  0.2456  0.0498
17346SOL    HW153479   5.020   0.794   9.014 -0.7596 -1.0754 -0.3842
17346SOL    HW253480   5.083   0.843   8.885 -0.8284 -0.6568 -0.2598
17347SOL     OW53481   4.322   7.008   1.090  0.0265  0.0129  0.1231
17347SOL    HW153482   4.306   6.993   1.183 -0.0871 -1.2666 -0.0841
17347SOL    HW253483   4.235   7.029   1.055  0.0803  0.5634  0.3085
17348SOL     OW53484   6.353   2.895   2.758 -0.1442  0.4721 -0.0974
17348SOL    HW153485   6.294   2.900   2.833 -2.3353 -0.5572 -1.6333
17348SOL    HW253486   6.323   2.964   2.699 -0.8156 -0.9772 -1.5209
17349SOL     OW53487   6.240   5.544   0.535  0.4692  1.1171  0.0328
17349SOL    HW153488   6.148   5.569   0.539  0.8585  2.5180  1.1062
17349SOL    HW253489   6.246   5.487   0.458 -1.3317  0.7544  0.1147
17350SOL     OW53490   1.651   4.898   4.335 -0.3208 -0.4921  0.1974
17350SOL    HW153491   1.668   4.935   4.248 -0.4785 -0.3568  0.2241
17350SOL    HW253492   1.633   4.806   4.318 -2.3983 -0.0710 -0.1572
17351SOL     OW53493   7.898   4.229   6.113  1.0442  0.3103 -0.1274
17351SOL    HW153494   7.927   4.197   6.027 -2.6341  0.2882 -1.5293
17351SOL    HW253495   7.883   4.322   6.100  1.1543  0.4562  0.7447
17352SOL     OW53496   3.733   5.291   9.348 -0.5491 -0.6069 -0.8778
17352SOL    HW153497   3.823   5.269   9.373 -0.6579 -0.8356 -0.6791
17352SOL    HW253498   3.716   5.235   9.272 -0.1531  0.2271 -1.5929
17353SOL     OW53499   1.068   2.706  11.960 -0.2030  0.2715 -0.8538
17353SOL    HW153500   1.071   2.782  12.019  1.9319  0.1211 -0.6586
17353SOL    HW253501   1.080   2.744  11.873  1.1445  0.1861 -0.7311
17354SOL     OW53502   1.545   0.769   2.291  0.4590  0.0309 -0.2546
17354SOL    HW153503   1.528   0.678   2.265 -0.1002 -0.1675  0.7707
17354SOL    HW253504   1.585   0.809   2.213  2.1453 -1.4854 -0.2248
17355SOL     OW53505   0.180   3.743   3.817 -0.6033  0.9170 -0.2561
17355SOL    HW153506   0.207   3.814   3.875 -1.1455  0.0723  1.0745
17355SOL    HW253507   0.261   3.709   3.780  0.0228 -0.1884  2.0106
17356SOL     OW53508   5.505   6.821   0.737  0.7776 -0.1967  0.2021
17356SOL    HW153509   5.578   6.881   0.721  0.5291  0.3750  1.1389
17356SOL    HW253510   5.480   6.837   0.828  0.0690 -1.0325  0.1677
17357SOL     OW53511   3.283   4.865   7.897 -0.1713 -0.1792 -0.0159
17357SOL    HW153512   3.191   4.844   7.887 -0.1461 -0.1078 -0.3879
17357SOL    HW253513   3.322   4.850   7.811  0.4484 -1.5765  0.4844
17358SOL     OW53514   6.981   2.563   7.941 -0.0201  0.4627 -0.0336
17358SOL    HW153515   6.966   2.542   8.033 -0.0075  2.9543  0.6168
17358SOL    HW253516   6.920   2.635   7.924 -0.9400 -0.7701 -2.3783
17359SOL     OW53517   4.002   4.757   9.643  0.4307  0.1192 -0.1389
17359SOL    HW153518   3.914   4.779   9.612 -0.1040 -0.2609  1.0093
17359SOL    HW253519   4.028   4.682   9.590 -0.4122 -0.4606  0.2342
17360SOL     OW53520   3.837   1.774  10.826 -0.0490  0.4004  0.0546
17360SOL    HW153521   3.765   1.827  10.792 -0.8980 -1.1749 -0.6958
17360SOL    HW253522   3.910   1.835  10.836 -1.2225  1.8467 -0.0130
17361SOL     OW53523   0.723   7.789   1.369  0.2534 -0.5512 -0.3935
17361SOL    HW153524   0.647   7.759   1.320  2.0986 -3.0895 -1.9515
17361SOL    HW253525   0.687   7.823   1.451 -2.5655 -0.8944 -1.3810
17362SOL     OW53526   6.322   2.804   9.059 -0.1308  0.2140 -0.1769
17362SOL    HW153527   6.414   2.779   9.049 -0.2867 -1.1799  1.3709
17362SOL    HW253528   6.319   2.896   9.031  1.6341  0.1675 -0.6669
17363SOL     OW53529   6.322   2.610   0.638 -0.2358  0.3865 -0.6143
17363SOL    HW153530   6.371   2.691   0.647 -1.0810  0.9016 -0.6001
17363SOL    HW253531   6.268   2.622   0.559 -0.8216  0.0845 -0.2669
17364SOL     OW53532   2.829   6.467   5.010  0.3042 -0.0992  0.4153
17364SOL    HW153533   2.920   6.497   5.004  0.4981 -0.8660 -0.8053
17364SOL    HW253534   2.799   6.466   4.919 -1.3805  1.4734  0.9013
17365SOL     OW53535   4.326   3.459  10.474  0.6422  0.1620  0.2411
17365SOL    HW153536   4.397   3.438  10.413  0.0624 -0.9516 -0.0778
17365SOL    HW253537   4.273   3.380  10.477 -0.8757  1.1332  0.0782
17366SOL     OW53538   4.776   0.363   0.296  0.5543  0.3188 -0.2204
17366SOL    HW153539   4.746   0.450   0.270  0.4798  0.1070 -0.8682
17366SOL    HW253540   4.871   0.365   0.279  0.5019  0.1719 -0.5440
17367SOL     OW53541   5.348   6.128   4.201 -0.0858 -0.2728  0.6875
17367SOL    HW153542   5.334   6.194   4.269 -0.9636  0.5731 -0.2670
17367SOL    HW253543   5.376   6.179   4.125  2.0966 -1.3173  0.7169
17368SOL     OW53544   3.185   0.310   1.989 -0.2918 -0.4826 -0.1814
17368SOL    HW153545   3.225   0.293   2.074  0.9311  0.9418 -0.4396
17368SOL    HW253546   3.259   0.317   1.929 -1.1593 -2.4371 -1.5912
17369SOL     OW53547   1.153   2.904   0.023  0.0089  0.7713  0.0483
17369SOL    HW153548   1.093   2.871   0.089 -0.1003 -0.7400 -0.7668
17369SOL    HW253549   1.194   2.981   0.063 -1.0977  0.7257  1.3074
17370SOL     OW53550   7.938   5.532   5.707 -0.2908  0.3907  0.0545
17370SOL    HW153551   7.851   5.492   5.701 -0.1457  0.1811 -0.7069
17370SOL    HW253552   7.958   5.561   5.618  2.0302 -2.9769 -0.7228
17371SOL     OW53553   2.340   2.664   1.492  0.3227  0.1232  0.0321
17371SOL    HW153554   2.254   2.637   1.525  0.1422  0.3633 -0.2321
17371SOL    HW253555   2.349   2.618   1.409  0.7602 -0.4522  0.3927
17372SOL     OW53556   5.483   7.567   2.369  0.3250  0.7202  0.2787
17372SOL    HW153557   5.546   7.606   2.309  0.4202  1.0598  0.5947
17372SOL    HW253558   5.414   7.633   2.378 -0.0167  0.4033  0.0306
17373SOL     OW53559   6.500   7.743   6.133  0.3066  0.0333 -0.4144
17373SOL    HW153560   6.409   7.741   6.161  1.1069 -1.1271  2.4407
17373SOL    HW253561   6.527   7.834   6.144  0.8332 -0.4514  4.0475
17374SOL     OW53562   4.588   7.525  10.381  0.7086  0.0979 -0.3084
17374SOL    HW153563   4.661   7.544  10.440 -0.7427  0.0716  1.6162
17374SOL    HW253564   4.512   7.565  10.423 -0.6861 -1.3421 -1.3170
17375SOL     OW53565   5.145   6.343   7.090 -0.0280 -0.2355 -0.3763
17375SOL    HW153566   5.143   6.251   7.063 -1.2457 -0.2939 -0.1536
17375SOL    HW253567   5.093   6.388   7.023  0.3615  0.2564 -0.3517
17376SOL     OW53568   2.932   0.642  11.170  0.7818 -0.2078 -0.4739
17376SOL    HW153569   2.871   0.696  11.219  0.7355  0.9648 -1.7455
17376SOL    HW253570   2.878   0.571  11.134  0.2408  0.5514 -1.1977
17377SOL     OW53571   3.393   6.109   8.091  0.0925 -0.4627 -0.0891
17377SOL    HW153572   3.407   6.019   8.061  1.3701  0.4000 -2.2750
17377SOL    HW253573   3.475   6.154   8.070 -0.4372  1.1925  1.1741
17378SOL     OW53574   7.038   5.303   9.211 -0.5454 -1.3926  0.4515
17378SOL    HW153575   7.046   5.393   9.180  0.4611 -1.4988  0.3862
17378SOL    HW253576   7.065   5.306   9.302 -0.7423 -1.5874  0.5174
17379SOL     OW53577   6.715   1.631   7.135 -0.1918 -0.6638 -0.3118
17379SOL    HW153578   6.645   1.662   7.077 -0.5162 -0.6120  0.0985
17379SOL    HW253579   6.773   1.707   7.144 -0.2838 -0.5863 -0.3617
17380SOL     OW53580   6.143   2.479   9.606 -0.4831 -0.6302  0.2579
17380SOL    HW153581   6.052   2.491   9.577 -1.1194 -2.3150  1.3733
17380SOL    HW253582   6.167   2.392   9.573  0.7492 -0.1827 -0.0463
17381SOL     OW53583   2.361   1.538   2.288  0.3175  0.4489  0.2834
17381SOL    HW153584   2.395   1.584   2.365  0.9760  0.4481 -0.0025
17381SOL    HW253585   2.419   1.462   2.278 -0.3862 -0.1154  0.3907
17382SOL     OW53586   2.684   3.227   6.039  0.2310  0.3071  0.2106
17382SOL    HW153587   2.628   3.233   6.117  0.1588  1.7393  0.0758
17382SOL    HW253588   2.771   3.252   6.069  0.6675 -1.1383  0.2425
17383SOL     OW53589   2.373   7.320   2.641  0.1307  0.2195 -0.3940
17383SOL    HW153590   2.302   7.257   2.655 -1.7976  2.1390 -0.8693
17383SOL    HW253591   2.423   7.318   2.723 -0.9872 -0.6047  0.2998
17384SOL     OW53592   6.392   7.036  12.332 -0.1553  0.1446 -0.0585
17384SOL    HW153593   6.381   6.993  12.248  0.7312  0.7079 -0.4794
17384SOL    HW253594   6.362   7.126  12.317 -0.1934  0.1926  0.2883
17385SOL     OW53595   7.254   7.331   6.089  0.2813 -0.0559  0.0173
17385SOL    HW153596   7.296   7.375   6.015  3.0937 -0.0345  1.5107
17385SOL    HW253597   7.176   7.383   6.106  2.1377  2.9259  0.0984
17386SOL     OW53598   7.502   5.223   9.889  0.0499  0.1470  0.3899
17386SOL    HW153599   7.462   5.162   9.828  0.8436 -0.9683  0.9585
17386SOL    HW253600   7.551   5.284   9.834  2.2011 -1.8729 -0.0954
17387SOL     OW53601   5.742   1.243   5.661  0.6235 -0.6153  0.2892
17387SOL    HW153602   5.774   1.222   5.574 -2.5452 -1.7077 -0.7761
17387SOL    HW253603   5.666   1.299   5.646 -1.8577 -3.1896  1.9905
17388SOL     OW53604   1.373   1.528   8.003  0.0124  0.2069  0.0659
17388SOL    HW153605   1.342   1.488   8.084  0.7323  0.0226  0.2610
17388SOL    HW253606   1.438   1.466   7.969  0.9510  1.0574  0.2362
17389SOL     OW53607   7.392   4.084  10.066 -0.1169 -0.2005  0.7607
17389SOL    HW153608   7.307   4.119  10.090 -0.5634 -1.0075  0.3911
17389SOL    HW253609   7.393   4.088   9.970 -0.3786 -1.6366  0.6858
17390SOL     OW53610   3.066   0.876   1.731 -0.2087  0.7056 -0.5957
17390SOL    HW153611   3.041   0.966   1.711 -1.1623  0.9767  1.5309
17390SOL    HW253612   2.985   0.825   1.719 -0.6562  0.7837  1.6883
17391SOL     OW53613   5.925   7.428   9.960  0.3714 -0.4318  0.0898
17391SOL    HW153614   5.862   7.437  10.032  0.9504 -2.6889  0.9649
17391SOL    HW253615   5.926   7.514   9.919 -5.7025 -0.8967 -2.0552
17392SOL     OW53616   2.119   1.622   5.706 -0.4206  1.1102  0.3577
17392SOL    HW153617   2.116   1.718   5.705  0.6763  1.1715  1.0217
17392SOL    HW253618   2.208   1.600   5.680 -0.6041  0.2776  0.4051
17393SOL     OW53619   5.048   5.322  12.017 -0.5649 -0.4047  0.2499
17393SOL    HW153620   5.100   5.402  12.006  0.2285 -0.9797 -0.3148
17393SOL    HW253621   5.097   5.270  12.080 -1.3058 -0.2778  0.9507
17394SOL     OW53622   5.349   2.143   1.528 -0.0407 -0.7126  1.0426
17394SOL    HW153623   5.262   2.123   1.564  0.1891 -1.1225  1.3701
17394SOL    HW253624   5.387   2.203   1.592 -0.2771 -0.1260  0.6418
17395SOL     OW53625   2.948   3.198   6.214  0.1186 -0.1261  0.1110
17395SOL    HW153626   2.930   3.106   6.197  1.3176 -0.6840  1.6474
17395SOL    HW253627   3.019   3.197   6.278  1.7438  1.8892 -1.5282
17396SOL     OW53628   0.760   0.224  12.285 -0.0182  0.2049  0.0729
17396SOL    HW153629   0.739   0.280  12.210  0.4716 -0.1356 -0.3278
17396SOL    HW253630   0.855   0.210  12.278  0.0253  0.1522  0.7436
17397SOL     OW53631   4.234   5.640   3.384  0.1358  0.0483  0.4302
17397SOL    HW153632   4.187   5.710   3.429  0.2113  1.0426 -0.9485
17397SOL    HW253633   4.313   5.626   3.436 -0.6628 -0.1815  1.6180
17398SOL     OW53634   7.434   5.457   6.497  0.2071  0.6487 -0.9094
17398SOL    HW153635   7.485   5.444   6.417 -0.1934  0.1184 -1.0817
17398SOL    HW253636   7.492   5.508   6.554  1.0521 -0.2148 -0.9771
17399SOL     OW53637   1.525   7.075   1.101 -0.5021 -0.5045  0.3256
17399SOL    HW153638   1.616   7.066   1.127 -0.3226 -2.1228 -0.7456
17399SOL    HW253639   1.505   6.995   1.053 -1.9877  0.5443 -0.9324
17400SOL     OW53640   7.130   2.439  11.268  0.1002  0.1567 -0.1692
17400SOL    HW153641   7.121   2.381  11.344  2.0497 -1.1308 -0.8354
17400SOL    HW253642   7.158   2.523  11.305 -0.4553  0.0008  0.6428
17401SOL     OW53643   5.875   2.616  12.156 -0.2058 -0.3827  0.4616
17401SOL    HW153644   5.954   2.564  12.143 -0.0225 -0.2225  0.9029
17401SOL    HW253645   5.895   2.700  12.114 -0.2695 -0.4563  0.2830
17402SOL     OW53646   0.274   2.378  10.474 -0.7692  0.1589 -0.2507
17402SOL    HW153647   0.244   2.350  10.388  0.0598  0.7393 -0.7432
17402SOL    HW253648   0.219   2.455  10.494 -0.2490  0.6723 -0.7487
17403SOL     OW53649   2.553   2.676   0.430 -0.0230 -0.2819  0.3187
17403SOL    HW153650   2.571   2.639   0.516  0.7161 -1.3312 -0.2603
17403SOL    HW253651   2.624   2.740   0.415  0.3035 -0.6743  0.1705
17404SOL     OW53652   4.304   2.281   5.129 -0.3512  0.0501  0.3130
17404SOL    HW153653   4.388   2.322   5.150 -0.4167 -0.5675  1.8955
17404SOL    HW253654   4.249   2.300   5.204 -0.9465 -1.4039  0.2685
17405SOL     OW53655   1.734   1.407  10.508 -0.5696 -0.0961 -0.4274
17405SOL    HW153656   1.710   1.495  10.476 -0.6063 -0.3227 -1.0369
17405SOL    HW253657   1.746   1.419  10.602 -0.8533  0.5073 -0.4568
17406SOL     OW53658   2.486   3.313   5.853 -0.0311 -0.0558 -0.6396
17406SOL    HW153659   2.539   3.389   5.827  1.4654 -1.3458 -1.5163
17406SOL    HW253660   2.542   3.265   5.914 -0.7874 -0.6698 -0.4265
17407SOL     OW53661   5.106   7.362   2.215 -0.0865 -0.3597 -0.2346
17407SOL    HW153662   5.080   7.454   2.219  0.3441 -0.1298 -2.0191
17407SOL    HW253663   5.155   7.347   2.297 -2.3679  0.2346  1.3294
17408SOL     OW53664   7.202   6.002   9.320 -0.6437  0.3314 -0.1151
17408SOL    HW153665   7.140   6.015   9.248 -1.9051  1.5747  1.1220
17408SOL    HW253666   7.195   5.909   9.342 -1.1564  0.2058 -0.7883
17409SOL     OW53667   0.884   2.508  11.578 -0.1828  0.5547 -0.5404
17409SOL    HW153668   0.967   2.543  11.544  0.6728  0.3035  1.2185
17409SOL    HW253669   0.848   2.460  11.504  1.5541  0.1339 -1.1775
17410SOL     OW53670   0.165   0.637   2.918  0.4355  0.5844  0.1184
17410SOL    HW153671   0.167   0.577   2.843  0.5247  0.8354 -0.0832
17410SOL    HW253672   0.124   0.716   2.883  0.1613  0.5790  0.4286
17411SOL     OW53673   5.459   1.719   5.918  0.6151 -0.1530 -0.2630
17411SOL    HW153674   5.532   1.714   5.857  0.9915 -0.1416  0.1891
17411SOL    HW253675   5.414   1.635   5.910  0.3496  0.0488 -0.9470
17412SOL     OW53676   0.124   4.534   2.663  0.4646 -0.3799  0.0097
17412SOL    HW153677   0.055   4.467   2.658 -0.2572  0.2668  0.9798
17412SOL    HW253678   0.134   4.551   2.757  1.0266  0.4706 -0.1942
17413SOL     OW53679   4.562   4.583   9.991 -0.8374 -0.1375  0.0837
17413SOL    HW153680   4.638   4.571   9.935 -1.6529  1.6884 -1.5112
17413SOL    HW253681   4.592   4.644  10.059 -0.8444  0.4726 -0.4621
17414SOL     OW53682   3.637   6.194   6.357 -0.0020  0.2985  0.2500
17414SOL    HW153683   3.715   6.249   6.355  0.0111  0.3415  1.2978
17414SOL    HW253684   3.671   6.104   6.360 -0.0248  0.1904 -1.7661
17415SOL     OW53685   4.704   1.769   9.321  0.6212  0.2202  0.1442
17415SOL    HW153686   4.623   1.781   9.272  0.8873 -0.8000 -0.5733
17415SOL    HW253687   4.715   1.674   9.328  1.6317  0.3410  0.4374
17416SOL     OW53688   2.263   1.446   4.430  0.1399  0.2162 -0.5673
17416SOL    HW153689   2.285   1.355   4.445 -0.3712  0.2221  0.2823
17416SOL    HW253690   2.312   1.494   4.496 -2.3215  0.2266  1.3932
17417SOL     OW53691   6.470   2.035   6.184 -0.5261 -0.4624  0.0591
17417SOL    HW153692   6.468   1.939   6.188  0.1598 -0.4741  0.4028
17417SOL    HW253693   6.388   2.063   6.224 -2.0424 -0.9388 -2.5432
17418SOL     OW53694   4.440   6.196   6.660  0.0576  0.6309  0.1077
17418SOL    HW153695   4.503   6.203   6.589  0.2217 -0.8032  0.0907
17418SOL    HW253696   4.369   6.143   6.624 -0.4531  0.9504  0.6208
17419SOL     OW53697   0.028   4.421   0.296 -0.2814  0.0246  0.5812
17419SOL    HW153698   0.045   4.376   0.378 -0.8781 -2.1004 -0.3955
17419SOL    HW253699   0.114   4.455   0.269  0.3649 -1.2277  0.9843
17420SOL     OW53700   6.591   2.166   7.195 -0.1658 -0.2254  0.0083
17420SOL    HW153701   6.562   2.111   7.267  1.9100 -0.5329  0.6972
17420SOL    HW253702   6.648   2.231   7.237  1.5168 -0.7285 -1.3721
17421SOL     OW53703   0.919   6.442   1.056  0.2063 -0.3633 -0.3799
17421SOL    HW153704   0.997   6.388   1.045  1.2595  1.2929 -1.3717
17421SOL    HW253705   0.902   6.478   0.969 -0.5888  0.7426  0.2083
17422SOL     OW53706   4.714   0.304   9.029  0.2958 -0.2519 -0.0189
17422SOL    HW153707   4.725   0.349   8.945 -1.1460 -2.9798 -1.8173
17422SOL    HW253708   4.651   0.234   9.010 -0.9788 -0.2848  3.6391
17423SOL     OW53709   2.225   6.729   2.859  0.1992  0.1897  0.1892
17423SOL    HW153710   2.178   6.808   2.885 -2.6868 -1.2183 -0.3741
17423SOL    HW253711   2.179   6.698   2.781  2.7507 -0.8110 -1.0404
17424SOL     OW53712   0.426   0.557   1.104  0.2329  0.2960  0.4144
17424SOL    HW153713   0.396   0.619   1.170  0.3354  1.2332 -0.3970
17424SOL    HW253714   0.517   0.580   1.088 -0.0412  0.6630 -0.6893
17425SOL     OW53715   3.320   5.674   5.339 -0.0287 -0.3812 -0.0950
17425SOL    HW153716   3.264   5.747   5.315 -1.1366 -0.8226  1.0495
17425SOL    HW253717   3.259   5.607   5.370  1.1012 -1.0954  0.6269
17426SOL     OW53718   6.504   5.391   5.699 -0.1027  0.1145 -0.1754
17426SOL    HW153719   6.503   5.487   5.693  0.5787  0.1940  0.7038
17426SOL    HW253720   6.536   5.362   5.614  1.1282  0.7529  0.0404
17427SOL     OW53721   3.907   1.517   6.356  0.0921 -0.1507 -0.4406
17427SOL    HW153722   3.985   1.569   6.375  0.8277 -0.8552 -1.4331
17427SOL    HW253723   3.854   1.573   6.300 -0.3764  0.5229  0.6366
17428SOL     OW53724   3.455   2.711   0.962  0.3070  0.2992  0.0849
17428SOL    HW153725   3.474   2.763   1.040 -2.7639  1.8990 -0.0636
17428SOL    HW253726   3.522   2.736   0.899  1.5527  0.6275  1.4898
17429SOL     OW53727   0.575   4.606  10.726  0.2290  0.0952  0.5159
17429SOL    HW153728   0.667   4.604  10.751  0.4767  2.0503 -0.0980
17429SOL    HW253729   0.531   4.643  10.803  0.3261  1.4694 -0.0568
17430SOL     OW53730   1.051   2.155   6.019 -0.3234 -0.0337  0.2493
17430SOL    HW153731   1.119   2.169   6.085  0.5783  1.6498 -0.9440
17430SOL    HW253732   1.057   2.062   5.997  2.0636  0.1737 -0.2609
17431SOL     OW53733   7.909   7.041  11.480  0.0453  0.1128  0.1440
17431SOL    HW153734   7.823   7.061  11.441  0.6229  1.0703 -0.6988
17431SOL    HW253735   7.969   7.103  11.438  0.6993  1.3087  2.6683
17432SOL     OW53736   6.946   7.590   0.515 -0.6262 -0.3567  0.3274
17432SOL    HW153737   7.035   7.571   0.545 -0.3167  0.6968  0.1207
17432SOL    HW253738   6.928   7.678   0.548 -0.1009  1.0679 -2.8209
17433SOL     OW53739   7.130   7.648  11.305  0.0364 -0.1627  0.4713
17433SOL    HW153740   7.207   7.678  11.353 -1.7202  1.9259  2.2721
17433SOL    HW253741   7.112   7.561  11.341  0.6795 -0.0327  1.1325
17434SOL     OW53742   3.281   0.317   8.971  0.0148 -0.2075  0.0240
17434SOL    HW153743   3.248   0.327   8.882 -0.9579 -0.0180  0.3867
17434SOL    HW253744   3.228   0.247   9.009  1.9361 -1.8670 -0.2263
17435SOL     OW53745   6.303   0.116   3.148 -0.4903 -0.2273 -0.3151
17435SOL    HW153746   6.365   0.179   3.110 -1.2596  0.7442  0.0034
17435SOL    HW253747   6.330   0.032   3.112 -0.0168  0.4060 -1.5060
17436SOL     OW53748   6.516   3.053   3.837 -0.3618  0.3087 -0.2232
17436SOL    HW153749   6.498   2.962   3.815 -2.4820  0.3550  0.9746
17436SOL    HW253750   6.494   3.102   3.758  0.1213 -0.1525 -0.6502
17437SOL     OW53751   5.876   5.465   9.208  0.1757 -0.0783 -0.0987
17437SOL    HW153752   5.937   5.509   9.149  1.0153  1.3694  1.7361
17437SOL    HW253753   5.920   5.383   9.230  1.5083  0.9090  1.1249
17438SOL     OW53754   6.970   4.513   8.162  0.3516  0.0607  0.1337
17438SOL    HW153755   7.036   4.478   8.102 -0.5215 -1.1062 -0.1708
17438SOL    HW253756   6.891   4.462   8.143  0.0857 -0.4488  2.3576
17439SOL     OW53757   0.081   3.083   4.432 -0.7064  0.1438  0.1464
17439SOL    HW153758   0.049   3.161   4.477 -2.1319 -0.1981 -0.1961
17439SOL    HW253759   0.175   3.082   4.448 -0.9094  1.0254  1.5335
17440SOL     OW53760   1.213   2.759   9.689  0.6177 -0.2174  0.2728
17440SOL    HW153761   1.254   2.701   9.625  0.9915  0.7995 -0.4326
17440SOL    HW253762   1.120   2.738   9.685  0.3730  0.9552 -1.8541
17441SOL     OW53763   1.070   2.815   3.579 -0.1012  0.0916 -0.2061
17441SOL    HW153764   1.047   2.886   3.519  0.4199  0.7847  0.4114
17441SOL    HW253765   1.031   2.839   3.662  0.7616  0.0647  0.2198
17442SOL     OW53766   1.797   4.578   2.000  0.0175  0.9157 -0.1141
17442SOL    HW153767   1.761   4.490   1.986 -1.9027  1.7523 -0.7087
17442SOL    HW253768   1.863   4.566   2.068 -0.6068 -0.8908  0.2297
17443SOL     OW53769   3.592   6.979   7.677  0.4161 -0.4466  0.1111
17443SOL    HW153770   3.641   7.038   7.620 -1.6026  0.1547 -1.0984
17443SOL    HW253771   3.581   6.899   7.626  0.1173 -0.5682  0.3651
17444SOL     OW53772   6.135   3.373  10.896  0.3321  0.1966 -0.7097
17444SOL    HW153773   6.136   3.321  10.816 -0.5874  0.1038 -0.6740
17444SOL    HW253774   6.108   3.460  10.868 -1.0240 -0.0894 -0.3831
17445SOL     OW53775   4.956   0.664  11.654 -0.5260  0.3810  0.1197
17445SOL    HW153776   4.862   0.648  11.664 -0.4599  0.5227  1.0107
17445SOL    HW253777   4.998   0.590  11.697 -0.2348  1.7109  2.2908
17446SOL     OW53778   0.007   3.371  12.447 -0.0586  0.2859 -0.0620
17446SOL    HW153779   0.045   3.418  12.521  3.1643  0.3731 -1.5864
17446SOL    HW253780   0.022   3.278  12.468 -1.6680  0.1369  0.5742
17447SOL     OW53781   0.293   3.969   9.692 -0.2475  0.3728  1.4528
17447SOL    HW153782   0.219   3.954   9.633  1.8103  0.5924 -1.4166
17447SOL    HW253783   0.300   4.065   9.698  0.6545  0.4103  0.3805
17448SOL     OW53784   5.646   2.231   4.438 -0.1953  0.2740  0.2171
17448SOL    HW153785   5.585   2.255   4.508 -0.3009 -1.1434  0.6361
17448SOL    HW253786   5.729   2.273   4.463 -0.2706 -0.0994  1.1292
17449SOL     OW53787   6.558   3.861   1.833  0.3267  0.6445 -0.0866
17449SOL    HW153788   6.633   3.908   1.797 -0.5895  2.7581  0.6270
17449SOL    HW253789   6.534   3.798   1.765  2.7815 -0.1770 -0.2835
17450SOL     OW53790   7.811   7.639  11.333  0.0774 -0.3122 -0.1782
17450SOL    HW153791   7.787   7.680  11.416  1.3691 -0.4488  0.2863
17450SOL    HW253792   7.774   7.696  11.266  0.0986  0.4940  0.4814
17451SOL     OW53793   0.937   6.121   0.306  0.1031  0.1245 -0.2170
17451SOL    HW153794   0.901   6.156   0.225 -0.1180  0.3502 -0.0232
17451SOL    HW253795   0.982   6.041   0.280 -0.3707 -0.0536 -0.4925
17452SOL     OW53796   7.336   4.488   7.666  0.0670 -0.2583 -0.4068
17452SOL    HW153797   7.367   4.401   7.643  0.9119  0.0041 -0.2886
17452SOL    HW253798   7.333   4.536   7.583  0.7360 -0.0511 -0.3145
17453SOL     OW53799   6.408   6.910   5.218 -0.5378  1.0221 -0.0493
17453SOL    HW153800   6.368   6.889   5.134  0.7542 -1.1283 -0.1986
17453SOL    HW253801   6.500   6.927   5.197  0.1567 -1.0421  1.0398
17454SOL     OW53802   0.548   5.228   7.138 -0.2514  0.0121  0.2095
17454SOL    HW153803   0.633   5.270   7.151 -0.1985  0.2644 -0.8484
17454SOL    HW253804   0.564   5.162   7.070 -0.7415 -0.4374  0.5289
17455SOL     OW53805   4.360   5.058   6.295  0.0006  0.3157  0.9724
17455SOL    HW153806   4.448   5.020   6.305 -0.4898 -1.1792 -0.0995
17455SOL    HW253807   4.301   4.985   6.308 -1.0355  0.9455 -0.0740
17456SOL     OW53808   5.983   2.397   0.572  0.1357 -0.1661 -0.4347
17456SOL    HW153809   6.012   2.309   0.551 -0.8793 -0.8607  0.9185
17456SOL    HW253810   5.988   2.402   0.668  0.2894  1.2815 -0.5014
17457SOL     OW53811   3.445   2.124   3.806  0.6358  0.3500  0.2864
17457SOL    HW153812   3.514   2.136   3.741  1.0150 -1.2853  0.3475
17457SOL    HW253813   3.488   2.081   3.880 -0.1211  0.7756  0.9982
17458SOL     OW53814   7.342   6.662   7.570  0.5939 -0.3000  0.4502
17458SOL    HW153815   7.259   6.698   7.538  0.1685 -1.4481  0.2124
17458SOL    HW253816   7.408   6.721   7.534 -0.0910  0.4141  0.3227
17459SOL     OW53817   7.585   4.877   2.272  0.3763 -0.3521  0.3322
17459SOL    HW153818   7.654   4.935   2.243  1.6824 -0.8464  2.2384
17459SOL    HW253819   7.629   4.812   2.327 -1.4992 -1.0343  1.1413
17460SOL     OW53820   0.408   1.065   9.038  0.3402  0.0545  0.7554
17460SOL    HW153821   0.407   1.123   9.114 -0.0681 -0.1473  0.9072
17460SOL    HW253822   0.315   1.051   9.017  0.4342 -0.6315  0.7860
17461SOL     OW53823   7.614   4.668   8.732 -0.4180 -0.2142 -0.2216
17461SOL    HW153824   7.692   4.693   8.682 -0.5330 -1.4266 -1.0510
17461SOL    HW253825   7.646   4.610   8.801 -0.5545 -0.5468 -0.4341
17462SOL     OW53826   4.423   6.661   6.584  0.8195 -0.1799  0.7875
17462SOL    HW153827   4.510   6.699   6.571  0.8396  0.9981  3.5830
17462SOL    HW253828   4.391   6.702   6.664 -1.3847 -2.2941  1.1117
17463SOL     OW53829   6.727   7.111   7.631 -0.5202  0.0599 -0.0745
17463SOL    HW153830   6.647   7.087   7.584 -1.3388 -1.6171  2.0272
17463SOL    HW253831   6.697   7.174   7.698  0.1565  0.4105 -0.0921
17464SOL     OW53832   6.432   4.280   6.357  0.2846 -0.8019 -0.0652
17464SOL    HW153833   6.505   4.254   6.413  1.2345  0.6223 -0.5640
17464SOL    HW253834   6.473   4.304   6.274 -1.0334 -2.3517 -1.2417
17465SOL     OW53835   6.305   3.988  11.623 -0.2081  0.2869  0.3739
17465SOL    HW153836   6.375   4.022  11.568  0.1369 -0.2738  0.4566
17465SOL    HW253837   6.350   3.957  11.702 -0.8190  2.4357  1.6720
17466SOL     OW53838   0.104   4.068   7.346  0.3964 -0.0516 -0.1124
17466SOL    HW153839   0.160   4.087   7.270  0.1775  1.1139 -0.0095
17466SOL    HW253840   0.139   4.124   7.416  0.5942 -1.1170  0.6512
17467SOL     OW53841   0.331   0.350  10.111 -0.3191  0.3536  0.2029
17467SOL    HW153842   0.401   0.414  10.102  1.6282 -1.7086 -0.3091
17467SOL    HW253843   0.340   0.316  10.200 -1.4020  0.8363  0.5112
17468SOL     OW53844   7.388   0.062   4.604  0.1989  0.0679 -0.3053
17468SOL    HW153845   7.297   0.087   4.622  0.2106  0.6188 -0.9492
17468SOL    HW253846   7.427   0.140   4.564  1.0316 -0.0809  0.1943
17469SOL     OW53847   7.807   5.687   0.660  0.2173 -0.2433 -0.5198
17469SOL    HW153848   7.743   5.684   0.732  1.8614  2.2822  1.2219
17469SOL    HW253849   7.754   5.710   0.583 -1.1767  0.3451  0.5623
17470SOL     OW53850   1.941   1.492  12.014 -0.6675 -0.2709  0.8241
17470SOL    HW153851   2.023   1.540  12.004 -1.7480  1.6644  0.8712
17470SOL    HW253852   1.959   1.406  11.976  1.5323 -0.0886  1.3273
17471SOL     OW53853   4.184   1.010   2.539 -0.3507  0.6580  0.4092
17471SOL    HW153854   4.231   1.087   2.507 -0.0147  0.1405 -0.3503
17471SOL    HW253855   4.227   0.936   2.497 -1.9926  0.1895 -0.5390
17472SOL     OW53856   5.914   1.081   8.399  0.1705  0.2959  0.0029
17472SOL    HW153857   5.987   1.024   8.374  0.9199  1.8962 -1.7059
17472SOL    HW253858   5.842   1.054   8.342  0.0967  0.1307  0.1750
17473SOL     OW53859   6.690   1.259   8.242 -0.0673 -0.2041 -0.1560
17473SOL    HW153860   6.739   1.332   8.204  0.2793  1.1670  2.7115
17473SOL    HW253861   6.744   1.182   8.223  0.6828  0.5718 -1.3113
17474SOL     OW53862   0.030   3.484  11.349 -0.3909  0.1548  0.3352
17474SOL    HW153863   0.031   3.523  11.436  0.9237  2.2628 -0.5459
17474SOL    HW253864  -0.056   3.507  11.313  0.0468  1.5246  0.1456
17475SOL     OW53865   1.499   5.574   6.741  0.2835  0.1209  0.2727
17475SOL    HW153866   1.440   5.602   6.671 -0.6560  0.5296  1.2002
17475SOL    HW253867   1.555   5.508   6.701  0.7358  1.3881 -1.2522
17476SOL     OW53868   7.471   5.331   3.416 -0.2017  0.5732 -0.0531
17476SOL    HW153869   7.401   5.372   3.467 -0.1140 -1.4462  1.8455
17476SOL    HW253870   7.551   5.375   3.444 -0.3159  0.4215  0.5178
17477SOL     OW53871   6.240   0.829   4.679  0.3253  0.3166  0.1262
17477SOL    HW153872   6.163   0.880   4.656 -0.2078 -0.3429  0.3995
17477SOL    HW253873   6.205   0.755   4.730  0.8038 -1.5348 -2.0912
17478SOL     OW53874   2.597   4.814   7.826  0.2238  0.4468  0.2308
17478SOL    HW153875   2.530   4.747   7.809 -0.2741  0.3449  2.3800
17478SOL    HW253876   2.659   4.772   7.886  1.0892  1.2355 -0.0826
17479SOL     OW53877   2.122   5.870   4.284  0.2385  0.2689  0.4430
17479SOL    HW153878   2.075   5.847   4.203  0.6087 -0.3721  0.4052
17479SOL    HW253879   2.210   5.836   4.271 -0.2751 -1.9536  2.0307
17480SOL     OW53880   6.520   7.469  10.049 -0.1894 -0.1140  0.4393
17480SOL    HW153881   6.428   7.496  10.050 -0.4532 -0.9637  0.8793
17480SOL    HW253882   6.537   7.440  10.139  0.5713  0.2320  0.4117
17481SOL     OW53883   1.280   1.184   4.582  0.5510 -0.3814 -0.1330
17481SOL    HW153884   1.362   1.186   4.632 -0.4227 -0.4845  1.5732
17481SOL    HW253885   1.252   1.275   4.578  1.7849 -0.0296 -2.6516
17482SOL     OW53886   5.195   3.068   9.017  0.4632  0.0773  0.4470
17482SOL    HW153887   5.154   3.059   9.103 -0.7469  0.9045 -0.0331
17482SOL    HW253888   5.265   3.132   9.031 -0.1543  0.7051  0.6658
17483SOL     OW53889   1.484   3.734   2.012  0.0775 -0.2068  0.0243
17483SOL    HW153890   1.524   3.812   2.051 -0.7639 -0.3642  1.2621
17483SOL    HW253891   1.556   3.671   2.004  0.6153  0.4408 -0.3327
17484SOL     OW53892   6.492   3.225   8.071  0.2922  0.2993 -0.7148
17484SOL    HW153893   6.417   3.171   8.046 -0.5993  1.3592 -0.4217
17484SOL    HW253894   6.528   3.183   8.148  0.6061 -0.7635 -1.4230
17485SOL     OW53895   5.727   3.547  10.022  1.1659 -0.1234 -0.2307
17485SOL    HW153896   5.695   3.480   9.961 -0.0218  1.2964 -1.2327
17485SOL    HW253897   5.731   3.502  10.106 -0.2710 -1.2922 -0.7312
17486SOL     OW53898   6.883   6.711   5.177 -0.5218  0.0085 -0.1371
17486SOL    HW153899   6.975   6.699   5.153 -0.3472  0.7018  0.1564
17486SOL    HW253900   6.834   6.675   5.102  0.0037  0.7993 -0.8861
17487SOL     OW53901   7.383   5.711  11.383 -0.2856  0.0946  0.0654
17487SOL    HW153902   7.393   5.784  11.444  0.3567 -0.3511  0.5011
17487SOL    HW253903   7.305   5.733  11.332 -0.2934  0.9208  0.4175
17488SOL     OW53904   6.472   2.412   7.048  0.1086  0.2218 -0.0863
17488SOL    HW153905   6.430   2.417   6.962 -1.7930  1.2559  0.8409
17488SOL    HW253906   6.407   2.370   7.104  0.8808  0.5595  1.0973
17489SOL     OW53907   2.016   1.679   7.423  0.2918  0.1537  0.3317
17489SOL    HW153908   1.954   1.626   7.373 -0.2995  0.8141  0.3504
17489SOL    HW253909   2.100   1.665   7.380 -0.2706  1.0151 -1.1176
17490SOL     OW53910   5.559   0.274   4.364  0.0794  0.0056 -0.9325
17490SOL    HW153911   5.500   0.332   4.316 -0.6251  1.5896  1.6372
17490SOL    HW253912   5.515   0.189   4.361 -0.8083  0.4585 -1.5867
17491SOL     OW53913   4.918   0.221   5.851  0.1824  0.1278  0.2141
17491SOL    HW153914   4.919   0.316   5.861 -0.3462  0.0426  1.0944
17491SOL    HW253915   5.010   0.198   5.838  0.5378  0.5720  1.7927
17492SOL     OW53916   6.732   3.559   4.067 -0.3565  0.1788 -0.2532
17492SOL    HW153917   6.824   3.546   4.093 -0.2737 -1.1929 -1.1443
17492SOL    HW253918   6.729   3.534   3.975 -2.1839 -2.9235  0.4713
17493SOL     OW53919   3.522   6.861   6.874  0.5849 -0.0686  0.3646
17493SOL    HW153920   3.457   6.903   6.930  1.4827  2.1344 -0.1047
17493SOL    HW253921   3.472   6.801   6.819 -0.5502 -0.8987  2.2104
17494SOL     OW53922   6.543   5.193   5.090 -0.3705 -0.0018  0.0826
17494SOL    HW153923   6.500   5.158   5.012  1.9079 -0.4680 -1.0564
17494SOL    HW253924   6.575   5.116   5.136 -2.5490  0.1972  2.1153
17495SOL     OW53925   5.879   0.985   9.209 -0.5837 -0.0064  0.0808
17495SOL    HW153926   5.964   1.018   9.238 -0.4276  0.2308 -0.6110
17495SOL    HW253927   5.857   0.916   9.271 -0.3229  0.5597  0.8172
17496SOL     OW53928   3.702   6.762   3.709  0.1128 -0.1636 -0.8322
17496SOL    HW153929   3.664   6.728   3.790  2.0376 -0.6800 -0.0959
17496SOL    HW253930   3.668   6.851   3.702  1.3676  0.6068  1.6192
17497SOL     OW53931   7.569   2.623  10.709 -0.2834  0.4583 -0.3502
17497SOL    HW153932   7.586   2.715  10.729 -0.1311 -0.1355  2.6687
17497SOL    HW253933   7.478   2.621  10.679  0.0181  1.6627 -1.4467
17498SOL     OW53934   6.584   5.110   2.080  0.3609 -0.7482  0.4964
17498SOL    HW153935   6.564   5.118   2.173  0.8858 -0.0507  0.5644
17498SOL    HW253936   6.673   5.146   2.072  0.5540 -1.3472 -0.1809
17499SOL     OW53937   0.657   6.073   6.116 -0.0013  0.8434 -0.1517
17499SOL    HW153938   0.669   6.001   6.053 -3.5951 -1.5469  1.5361
17499SOL    HW253939   0.606   6.138   6.068 -0.6547  0.1190 -0.4783
17500SOL     OW53940   4.097   4.064   9.234  0.0994  0.1292 -0.4035
17500SOL    HW153941   4.056   3.984   9.266 -0.9367  0.4726 -0.7991
17500SOL    HW253942   4.128   4.041   9.146  0.1338  0.0599 -0.3739
17501SOL     OW53943   0.512   2.064  11.432  0.1125  0.3073 -0.6728
17501SOL    HW153944   0.480   1.983  11.392 -0.0422  1.1385 -2.2854
17501SOL    HW253945   0.435   2.119  11.440  0.1283  0.1502  0.8703
17502SOL     OW53946   7.311   6.384   2.190  0.2525  0.9803 -0.3172
17502SOL    HW153947   7.235   6.404   2.135 -1.2733 -0.0957  1.3032
17502SOL    HW253948   7.274   6.357   2.274  2.3650 -1.3067 -0.0072
17503SOL     OW53949   4.618   0.228   5.849 -0.4632  0.1312 -0.1313
17503SOL    HW153950   4.709   0.214   5.874  0.0164 -0.1643 -1.8889
17503SOL    HW253951   4.622   0.278   5.768 -1.8678  0.1666 -0.2154
17504SOL     OW53952   5.786   1.814   7.011  0.2556  0.2560 -0.8574
17504SOL    HW153953   5.719   1.776   6.955  1.9408 -1.9983 -1.5045
17504SOL    HW253954   5.867   1.809   6.959  1.0878  2.2152  0.1378
17505SOL     OW53955   2.529   5.585   9.805  0.6130 -0.0666  0.2682
17505SOL    HW153956   2.519   5.598   9.711 -0.5909  3.4689  0.7532
17505SOL    HW253957   2.575   5.663   9.836  0.7540 -1.0004  2.6692
17506SOL     OW53958   4.601   3.661   0.191 -0.0138 -0.0519 -0.4934
17506SOL    HW153959   4.643   3.627   0.112 -1.2354  1.4506 -1.8607
17506SOL    HW253960   4.654   3.736   0.216  0.6097 -0.7693  0.3949
17507SOL     OW53961   0.417   5.777   2.217  0.5096  0.3225 -0.0560
17507SOL    HW153962   0.437   5.831   2.141  0.7473 -0.9219 -0.9033
17507SOL    HW253963   0.458   5.692   2.198  1.8719  0.4102  2.1256
17508SOL     OW53964   6.481   2.303   4.953  0.4297  0.3099 -0.1860
17508SOL    HW153965   6.535   2.229   4.925 -0.3105 -0.1975 -0.3008
17508SOL    HW253966   6.486   2.366   4.881  0.4883  0.0622 -0.3984
17509SOL     OW53967   6.827   3.540   1.505  0.5205  0.2152  0.2684
17509SOL    HW153968   6.850   3.539   1.597 -1.7519  1.2644  0.9152
17509SOL    HW253969   6.896   3.489   1.462  0.2278 -2.5874  2.8540
17510SOL     OW53970   3.599   5.193   3.500  0.7109  0.1982 -0.0064
17510SOL    HW153971   3.660   5.120   3.484  0.2872  0.0633 -1.0384
17510SOL    HW253972   3.577   5.185   3.593  0.5752 -1.0647 -0.1337
17511SOL     OW53973   7.445   7.331   8.111 -0.0048 -0.0041  0.8644
17511SOL    HW153974   7.481   7.406   8.064  1.7131 -1.0385  0.4476
17511SOL    HW253975   7.452   7.258   8.049 -1.0836 -0.6413  1.4649
17512SOL     OW53976   7.508   6.772   7.991 -0.1418  0.4752  0.2629
17512SOL    HW153977   7.495   6.731   7.906  1.4155  1.4433 -0.4912
17512SOL    HW253978   7.593   6.816   7.983 -0.6615  1.8361  1.8058
17513SOL     OW53979   4.854   5.152   4.559  0.0506  0.5950 -0.2947
17513SOL    HW153980   4.762   5.153   4.535  0.2146 -0.2833 -1.0312
17513SOL    HW253981   4.864   5.224   4.621 -1.6943 -0.9191  1.9027
17514SOL     OW53982   5.633   3.399   9.106  0.1008 -0.1165  0.4604
17514SOL    HW153983   5.600   3.378   9.019 -0.8401  0.0877  0.7499
17514SOL    HW253984   5.573   3.467   9.138  0.0130 -0.6751  1.5279
17515SOL     OW53985   0.449   5.772   4.447  0.8684 -0.0663  0.5148
17515SOL    HW153986   0.442   5.731   4.533  0.1506  1.6785  1.3356
17515SOL    HW253987   0.508   5.715   4.398  0.8036 -1.4335  1.9554
17516SOL     OW53988   6.930   1.831   7.215  0.3690  0.1493 -0.1073
17516SOL    HW153989   6.904   1.918   7.185  2.4194  0.3422 -1.4641
17516SOL    HW253990   6.973   1.846   7.299 -0.2093  0.3006  0.1666
17517SOL     OW53991   0.673   5.998   9.117 -0.9057 -0.6812  0.5131
17517SOL    HW153992   0.737   6.047   9.066 -1.3091 -1.1066 -0.4193
17517SOL    HW253993   0.713   5.990   9.204  0.4358 -1.1617 -0.1174
17518SOL     OW53994   0.104   6.107   5.236  0.1690 -0.1026 -0.4094
17518SOL    HW153995   0.072   6.139   5.151  2.7561 -0.6321 -1.6923
17518SOL    HW253996   0.106   6.011   5.226 -0.6323 -0.2463  0.7056
17519SOL     OW53997   4.826   0.506   6.167  0.0944  0.2761 -0.0251
17519SOL    HW153998   4.908   0.490   6.214  0.8494 -0.4915 -1.5485
17519SOL    HW253999   4.843   0.477   6.078 -2.2547 -1.1749 -0.0841
17520SOL     OW54000   6.707   7.824   0.096 -0.1177 -0.3814 -0.6159
17520SOL    HW154001   6.737   7.913   0.118  0.3084 -0.3732 -1.2126
17520SOL    HW254002   6.778   7.767   0.125  0.7568 -0.3226 -2.4964
17521SOL     OW54003   7.402   7.468   8.867  0.4747 -0.1452  0.0237
17521SOL    HW154004   7.402   7.546   8.811 -2.0315  0.9182  1.3159
17521SOL    HW254005   7.361   7.498   8.948  0.5993 -2.5474  1.0373
17522SOL     OW54006   0.886   5.482   3.352 -0.5500 -0.7653  0.3035
17522SOL    HW154007   0.960   5.446   3.302 -0.9956 -0.0165 -0.9435
17522SOL    HW254008   0.925   5.549   3.408 -0.3950  0.5308 -1.2654
17523SOL     OW54009   0.200   3.788   0.446 -0.8549 -0.5866 -0.2999
17523SOL    HW154010   0.249   3.793   0.528 -1.7152 -1.7503  0.3085
17523SOL    HW254011   0.162   3.875   0.437 -0.2554 -0.2570  0.2154
17524SOL     OW54012   4.073   3.257   0.905 -0.4160 -0.1283  0.2690
17524SOL    HW154013   4.019   3.180   0.887 -0.7195  0.2672 -0.5484
17524SOL    HW254014   4.153   3.243   0.854 -1.0913  0.7822 -1.1039
17525SOL     OW54015   5.904   2.696   8.230  0.0067 -0.9869 -0.4749
17525SOL    HW154016   5.937   2.782   8.206 -1.2094 -0.5858 -0.8014
17525SOL    HW254017   5.820   2.689   8.184  0.6465 -2.8580 -1.4231
17526SOL     OW54018   6.796   0.514   7.059  0.3661 -0.1378 -0.2720
17526SOL    HW154019   6.753   0.516   6.974 -0.7579  0.9620  0.2837
17526SOL    HW254020   6.740   0.460   7.114  0.0941  0.6651  0.2521
17527SOL     OW54021   5.156   3.336  12.446 -0.5397 -0.0355 -0.2334
17527SOL    HW154022   5.183   3.376  12.363 -0.0516 -1.1637 -0.6337
17527SOL    HW254023   5.222   3.365  12.509 -1.1664  1.2071 -0.0983
17528SOL     OW54024   6.440   1.073   6.838 -0.2250  0.2457 -0.1574
17528SOL    HW154025   6.497   1.027   6.899  0.8713  2.2153  0.4043
17528SOL    HW254026   6.468   1.044   6.751 -0.5631 -1.1993  0.1945
17529SOL     OW54027   6.574   5.397   4.567  0.5760  0.2625  0.0177
17529SOL    HW154028   6.608   5.316   4.529  0.7916  0.5380 -0.3843
17529SOL    HW254029   6.479   5.392   4.553  0.6396  0.3047 -0.4585
17530SOL     OW54030   7.585   7.981   6.672  0.0896 -0.4139 -0.0872
17530SOL    HW154031   7.600   7.901   6.722  1.9527  0.1117  0.2497
17530SOL    HW254032   7.620   8.051   6.727  0.1136  0.4330 -1.1439
17531SOL     OW54033   1.767   6.995   7.096  0.2592 -0.0626 -0.0902
17531SOL    HW154034   1.822   7.040   7.160  2.5539 -0.4125 -1.7373
17531SOL    HW254035   1.731   7.066   7.042  0.3545  0.0688  0.0164
17532SOL     OW54036   0.966   0.167   2.267 -0.0614 -0.0874 -0.3158
17532SOL    HW154037   0.886   0.114   2.259 -0.0953 -0.4038  1.6571
17532SOL    HW254038   0.937   0.256   2.247 -0.9144 -0.2061  0.2976
17533SOL     OW54039   3.772   5.857   9.825 -0.6836  0.1801 -0.2553
17533SOL    HW154040   3.854   5.897   9.797  0.6945 -2.5460 -0.4749
17533SOL    HW254041   3.785   5.763   9.810 -1.7525 -1.0416  4.7809
17534SOL     OW54042   3.774   1.304  11.678  0.1107 -0.2498 -0.8660
17534SOL    HW154043   3.715   1.378  11.687 -1.0935 -0.9911 -2.2174
17534SOL    HW254044   3.732   1.233  11.728  0.2473 -0.5579 -1.1805
17535SOL     OW54045   4.762   4.604   4.323 -0.3905  0.0302  0.0447
17535SOL    HW154046   4.805   4.565   4.247  0.9107  2.4810 -0.5779
17535SOL    HW254047   4.714   4.678   4.288 -0.6302  0.5993  1.4932
17536SOL     OW54048   4.739   5.227  10.839  0.1327 -0.6716 -0.5362
17536SOL    HW154049   4.667   5.169  10.813  2.0016 -2.7202 -1.5115
17536SOL    HW254050   4.748   5.288  10.765 -0.8406 -0.1138 -0.2126
17537SOL     OW54051   6.567   1.007   9.424  0.2530  0.2853 -0.6147
17537SOL    HW154052   6.582   0.978   9.334  0.2732  0.5593 -0.7002
17537SOL    HW254053   6.567   0.927   9.475  1.9431  0.2463 -0.6071
17538SOL     OW54054   5.100   3.339  10.061 -0.1031 -0.3002 -0.1347
17538SOL    HW154055   5.079   3.418  10.111 -0.1902  0.1186 -0.8231
17538SOL    HW254056   5.186   3.312  10.094  0.6790  1.0142 -1.0105
17539SOL     OW54057   0.330   6.228   5.346 -0.1433  0.2625 -0.3922
17539SOL    HW154058   0.390   6.171   5.394  0.5541  1.4675  0.2222
17539SOL    HW254059   0.249   6.177   5.339 -0.6617  0.3719  2.9923
17540SOL     OW54060   3.902   1.763   3.459  0.3244 -0.1147  0.2631
17540SOL    HW154061   3.876   1.734   3.547  0.0182 -1.5296 -0.2582
17540SOL    HW254062   3.943   1.848   3.473 -1.4313  0.6032  1.5521
17541SOL     OW54063   7.545   0.667   7.407  0.0710 -0.2536  0.0856
17541SOL    HW154064   7.533   0.705   7.319 -1.8045  0.6728  0.6898
17541SOL    HW254065   7.476   0.601   7.414  0.9303 -1.1291  0.4623
17542SOL     OW54066   4.399   1.508   0.378  0.1352 -0.4042 -0.5240
17542SOL    HW154067   4.394   1.463   0.293 -0.2767 -1.3687 -0.0045
17542SOL    HW254068   4.470   1.571   0.368 -0.0863 -0.3108 -1.6737
17543SOL     OW54069   1.013   0.466  11.736 -0.1545  0.2354 -0.0052
17543SOL    HW154070   0.947   0.489  11.671  0.7431 -0.5325 -1.2406
17543SOL    HW254071   1.028   0.373  11.723  1.0426  0.3586  0.3637
17544SOL     OW54072   0.038   7.650  10.553 -0.2772  0.2329 -0.2121
17544SOL    HW154073   0.050   7.569  10.503 -0.5961  0.2782 -0.3622
17544SOL    HW254074   0.126   7.673  10.583 -0.5133 -1.5443  2.0311
17545SOL     OW54075   0.098   5.535   5.459  0.3690  0.3808  0.1425
17545SOL    HW154076   0.156   5.570   5.391  0.4746 -1.1384 -0.5845
17545SOL    HW254077   0.133   5.448   5.478 -1.1256 -0.2076  0.3295
17546SOL     OW54078   7.229   5.618  10.811  0.2070 -0.1175  0.3620
17546SOL    HW154079   7.307   5.659  10.849  0.5335  0.4780 -0.8899
17546SOL    HW254080   7.158   5.679  10.831  0.3819  0.2081  0.0033
17547SOL     OW54081   0.835   0.412   0.560  0.1185  0.1723  0.1888
17547SOL    HW154082   0.817   0.409   0.466 -0.8737  0.4361  0.3601
17547SOL    HW254083   0.753   0.442   0.599  0.9868  1.5696  1.0070
17548SOL     OW54084   6.762   1.454   9.599  0.4193  0.5157 -0.0719
17548SOL    HW154085   6.726   1.541   9.614  0.8303  0.5362  0.8637
17548SOL    HW254086   6.718   1.398   9.663  0.5312  0.1345 -0.3237
17549SOL     OW54087   4.685   7.212   1.744 -0.0341  0.0761 -0.8400
17549SOL    HW154088   4.776   7.233   1.765 -0.4874  0.0436  1.5144
17549SOL    HW254089   4.686   7.118   1.725  0.2689 -0.2219  0.5214
17550SOL     OW54090   7.707   1.417   6.741 -0.8014 -0.4384  0.0880
17550SOL    HW154091   7.742   1.383   6.823 -2.8189  0.1728  1.2848
17550SOL    HW254092   7.769   1.485   6.715 -1.4563  1.3160  2.6403
17551SOL     OW54093   6.918   1.880   5.436  0.1577 -0.6011 -0.1546
17551SOL    HW154094   6.844   1.840   5.390 -0.0625  0.3588 -0.6652
17551SOL    HW254095   6.980   1.809   5.447  0.2021 -0.8863 -1.9241
17552SOL     OW54096   3.603   2.257  11.695 -0.4393  0.2627  0.5173
17552SOL    HW154097   3.629   2.324  11.631 -0.0533  1.2445  1.6426
17552SOL    HW254098   3.684   2.210  11.714 -0.9356 -1.3005 -1.1052
17553SOL     OW54099   4.832   4.912   7.106  0.5453 -0.7303 -0.1002
17553SOL    HW154100   4.805   4.824   7.132  0.5948 -1.0659 -1.1180
17553SOL    HW254101   4.760   4.968   7.133 -0.1999 -1.3116 -0.8216
17554SOL     OW54102   4.075   7.029   3.165  0.0529  0.2098 -0.4351
17554SOL    HW154103   4.075   7.106   3.223 -0.1736  0.8282 -1.2344
17554SOL    HW254104   4.089   7.065   3.077  0.5319 -0.7282 -0.7533
17555SOL     OW54105   2.458   4.301   0.407  0.2024 -0.2530  0.0219
17555SOL    HW154106   2.400   4.247   0.460  1.5234 -1.1746  0.6047
17555SOL    HW254107   2.500   4.239   0.347  0.8277  0.3220 -0.1477
17556SOL     OW54108   4.381   4.749  12.436  0.2717 -0.0098 -0.2234
17556SOL    HW154109   4.326   4.776  12.362 -0.4150 -0.2651  0.1761
17556SOL    HW254110   4.322   4.696  12.490  0.7862  0.1199  0.4693
17557SOL     OW54111   0.824   5.535  10.491  0.1431 -0.2616  0.3373
17557SOL    HW154112   0.823   5.575  10.404  0.3599  0.2530  0.5744
17557SOL    HW254113   0.797   5.444  10.475 -0.9679  0.1244 -0.1149
17558SOL     OW54114   4.039   3.179  10.140 -0.2283  0.5964  0.1934
17558SOL    HW154115   4.082   3.106  10.183  0.3911  1.0000  0.2720
17558SOL    HW254116   4.109   3.224  10.093 -0.6838  0.8725 -0.2255
17559SOL     OW54117   4.877   7.825   1.317  0.1172  0.3433 -0.1060
17559SOL    HW154118   4.917   7.864   1.239 -0.7514  1.8836  0.1716
17559SOL    HW254119   4.935   7.850   1.389  0.1238  0.2098 -0.0648
17560SOL     OW54120   0.046   4.132   9.872  0.2736 -0.0165  0.1442
17560SOL    HW154121  -0.036   4.163   9.909 -0.7574 -1.0346 -1.1790
17560SOL    HW254122   0.070   4.198   9.807  0.5319  0.2888  0.5414
17561SOL     OW54123   0.920   3.539   0.091  0.6696  0.0260  0.6026
17561SOL    HW154124   0.888   3.536   0.001  1.7172  0.1966  0.2152
17561SOL    HW254125   0.840   3.541   0.144 -0.0886 -3.4201 -0.1612
17562SOL     OW54126   5.571   7.666  10.212  0.1169  0.7588 -0.0390
17562SOL    HW154127   5.592   7.755  10.242 -0.3072  1.1994 -1.0236
17562SOL    HW254128   5.632   7.610  10.260  0.8234  1.6374  0.1167
17563SOL     OW54129   6.703   4.885  11.386 -0.5153 -0.2015  0.0688
17563SOL    HW154130   6.683   4.816  11.322 -0.3654  1.5678 -1.9789
17563SOL    HW254131   6.632   4.880  11.450 -1.2613 -1.3318 -0.8170
17564SOL     OW54132   7.307   1.269   3.026  0.2354 -0.3111 -0.0575
17564SOL    HW154133   7.284   1.183   3.060  2.7277 -1.8392 -1.9363
17564SOL    HW254134   7.333   1.319   3.103 -0.1523 -1.5917  0.9391
17565SOL     OW54135   0.943   5.477   0.763  0.1877 -0.3981 -0.1099
17565SOL    HW154136   0.877   5.413   0.738 -0.0351  0.1073 -0.8467
17565SOL    HW254137   1.002   5.429   0.822 -1.6020 -0.4811  1.7196
17566SOL     OW54138   4.037   3.857  11.976  0.0272 -1.0481  0.0128
17566SOL    HW154139   4.105   3.881  12.039 -0.6585  0.1203  0.3449
17566SOL    HW254140   3.965   3.825  12.030 -0.4003 -0.4594 -0.2028
17567SOL     OW54141   6.996   5.126   7.894  0.9004 -0.0207  0.0263
17567SOL    HW154142   7.019   5.056   7.832  0.0993  0.1584 -0.4956
17567SOL    HW254143   7.076   5.176   7.905  0.6615  0.9707 -2.2247
17568SOL     OW54144   2.792   1.941   9.432 -0.0492 -0.0542  0.2032
17568SOL    HW154145   2.876   1.936   9.387  0.3253 -0.1008  0.9031
17568SOL    HW254146   2.729   1.958   9.362  0.3531 -1.3740 -0.5075
17569SOL     OW54147   1.135   5.891   1.201  0.1871  0.5521 -0.6717
17569SOL    HW154148   1.220   5.901   1.157  0.3446 -0.5653 -0.6476
17569SOL    HW254149   1.078   5.954   1.158  0.7773  0.6290 -1.3603
17570SOL     OW54150   6.484   0.079   7.231  0.6892  0.2436  0.5622
17570SOL    HW154151   6.545   0.046   7.165  0.3172 -1.6462  1.1092
17570SOL    HW254152   6.398   0.049   7.202  0.3504  0.5894  1.1839
17571SOL     OW54153   1.862   2.761   4.289 -0.0795 -0.5354  0.5346
17571SOL    HW154154   1.870   2.832   4.352  1.2609 -0.3447  0.1609
17571SOL    HW254155   1.767   2.751   4.277 -0.2990  1.0454  0.7321
17572SOL     OW54156   0.083   1.768   5.030  0.3290  0.6989  0.3300
17572SOL    HW154157   0.134   1.729   5.101 -1.4458 -0.7442  0.8778
17572SOL    HW254158   0.077   1.861   5.054  0.1310  0.3210  1.8785
17573SOL     OW54159   5.222   6.517   1.487 -0.2527  0.0528 -0.2654
17573SOL    HW154160   5.224   6.451   1.418 -1.4425  0.3391 -0.5949
17573SOL    HW254161   5.147   6.572   1.465 -0.0588  0.7333  0.7263
17574SOL     OW54162   1.366   1.671   2.304 -0.1145  0.1712 -0.0267
17574SOL    HW154163   1.302   1.632   2.363 -1.2852 -0.0923 -1.4393
17574SOL    HW254164   1.376   1.761   2.336 -1.1467  0.1986  0.2456
17575SOL     OW54165   4.482   5.804   9.370  0.1004  0.3752  0.1355
17575SOL    HW154166   4.442   5.762   9.294  1.3527  0.7159 -0.7271
17575SOL    HW254167   4.409   5.851   9.412 -0.6760 -0.1081 -0.6296
17576SOL     OW54168   4.302   2.785   4.510  0.4511  0.8154  0.0976
17576SOL    HW154169   4.230   2.740   4.555 -1.0151 -0.1999 -3.0370
17576SOL    HW254170   4.261   2.861   4.469  0.9637 -0.1191 -2.2611
17577SOL     OW54171   3.830   1.897   3.028  0.2530 -0.0930 -0.2203
17577SOL    HW154172   3.777   1.863   3.100  0.7035  0.0355  0.1772
17577SOL    HW254173   3.809   1.990   3.025  2.0804  0.4492  1.4084
17578SOL     OW54174   4.878   4.383   7.167 -0.1101 -0.3340  0.5858
17578SOL    HW154175   4.872   4.322   7.242  1.7547 -1.1317  0.1633
17578SOL    HW254176   4.831   4.339   7.097  1.1973 -1.3496  0.2939
17579SOL     OW54177   7.446   5.637   0.326  0.1750  0.0714 -0.1758
17579SOL    HW154178   7.462   5.560   0.381  0.8321 -0.0528 -0.5366
17579SOL    HW254179   7.513   5.633   0.258 -0.6366  0.2216 -1.0002
17580SOL     OW54180   4.732   1.602   2.466  0.0554 -0.2244 -0.1090
17580SOL    HW154181   4.773   1.561   2.391 -0.0233 -0.3378 -0.0907
17580SOL    HW254182   4.754   1.695   2.458 -0.3008 -0.1701 -0.5012
17581SOL     OW54183   6.574   0.664   7.868  0.7300 -0.3509 -0.3029
17581SOL    HW154184   6.612   0.600   7.928  0.5639 -0.9089 -0.7855
17581SOL    HW254185   6.649   0.715   7.836  0.6949  0.7752  1.3078
17582SOL     OW54186   3.135   3.842   1.506  0.2779  0.1916 -0.2132
17582SOL    HW154187   3.204   3.805   1.561 -2.1233 -0.6277  2.5504
17582SOL    HW254188   3.109   3.922   1.552 -2.3986 -0.9800  0.5313
17583SOL     OW54189   6.062   3.333   5.353  0.1472 -0.4300  0.1982
17583SOL    HW154190   6.119   3.260   5.377 -0.3948 -1.1246 -0.5784
17583SOL    HW254191   6.036   3.314   5.263  0.3359  0.9471 -0.1709
17584SOL     OW54192   3.602   3.188   6.144 -0.4821  0.0488  0.1447
17584SOL    HW154193   3.659   3.256   6.110 -0.0621  0.0433  0.8245
17584SOL    HW254194   3.561   3.227   6.221 -0.6160 -0.2952  0.2515
17585SOL     OW54195   7.259   0.477   0.022  0.1010  0.6075  0.1720
17585SOL    HW154196   7.352   0.476   0.002 -0.0990  0.5899 -0.8345
17585SOL    HW254197   7.253   0.512   0.111  1.1385 -0.6675  0.7634
17586SOL     OW54198   5.808   5.917   5.660  0.1652  0.1714 -0.1053
17586SOL    HW154199   5.824   5.861   5.584 -2.2594  1.8038 -1.9908
17586SOL    HW254200   5.728   5.882   5.699  0.7232  0.0826  0.9929
17587SOL     OW54201   2.677   6.593  10.163 -0.4101 -0.0190 -0.6409
17587SOL    HW154202   2.748   6.588  10.228 -0.6772 -0.8716 -0.4011
17587SOL    HW254203   2.629   6.511  10.174 -3.1192  1.6277  1.1307
17588SOL     OW54204   3.134   0.668   5.774 -0.4091  0.1552  0.2336
17588SOL    HW154205   3.097   0.754   5.755  1.0339  0.6691 -0.3557
17588SOL    HW254206   3.136   0.664   5.870  0.4195  1.1923  0.2742
17589SOL     OW54207   7.738   2.000   7.262 -0.3574  0.3443  0.2045
17589SOL    HW154208   7.705   1.958   7.341  1.9131 -2.1865 -0.0450
17589SOL    HW254209   7.691   1.958   7.191 -0.4364  0.6405  0.0789
17590SOL     OW54210   6.431   5.994   9.309 -0.1322 -0.4190  0.0444
17590SOL    HW154211   6.363   6.021   9.247  0.9999  2.4151 -0.1139
17590SOL    HW254212   6.501   5.958   9.253 -0.5198 -1.1232  0.0053
17591SOL     OW54213   6.437   5.977   1.930 -0.0088 -0.4279  1.0052
17591SOL    HW154214   6.387   5.932   1.862  1.8264 -1.9296  0.5734
17591SOL    HW254215   6.484   5.907   1.975  2.3123  0.9551  0.8540
17592SOL     OW54216   0.595   3.895   5.309  0.0282 -0.2486 -0.5052
17592SOL    HW154217   0.683   3.930   5.294 -0.3473 -0.1356 -2.8206
17592SOL    HW254218   0.600   3.805   5.275 -0.6547 -0.3575 -0.3264
17593SOL     OW54219   4.536   4.224   8.650 -0.0990 -0.4361 -0.1241
17593SOL    HW154220   4.557   4.209   8.558 -0.0015 -3.2569  0.2890
17593SOL    HW254221   4.596   4.294   8.678  1.1129 -0.7975 -1.7285
17594SOL     OW54222   1.476   4.723   4.070  0.4006 -0.6178  0.2057
17594SOL    HW154223   1.471   4.701   3.977  4.3090 -2.2696  0.2315
17594SOL    HW254224   1.419   4.658   4.113 -1.3707  0.1077 -0.9173
17595SOL     OW54225   1.702   5.682   8.050  0.1613 -0.1352  0.6060
17595SOL    HW154226   1.773   5.660   7.990  0.0647  0.9804  0.0585
17595SOL    HW254227   1.727   5.642   8.133  1.1803 -0.1820  0.2888
17596SOL     OW54228   0.694   5.853  11.038 -0.4249  0.3392  0.0715
17596SOL    HW154229   0.646   5.869  11.119 -1.2455 -2.0906  0.1731
17596SOL    HW254230   0.775   5.810  11.066 -0.5746 -0.2454 -0.3660
17597SOL     OW54231   0.305   4.562   6.564 -0.4640  0.2113 -0.4808
17597SOL    HW154232   0.367   4.634   6.555  0.6644 -0.6436  0.1451
17597SOL    HW254233   0.269   4.572   6.652  0.4821 -0.5678  0.0115
17598SOL     OW54234   4.613   1.564   8.862 -0.4167  0.7025  0.2074
17598SOL    HW154235   4.598   1.492   8.801  0.9393  1.1143 -0.6475
17598SOL    HW254236   4.654   1.523   8.938  0.8875  0.6308 -0.5152
17599SOL     OW54237   7.769   3.143   9.046 -0.0260 -0.2606  0.2592
17599SOL    HW154238   7.693   3.104   9.002  0.6929 -2.6568  0.9886
17599SOL    HW254239   7.735   3.222   9.089 -1.7965 -0.5901 -0.4692
17600SOL     OW54240   4.042   7.846   3.121 -0.4641 -0.0798 -0.1428
17600SOL    HW154241   4.016   7.761   3.086  1.6671 -1.4554  1.3570
17600SOL    HW254242   4.121   7.869   3.072  0.6508 -0.4421  1.4037
17601SOL     OW54243   6.425   0.428   3.945  0.2369  0.1378 -0.1194
17601SOL    HW154244   6.356   0.367   3.920  0.0604  0.9329 -1.6894
17601SOL    HW254245   6.495   0.373   3.980 -0.8395 -0.7460  0.6875
17602SOL     OW54246   0.229   7.048  10.456  0.1553 -0.6623 -0.3310
17602SOL    HW154247   0.206   6.956  10.439  0.2111 -0.8492  0.5314
17602SOL    HW254248   0.259   7.048  10.547 -0.8333  0.3965  0.0164
17603SOL     OW54249   6.942   3.827  11.511 -0.5564  0.2940 -0.3707
17603SOL    HW154250   6.895   3.818  11.428 -2.7988  1.5090  0.6423
17603SOL    HW254251   6.987   3.912  11.504 -0.4168  0.2085 -0.4995
17604SOL     OW54252   5.787   0.006  11.786  0.5529  0.6108  0.1395
17604SOL    HW154253   5.855   0.054  11.834  1.9037  0.0581 -1.1403
17604SOL    HW254254   5.772  -0.073  11.837  1.9448  0.0469 -0.2701
17605SOL     OW54255   4.163   6.021   0.319  0.3835  0.0204  0.1719
17605SOL    HW154256   4.141   5.934   0.286  1.8166 -0.0013 -0.8279
17605SOL    HW254257   4.079   6.062   0.337 -0.4252 -0.6070 -1.9159
17606SOL     OW54258   2.616   0.143   5.109  0.1043  0.1740 -0.1261
17606SOL    HW154259   2.616   0.216   5.047 -1.0585  0.0003 -0.3505
17606SOL    HW254260   2.524   0.120   5.120  0.4431 -1.3135 -0.1159
17607SOL     OW54261   3.178   0.608   6.070 -0.0298 -0.6943 -0.7498
17607SOL    HW154262   3.263   0.648   6.091  1.0506 -3.1351 -0.1364
17607SOL    HW254263   3.122   0.630   6.144  0.4258 -0.0782 -0.5785
17608SOL     OW54264   4.929   0.873   0.265  0.0002  0.0205 -0.0684
17608SOL    HW154265   4.862   0.884   0.331 -0.2136 -0.4429 -0.1993
17608SOL    HW254266   5.006   0.843   0.314  0.2308  0.9162  0.1295
17609SOL     OW54267   2.349   6.079   9.705  0.4762  0.1584 -0.0490
17609SOL    HW154268   2.295   6.156   9.689 -0.8551 -0.9352 -1.0489
17609SOL    HW254269   2.360   6.040   9.618  0.9685 -0.8927  0.4732
17610SOL     OW54270   7.613   6.926   3.036  0.5465  0.5018  0.5912
17610SOL    HW154271   7.544   6.874   2.994  1.6916  0.2452 -1.0652
17610SOL    HW254272   7.598   7.015   3.006  0.8053  0.4844  0.4116
17611SOL     OW54273   6.361   4.333   2.666  0.7242 -0.5768 -0.0993
17611SOL    HW154274   6.421   4.274   2.711  0.6765 -0.9591 -0.5261
17611SOL    HW254275   6.400   4.419   2.676  0.8044 -0.6849  0.5138
17612SOL     OW54276   5.185   3.850  12.146 -0.0565  0.4031 -0.0410
17612SOL    HW154277   5.112   3.890  12.099  0.2998 -1.2319 -2.1755
17612SOL    HW254278   5.263   3.876  12.097  0.2684 -1.9351 -0.9279
17613SOL     OW54279   2.604   3.897   9.770  0.7027  0.5154 -0.4937
17613SOL    HW154280   2.580   3.990   9.775 -1.2856  0.2572 -3.0348
17613SOL    HW254281   2.639   3.876   9.857 -0.3122  3.2089  0.6681
17614SOL     OW54282   1.016   6.768   8.836  0.1314 -0.2032  0.3868
17614SOL    HW154283   0.933   6.815   8.829  0.3028 -0.0283 -0.5747
17614SOL    HW254284   0.991   6.679   8.861 -0.3869 -0.2920 -0.4328
17615SOL     OW54285   4.977   5.766   0.066 -0.4622  0.2330  0.1714
17615SOL    HW154286   5.003   5.725  -0.016  0.4848 -0.0194  0.5791
17615SOL    HW254287   4.881   5.767   0.064 -0.4427  0.9001 -1.2501
17616SOL     OW54288   0.955   5.074   2.471  0.0949 -0.5492 -0.4953
17616SOL    HW154289   0.941   4.981   2.485 -1.0783 -0.4419 -0.8457
17616SOL    HW254290   0.896   5.097   2.399  1.1915  0.2370 -1.1752
17617SOL     OW54291   7.276   4.681  12.380  0.0935 -0.2889 -0.1426
17617SOL    HW154292   7.190   4.641  12.391  0.8021 -1.9476 -0.3246
17617SOL    HW254293   7.337   4.619  12.420  1.2827  0.4541 -0.7433
17618SOL     OW54294   3.597   7.869   0.176 -0.5766 -0.2860 -0.0217
17618SOL    HW154295   3.513   7.847   0.218 -0.4063 -1.1092 -0.0978
17618SOL    HW254296   3.662   7.828   0.232 -0.2178  0.3486  0.0309
17619SOL     OW54297   0.910   0.824   2.749 -0.0878 -0.0610 -0.3937
17619SOL    HW154298   0.898   0.849   2.658  0.8705  0.0317 -0.5062
17619SOL    HW254299   1.000   0.849   2.769 -0.1978 -0.3368  0.4971
17620SOL     OW54300   7.623   2.505   8.688  0.3113  0.2853 -0.2666
17620SOL    HW154301   7.676   2.582   8.665  1.7189 -0.4817  0.2514
17620SOL    HW254302   7.686   2.433   8.691 -1.2960 -1.3862 -2.9304
17621SOL     OW54303   2.402   6.773   6.178 -0.1402 -0.6020  0.3967
17621SOL    HW154304   2.331   6.800   6.237 -0.1636 -2.0222  1.0724
17621SOL    HW254305   2.375   6.803   6.092 -2.1009 -1.9948  0.4561
17622SOL     OW54306   2.392   6.436   5.507 -0.7399 -0.4086  0.1027
17622SOL    HW154307   2.453   6.483   5.451 -0.6243 -0.9920 -0.2729
17622SOL    HW254308   2.423   6.452   5.596 -1.3486  1.1271  0.0711
17623SOL     OW54309   1.619   4.670   5.459  0.1131 -0.1952 -0.1428
17623SOL    HW154310   1.714   4.680   5.451 -0.0684  0.3280 -2.2738
17623SOL    HW254311   1.586   4.680   5.369 -1.9771 -0.1824  0.5671
17624SOL     OW54312   2.001   0.179   0.832 -0.2745 -0.0889 -0.2544
17624SOL    HW154313   1.982   0.095   0.790  1.3296 -0.8092  0.3916
17624SOL    HW254314   1.921   0.199   0.882 -0.6618 -1.2521 -0.3826
17625SOL     OW54315   0.450   3.683  10.297  0.1327  0.0479 -0.6100
17625SOL    HW154316   0.419   3.734  10.372  2.6486 -0.2609  0.7556
17625SOL    HW254317   0.419   3.731  10.220 -0.4200  1.7616  0.6405
17626SOL     OW54318   2.230   2.968   8.929  0.2815  0.3802  0.0718
17626SOL    HW154319   2.196   2.888   8.888 -0.7657  2.0639 -2.6925
17626SOL    HW254320   2.313   2.942   8.969  1.0266 -1.7241 -2.5277
17627SOL     OW54321   5.223   5.849   1.790 -0.1742  0.2774 -0.0840
17627SOL    HW154322   5.156   5.809   1.845 -0.3065 -0.8233 -1.0135
17627SOL    HW254323   5.235   5.787   1.718  0.0618  1.6231 -1.2476
17628SOL     OW54324   7.433   6.686   2.255 -0.2448 -0.1630 -0.6100
17628SOL    HW154325   7.519   6.687   2.214 -0.2042 -0.8911 -0.5626
17628SOL    HW254326   7.401   6.597   2.241  0.3811 -0.9091  2.1369
17629SOL     OW54327   0.231   1.658   8.541  0.0739  0.0418 -0.2122
17629SOL    HW154328   0.314   1.649   8.588  1.4753 -0.4683 -2.6337
17629SOL    HW254329   0.231   1.748   8.509 -2.1487  1.3227  2.8005
17630SOL     OW54330   6.930   1.650  10.864  0.2902 -0.0784  0.3998
17630SOL    HW154331   6.988   1.726  10.852  1.6008 -1.0693  0.2387
17630SOL    HW254332   6.919   1.615  10.776 -0.5487  0.0906  0.4368
17631SOL     OW54333   4.396   6.630  11.868  0.0583  0.2034  0.1930
17631SOL    HW154334   4.472   6.600  11.818 -0.1652  0.5510 -0.3657
17631SOL    HW254335   4.404   6.585  11.952  0.6913 -0.0354  0.0159
17632SOL     OW54336   5.257   1.011   7.940 -0.5794  0.1574 -0.3637
17632SOL    HW154337   5.307   1.048   8.012 -0.9503 -1.0016  0.5244
17632SOL    HW254338   5.314   0.943   7.904 -0.5336  0.4995 -0.9445
17633SOL     OW54339   1.219   5.463  10.561  0.6666 -0.2856 -0.0742
17633SOL    HW154340   1.147   5.469  10.624  1.1726 -0.2113  0.5054
17633SOL    HW254341   1.294   5.435  10.613  1.3944  0.9724 -0.4073
17634SOL     OW54342   5.187   6.543   6.512  0.0107 -0.0696  0.6896
17634SOL    HW154343   5.226   6.517   6.429  0.2395 -2.6593  1.5429
17634SOL    HW254344   5.261   6.555   6.571 -0.2538 -0.2778  1.0655
17635SOL     OW54345   6.676   3.594   0.493 -0.1088  0.1827  0.3800
17635SOL    HW154346   6.705   3.528   0.557 -3.1826 -1.1773  0.5321
17635SOL    HW254347   6.737   3.584   0.420  0.0962 -2.2638  0.7704
17636SOL     OW54348   5.401   3.600   1.346 -0.0975 -0.3557 -0.7444
17636SOL    HW154349   5.487   3.595   1.388 -0.3853  1.1768  0.0806
17636SOL    HW254350   5.407   3.539   1.273  1.8241  0.0103 -0.9472
17637SOL     OW54351   0.066   2.154   9.078  0.4817 -0.1366  0.3538
17637SOL    HW154352   0.023   2.236   9.101  0.4945  0.6156 -1.9986
17637SOL    HW254353  -0.006   2.094   9.060  0.4752 -0.5529  1.6443
17638SOL     OW54354   6.311   0.358   8.471 -0.2608  0.4311 -0.1831
17638SOL    HW154355   6.300   0.265   8.450  1.7139  0.4507 -1.4791
17638SOL    HW254356   6.270   0.404   8.398  0.2729  0.5563 -0.4083
17639SOL     OW54357   7.183   5.730   3.217 -0.0540  0.2776 -0.0004
17639SOL    HW154358   7.266   5.745   3.173 -0.2059 -0.6955 -0.6650
17639SOL    HW254359   7.120   5.717   3.145 -0.7673  0.9401  0.4893
17640SOL     OW54360   3.625   0.597   4.062  0.1786  0.2384  0.4564
17640SOL    HW154361   3.640   0.625   4.153 -0.9739 -1.1005  1.1021
17640SOL    HW254362   3.687   0.526   4.049 -0.3753 -0.2714  0.5661
17641SOL     OW54363   1.054   6.104   4.880 -0.2820  0.1717  0.0686
17641SOL    HW154364   1.104   6.099   4.798 -0.3798  2.6822 -0.2183
17641SOL    HW254365   0.992   6.174   4.866 -0.6126  0.3592  2.1579
17642SOL     OW54366   3.064   1.019   4.992  0.1645  0.1497 -0.3717
17642SOL    HW154367   3.082   1.010   4.898  1.6075 -1.7046  0.0222
17642SOL    HW254368   3.036   1.110   5.002 -1.5272 -0.0072 -2.8046
17643SOL     OW54369   0.862   3.748   3.119 -0.2286 -0.1691  0.1561
17643SOL    HW154370   0.785   3.797   3.090 -1.5054 -1.6629  0.8966
17643SOL    HW254371   0.913   3.813   3.168 -0.9517  0.8730 -0.4222
17644SOL     OW54372   7.416   0.021   7.538 -0.4709  0.0701  0.0214
17644SOL    HW154373   7.492  -0.019   7.582 -0.0541  0.4276 -0.3711
17644SOL    HW254374   7.383   0.085   7.601 -0.6367 -0.2929  0.3141
17645SOL     OW54375   7.518   7.519  12.154 -0.1700 -0.3322  0.2552
17645SOL    HW154376   7.468   7.453  12.106  0.1919 -0.0313 -0.5371
17645SOL    HW254377   7.453   7.562  12.210 -0.3067 -1.7966  1.3064
17646SOL     OW54378   5.671   6.143   6.495  0.2164 -0.2454  0.1304
17646SOL    HW154379   5.669   6.151   6.399  1.5775  0.4034  0.1380
17646SOL    HW254380   5.685   6.050   6.511  0.0855 -0.3424 -0.3010
17647SOL     OW54381   5.980   3.195   7.371 -0.1152  0.2244  0.2496
17647SOL    HW154382   5.923   3.265   7.338 -0.3926 -0.2932 -0.3903
17647SOL    HW254383   5.985   3.132   7.299  2.0322  0.6924 -0.0760
17648SOL     OW54384   1.904   6.188  11.689 -0.1601  0.4451 -0.1719
17648SOL    HW154385   1.846   6.139  11.747 -0.3165 -0.0146 -0.7191
17648SOL    HW254386   1.926   6.267  11.739  2.9204 -1.7156  2.2104
17649SOL     OW54387   5.394   5.953   0.824 -0.0181 -0.1727 -0.1414
17649SOL    HW154388   5.432   5.900   0.894 -0.6718  0.6471  0.8714
17649SOL    HW254389   5.355   5.889   0.764 -1.4578 -0.8737  1.4423
17650SOL     OW54390   3.766   2.803   6.113  0.0158 -0.4056 -0.2606
17650SOL    HW154391   3.688   2.837   6.068 -0.2255  0.7813  0.9835
17650SOL    HW254392   3.828   2.876   6.113  0.6782 -0.9548 -0.1977
17651SOL     OW54393   2.032   4.162   7.620 -0.2240 -0.3913 -0.1433
17651SOL    HW154394   2.121   4.197   7.614 -0.4181  0.2070  0.3629
17651SOL    HW254395   2.017   4.121   7.535  0.3110  0.0537 -0.4581
17652SOL     OW54396   0.875   6.767   8.271 -0.1652 -0.0928  0.3369
17652SOL    HW154397   0.794   6.718   8.290 -0.3838  0.1902  0.1500
17652SOL    HW254398   0.854   6.817   8.192  0.9753 -1.8459 -1.1638
17653SOL     OW54399   6.169   2.450   0.226  0.0343  0.6834  0.6194
17653SOL    HW154400   6.096   2.451   0.287  0.7059 -0.4882  1.4899
17653SOL    HW254401   6.150   2.377   0.167  0.6466  0.1686  1.0496
17654SOL     OW54402   0.718   3.339   3.112  0.0915 -0.0646  0.1878
17654SOL    HW154403   0.735   3.393   3.189 -0.9578  1.7477 -0.8057
17654SOL    HW254404   0.682   3.399   3.048 -0.1370 -1.7660 -1.3440
17655SOL     OW54405   4.689   1.637  10.352  0.0591  0.2072 -0.4428
17655SOL    HW154406   4.689   1.581  10.274 -1.9050 -1.5135  0.6600
17655SOL    HW254407   4.773   1.620  10.394 -0.2464 -1.5337 -0.4507
17656SOL     OW54408   4.660   5.890   5.918 -0.1422 -0.0690 -0.0895
17656SOL    HW154409   4.600   5.824   5.883 -0.3268 -0.2934  0.6268
17656SOL    HW254410   4.741   5.877   5.869 -0.3232 -0.5250 -0.2755
17657SOL     OW54411   1.998   3.077   8.024 -0.0026 -0.6265 -0.0891
17657SOL    HW154412   2.028   3.001   7.974  1.5190 -2.1202  2.8472
17657SOL    HW254413   2.060   3.147   8.002  0.1707 -1.0174 -0.8530
17658SOL     OW54414   3.431   5.292   8.438 -0.0051  0.2977  0.3083
17658SOL    HW154415   3.364   5.325   8.377 -0.0552  1.0207  0.7395
17658SOL    HW254416   3.447   5.202   8.410 -0.4679  0.4264 -0.3960
17659SOL     OW54417   2.457   6.748   2.603  0.2389  0.3836 -0.1931
17659SOL    HW154418   2.472   6.766   2.696 -0.0358  2.3482 -0.4874
17659SOL    HW254419   2.374   6.791   2.584  0.5383  0.4289 -1.4567
17660SOL     OW54420   1.109   0.542   9.450 -0.3367  0.2343  0.2647
17660SOL    HW154421   1.071   0.602   9.514  0.2512  0.5650  0.3083
17660SOL    HW254422   1.154   0.476   9.502  1.5909  1.4226  0.2344
17661SOL     OW54423   6.307   7.142  11.205 -0.4483 -0.3726  0.4595
17661SOL    HW154424   6.252   7.220  11.201 -0.4229 -0.3943 -0.7183
17661SOL    HW254425   6.377   7.158  11.141 -0.7102 -1.5488 -0.1460
17662SOL     OW54426   3.372   5.806   6.541 -0.5122  0.1328  0.2095
17662SOL    HW154427   3.327   5.879   6.499  1.7529  0.2007 -2.3345
17662SOL    HW254428   3.426   5.847   6.609  0.5194  0.8197 -1.0049
17663SOL     OW54429   2.695   1.863  12.076  0.6163 -0.0474 -0.1618
17663SOL    HW154430   2.620   1.837  12.023 -0.7589  1.0850  1.1122
17663SOL    HW254431   2.685   1.814  12.158 -0.8019  2.5979  1.4022
17664SOL     OW54432   7.206   0.680   8.595  0.2585 -0.0279 -0.4527
17664SOL    HW154433   7.250   0.609   8.549 -0.9089  0.3959 -2.3459
17664SOL    HW254434   7.157   0.637   8.665  1.2591 -0.8231 -0.2194
17665SOL     OW54435   0.369   5.379   1.500 -0.8544  0.5937  0.1969
17665SOL    HW154436   0.406   5.322   1.433 -0.7058 -0.7021  1.3381
17665SOL    HW254437   0.320   5.445   1.451 -3.5984 -2.2199 -1.1713
17666SOL     OW54438   5.865   6.508   2.097  0.3048  0.5100 -0.4225
17666SOL    HW154439   5.834   6.583   2.047 -0.5069  0.7474  0.4092
17666SOL    HW254440   5.868   6.539   2.188  1.6489  0.0615 -0.2881
17667SOL     OW54441   5.007   4.287   5.447 -0.2733 -0.0798  0.5394
17667SOL    HW154442   4.973   4.332   5.371 -0.8396  0.1513  0.9228
17667SOL    HW254443   4.994   4.348   5.520 -2.5234 -1.4165  1.3632
17668SOL     OW54444   5.513   2.265   4.657  0.4797 -0.3366  0.4609
17668SOL    HW154445   5.424   2.301   4.658  0.5420 -0.1735  0.3053
17668SOL    HW254446   5.529   2.237   4.747  0.3295 -0.2191  0.5251
17669SOL     OW54447   7.425   2.837   9.312  0.5668 -0.7341 -0.2935
17669SOL    HW154448   7.405   2.763   9.255  1.5444 -1.1533 -0.1042
17669SOL    HW254449   7.512   2.819   9.346  0.6429  0.2913  0.0984
17670SOL     OW54450   3.723   2.091   0.827  0.2320 -0.8534  0.2681
17670SOL    HW154451   3.676   2.111   0.746  1.6839 -0.3144 -0.4744
17670SOL    HW254452   3.807   2.055   0.797  0.2692 -1.8868  1.5542
17671SOL     OW54453   3.235   5.299   0.943 -0.3665 -0.1342 -0.4339
17671SOL    HW154454   3.191   5.369   0.991 -1.3805 -2.0115  1.5365
17671SOL    HW254455   3.326   5.326   0.939 -0.0387 -0.2197  3.3803
17672SOL     OW54456   6.076   7.897   5.807  0.3678  0.3287  0.2031
17672SOL    HW154457   6.117   7.941   5.882 -0.0122 -0.2999  0.7994
17672SOL    HW254458   6.002   7.954   5.784  0.2287  0.3091  0.5882
17673SOL     OW54459   2.015   7.635   1.464 -0.2745 -0.1584  0.2288
17673SOL    HW154460   1.938   7.622   1.519  0.0013 -0.6087  0.5204
17673SOL    HW254461   2.041   7.725   1.480 -0.7749  0.0140  0.0823
17674SOL     OW54462   2.107   4.619   8.549  0.6078 -0.8059 -0.2597
17674SOL    HW154463   2.090   4.682   8.479  1.1244 -1.2829 -0.8176
17674SOL    HW254464   2.183   4.570   8.519  0.6177 -1.2438  0.4830
17675SOL     OW54465   2.811   0.657   5.050  0.5189  0.4530 -0.4392
17675SOL    HW154466   2.887   0.639   5.104  0.4678 -1.5780 -0.9336
17675SOL    HW254467   2.845   0.663   4.961  0.4157  2.2893 -0.3850
17676SOL     OW54468   2.906   6.658   0.012  0.7799 -0.6425  0.3676
17676SOL    HW154469   2.986   6.645   0.064  0.7615 -0.1500  0.5313
17676SOL    HW254470   2.838   6.614   0.062  0.7995 -0.3436  0.6643
17677SOL     OW54471   5.366   4.085   9.053  0.1956 -0.0988  0.1183
17677SOL    HW154472   5.283   4.129   9.035 -1.5084 -3.2991 -0.7887
17677SOL    HW254473   5.370   4.015   8.988  2.7094 -1.2182  1.3379
17678SOL     OW54474   1.541   7.480   9.421  0.3485  0.0410 -0.2359
17678SOL    HW154475   1.630   7.456   9.449  0.0450  0.0791  0.8144
17678SOL    HW254476   1.551   7.504   9.329  1.5481  0.6518  0.0238
17679SOL     OW54477   5.069   5.506   6.207  0.5041  0.1174  0.1709
17679SOL    HW154478   5.014   5.474   6.135  0.5768  1.4939 -0.5482
17679SOL    HW254479   5.156   5.472   6.188  0.7013  1.1465 -0.8921
17680SOL     OW54480   7.902   5.312   3.261  0.6025  0.0045 -0.2157
17680SOL    HW154481   7.838   5.289   3.194  0.3146 -1.6258  0.5656
17680SOL    HW254482   7.850   5.337   3.337  0.8368 -1.7891  0.5797
17681SOL     OW54483   1.524   6.563   9.505  0.2528  0.0817 -0.4586
17681SOL    HW154484   1.465   6.519   9.566 -0.1463  0.1796 -0.7681
17681SOL    HW254485   1.609   6.522   9.520 -0.0203 -0.4821 -0.4293
17682SOL     OW54486   6.905   0.739   8.117 -0.0891 -0.7570 -0.4369
17682SOL    HW154487   6.902   0.798   8.193  2.1038 -1.9278  0.6511
17682SOL    HW254488   6.895   0.652   8.154 -0.5949 -1.2568 -1.7096
17683SOL     OW54489   5.527   3.031   9.925  0.1491 -0.1852 -0.2188
17683SOL    HW154490   5.501   3.103   9.868 -1.1472 -0.1117  0.4410
17683SOL    HW254491   5.455   2.969   9.921  0.4326 -0.5906  0.6444
17684SOL     OW54492   5.589   0.507   0.873 -0.2342  1.0125  0.3610
17684SOL    HW154493   5.658   0.477   0.814 -1.5819  0.5236 -1.0167
17684SOL    HW254494   5.525   0.550   0.816 -1.9209 -0.0762  1.3438
17685SOL     OW54495   5.415   6.490  11.364 -0.3972 -0.2173  0.1150
17685SOL    HW154496   5.417   6.526  11.453  0.7457 -0.8458  0.3700
17685SOL    HW254497   5.488   6.533  11.320 -0.6828 -0.2401 -0.3793
17686SOL     OW54498   7.361   6.860   7.220 -0.0593  0.2395  1.0482
17686SOL    HW154499   7.445   6.814   7.220 -0.3940 -0.4461 -0.2053
17686SOL    HW254500   7.384   6.953   7.216  0.6293  0.1318  2.1604
17687SOL     OW54501   6.738   0.958  12.448  0.1704  0.4152  0.5771
17687SOL    HW154502   6.686   0.893  12.400 -3.7498  1.7780  2.5050
17687SOL    HW254503   6.754   1.028  12.384 -0.2472 -0.1156 -0.1250
17688SOL     OW54504   6.438   2.359   8.205  0.6314 -0.6070 -0.2809
17688SOL    HW154505   6.361   2.306   8.186  0.2451 -1.1031  2.4013
17688SOL    HW254506   6.509   2.317   8.156  0.1367 -3.0726  0.9794
17689SOL     OW54507   0.232   5.445   4.477  0.4676  0.3031  0.1535
17689SOL    HW154508   0.147   5.429   4.436  0.5982  1.3424 -0.5336
17689SOL    HW254509   0.215   5.437   4.571 -0.5625  1.3016  0.0582
17690SOL     OW54510   0.524   6.830   0.305 -0.2093 -0.0608 -0.1018
17690SOL    HW154511   0.471   6.751   0.322 -1.4628  0.1875 -2.4062
17690SOL    HW254512   0.497   6.858   0.218  0.5920  2.6565  0.4341
17691SOL     OW54513   6.340   5.331  11.192  0.2946 -0.6207  0.3503
17691SOL    HW154514   6.352   5.313  11.099  0.6440 -1.3106  0.5202
17691SOL    HW254515   6.275   5.401  11.195  1.8922  0.9825 -0.4883
17692SOL     OW54516   0.636   7.923  10.825 -0.0593 -0.3254 -0.4501
17692SOL    HW154517   0.618   7.970  10.906 -0.1543  0.3845 -0.8741
17692SOL    HW254518   0.605   7.834  10.842  0.0410 -0.2187  0.3329
17693SOL     OW54519   3.238   7.721  10.021 -0.2757  0.8490  0.5885
17693SOL    HW154520   3.166   7.665  10.049  0.0488  0.2923  0.3131
17693SOL    HW254521   3.304   7.714  10.090  0.7486 -0.9342 -0.4992
17694SOL     OW54522   5.562   4.969  10.286 -0.2569 -0.0129 -0.2509
17694SOL    HW154523   5.639   4.930  10.327 -0.0763 -1.8220 -2.1759
17694SOL    HW254524   5.489   4.938  10.338  0.1140 -0.5225 -0.0238
17695SOL     OW54525   1.984   1.395   3.182  0.1541 -0.2752  0.0100
17695SOL    HW154526   1.987   1.379   3.276  0.7934 -2.9824 -0.3913
17695SOL    HW254527   2.038   1.325   3.144 -1.0314  0.0341 -2.4466
17696SOL     OW54528   4.532   7.968   1.916  0.2398  0.0729 -0.2802
17696SOL    HW154529   4.520   8.007   2.003  0.1554  0.8313 -0.6301
17696SOL    HW254530   4.471   7.894   1.915  0.1165  0.1624  0.2425
17697SOL     OW54531   3.487   5.511   7.207  0.3805  0.2294  0.0318
17697SOL    HW154532   3.500   5.429   7.160 -0.4374 -0.3505  0.7744
17697SOL    HW254533   3.394   5.530   7.199  0.7851  1.8621 -1.3268
17698SOL     OW54534   0.319   1.147   5.510  0.5010 -0.5875 -0.5046
17698SOL    HW154535   0.288   1.209   5.576  2.2987 -0.0421 -0.1052
17698SOL    HW254536   0.240   1.102   5.480 -0.4554 -0.3759  1.5253
17699SOL     OW54537   0.102   6.542   7.173  0.6613 -0.1022  0.1450
17699SOL    HW154538   0.065   6.590   7.247  0.5372 -1.5298  1.0520
17699SOL    HW254539   0.032   6.540   7.107 -0.6858 -2.0717  1.5217
17700SOL     OW54540   7.206   3.328   5.238 -0.3600  0.7315  0.7763
17700SOL    HW154541   7.295   3.330   5.205 -0.6988  1.1792 -0.1320
17700SOL    HW254542   7.207   3.258   5.304  0.3118 -0.2501 -0.2254
17701SOL     OW54543   1.846   5.375  10.544  0.5253 -0.5047 -0.1426
17701SOL    HW154544   1.912   5.430  10.584 -1.4859  2.7089 -0.8818
17701SOL    HW254545   1.882   5.352  10.458  0.4680  1.8541 -0.8631
17702SOL     OW54546   4.551   7.317   3.230  0.2509 -0.2272  0.1311
17702SOL    HW154547   4.646   7.308   3.244  0.8075  0.9406 -2.3057
17702SOL    HW254548   4.539   7.411   3.215 -1.5202 -0.1865  1.4484
17703SOL     OW54549   4.445   4.434   0.299  0.6692  0.3407 -0.0463
17703SOL    HW154550   4.539   4.449   0.303  0.6794  1.6353 -2.5951
17703SOL    HW254551   4.408   4.520   0.277 -1.4061  0.3836  3.0697
17704SOL     OW54552   5.706   5.183   5.731 -0.0799  0.0347 -0.9839
17704SOL    HW154553   5.686   5.269   5.694 -0.2564  0.6849  0.5459
17704SOL    HW254554   5.635   5.167   5.794  1.4288  0.0882  0.8247
17705SOL     OW54555   3.450   6.448   0.688  0.3366  0.1592 -0.2576
17705SOL    HW154556   3.520   6.510   0.708 -0.5472  1.3703 -0.8390
17705SOL    HW254557   3.396   6.447   0.767 -0.6802  1.5798 -0.8911
17706SOL     OW54558   3.484   4.486  11.282 -0.0858 -0.2385 -0.4351
17706SOL    HW154559   3.562   4.541  11.271 -0.0555  0.2894  1.9116
17706SOL    HW254560   3.516   4.396  11.273  0.4811  0.0194 -1.0384
17707SOL     OW54561   4.875   6.305   4.487  0.0290  0.1091  0.4593
17707SOL    HW154562   4.937   6.309   4.560 -0.1484 -1.1467  0.6993
17707SOL    HW254563   4.816   6.234   4.509  0.2590 -0.6239 -1.1267
17708SOL     OW54564   0.996   2.442  10.348  0.4370 -0.0844 -0.0917
17708SOL    HW154565   0.952   2.463  10.266  1.0762 -1.7285 -0.9093
17708SOL    HW254566   1.088   2.430  10.323  0.5714 -1.0063  0.7792
17709SOL     OW54567   2.924   0.773   0.165  0.0579 -0.2216 -0.0524
17709SOL    HW154568   3.003   0.722   0.186  0.9022  2.1907  3.3810
17709SOL    HW254569   2.853   0.725   0.208 -0.1419 -1.2770 -1.4377
17710SOL     OW54570   2.195   2.180  11.649  0.4349 -0.2186 -0.4305
17710SOL    HW154571   2.233   2.159  11.734  0.0481  0.4218 -0.0959
17710SOL    HW254572   2.150   2.100  11.623  0.7841 -0.5061 -0.1596
17711SOL     OW54573   2.586   4.858   7.313 -0.0464  0.1050  0.5635
17711SOL    HW154574   2.629   4.791   7.367  0.8454  0.0060 -0.2479
17711SOL    HW254575   2.524   4.901   7.373  0.4693 -0.4257  1.4955
17712SOL     OW54576   5.126   0.644   2.320 -0.3458 -0.1575 -0.1282
17712SOL    HW154577   5.152   0.586   2.391 -2.5612 -0.4168  0.5325
17712SOL    HW254578   5.167   0.728   2.341 -2.9250  0.5015  2.8956
17713SOL     OW54579   6.568   5.146   9.214 -0.2084  0.3499  0.3055
17713SOL    HW154580   6.604   5.224   9.171  1.3355 -0.4879 -0.0106
17713SOL    HW254581   6.588   5.074   9.154 -1.1154 -0.3675  0.8386
17714SOL     OW54582   7.894   1.329   2.995 -0.0041  0.4702 -0.5645
17714SOL    HW154583   7.842   1.329   2.914  0.7655  1.5573 -1.0821
17714SOL    HW254584   7.976   1.287   2.970  1.0407  2.6195 -0.9250
17715SOL     OW54585   0.621   3.605  11.586 -0.1674 -0.7243  0.2465
17715SOL    HW154586   0.563   3.681  11.583  0.5671 -0.1212  0.8076
17715SOL    HW254587   0.573   3.539  11.635  0.1439  0.2573  1.9489
17716SOL     OW54588   7.869   7.330  11.013  0.2124  0.0274  0.0454
17716SOL    HW154589   7.805   7.272  10.970 -0.3198  0.1088  0.7054
17716SOL    HW254590   7.866   7.411  10.961  0.8436 -0.4681 -0.7887
17717SOL     OW54591   2.954   6.370   3.817  0.1462 -0.2267 -0.2976
17717SOL    HW154592   3.025   6.333   3.765  0.2325  1.6141 -1.5798
17717SOL    HW254593   2.888   6.301   3.820  1.8503 -1.8917  0.7424
17718SOL     OW54594   1.867   0.601   1.407  0.4113  0.3206 -0.0319
17718SOL    HW154595   1.897   0.537   1.342 -1.3382  0.7061 -1.3141
17718SOL    HW254596   1.776   0.577   1.423 -0.3169  2.4549 -0.5660
17719SOL     OW54597   7.590   6.038  10.305  0.2112  0.1415 -0.3028
17719SOL    HW154598   7.520   6.027  10.240 -1.3281 -1.0555  1.4242
17719SOL    HW254599   7.662   5.985  10.271  0.0303  0.7655 -1.7568
17720SOL     OW54600   3.749   5.499   0.599 -0.0777  0.2956  0.0637
17720SOL    HW154601   3.794   5.564   0.653  0.7773 -0.3583  0.1563
17720SOL    HW254602   3.671   5.477   0.649  0.9288 -0.6426  1.2803
17721SOL     OW54603   7.101   0.750   1.120 -0.2814  0.2291  0.2465
17721SOL    HW154604   7.181   0.717   1.079 -1.0435 -1.4294  0.0398
17721SOL    HW254605   7.115   0.736   1.213 -0.4234 -0.3041  0.1916
17722SOL     OW54606   3.533   3.816   9.667  0.0227  0.3360  0.2060
17722SOL    HW154607   3.458   3.863   9.630  0.3262  2.3224  1.9381
17722SOL    HW254608   3.503   3.788   9.753  1.1737  1.0262  0.8591
17723SOL     OW54609   2.068   5.970   3.737 -0.2723  0.1735  0.0484
17723SOL    HW154610   2.007   5.997   3.806 -2.0496 -2.5416 -0.2841
17723SOL    HW254611   2.136   5.921   3.783 -1.3182 -1.4144 -0.0176
17724SOL     OW54612   2.502   7.929  11.721 -0.2449  0.0346 -0.2273
17724SOL    HW154613   2.513   7.869  11.795 -0.0309  0.0661 -0.2338
17724SOL    HW254614   2.408   7.949  11.720 -0.9769 -2.8323 -2.1371
17725SOL     OW54615   1.875   3.344   8.327  0.0691 -0.3897 -0.4003
17725SOL    HW154616   1.967   3.350   8.350  0.5429 -2.0709 -1.7307
17725SOL    HW254617   1.839   3.278   8.386 -0.4759  0.7020  0.5439
17726SOL     OW54618   4.398   1.314   9.006 -0.4496  0.2183  0.1512
17726SOL    HW154619   4.338   1.242   9.024 -2.7579  1.6757 -1.2316
17726SOL    HW254620   4.450   1.284   8.932  0.1186 -0.8279  0.9597
17727SOL     OW54621   3.024   6.328   8.561 -0.0204 -0.2555 -0.0995
17727SOL    HW154622   2.952   6.295   8.507  0.1738 -1.3899  0.3072
17727SOL    HW254623   3.095   6.265   8.547  0.9541  0.9302 -0.6063
17728SOL     OW54624   1.782   6.611   2.358  0.6955 -0.0768 -0.1214
17728SOL    HW154625   1.698   6.573   2.386  0.6572  0.9264  1.2607
17728SOL    HW254626   1.835   6.536   2.331 -1.2425 -0.5897 -2.8997
17729SOL     OW54627   5.068   7.029   5.513 -0.3017  0.7229  0.5015
17729SOL    HW154628   5.027   6.949   5.546  1.8809 -1.5668 -1.8645
17729SOL    HW254629   5.162   7.013   5.520  0.2283  2.1572 -1.9367
17730SOL     OW54630   7.195   5.528   4.779  0.2280  0.2084 -0.0140
17730SOL    HW154631   7.130   5.557   4.843 -1.8241 -0.3841 -1.7288
17730SOL    HW254632   7.193   5.595   4.711  0.5241 -0.4389 -0.6700
17731SOL     OW54633   2.857   7.268  10.044  0.3868  0.3423 -0.8394
17731SOL    HW154634   2.888   7.216   9.970 -1.2895 -2.2370  0.1022
17731SOL    HW254635   2.936   7.289  10.094  1.2881  0.1134 -2.1282
17732SOL     OW54636   6.711   0.302   7.534 -0.7246  0.0497  0.8508
17732SOL    HW154637   6.722   0.309   7.629 -0.2133 -1.1603  0.9003
17732SOL    HW254638   6.758   0.377   7.499 -0.4374  0.1978  1.5378
17733SOL     OW54639   5.380   1.031  11.167  0.0986 -0.2641 -0.0836
17733SOL    HW154640   5.475   1.034  11.183  0.0314 -0.0298  0.2695
17733SOL    HW254641   5.347   0.966  11.228  0.2934 -1.8216 -1.5528
17734SOL     OW54642   4.218   7.906   9.720 -0.2844 -0.0111 -0.0848
17734SOL    HW154643   4.161   7.981   9.729  0.9500  1.0004 -0.3976
17734SOL    HW254644   4.195   7.868   9.636 -0.3134  0.5463 -0.3321
17735SOL     OW54645   0.500   4.449   1.122  0.0056  0.8533 -0.2865
17735SOL    HW154646   0.421   4.405   1.089 -0.0828 -0.6320  1.7755
17735SOL    HW254647   0.573   4.398   1.088 -0.0537 -0.0029  0.8374
17736SOL     OW54648   7.709   1.864   8.210  0.5455 -0.1789 -0.1906
17736SOL    HW154649   7.721   1.935   8.274  1.0721  0.6844 -1.2272
17736SOL    HW254650   7.786   1.869   8.154 -0.5448 -0.0538 -1.7220
17737SOL     OW54651   2.663   4.897   5.564  0.2499  0.1720 -0.0907
17737SOL    HW154652   2.683   4.822   5.508 -0.3550 -0.6671  0.7927
17737SOL    HW254653   2.680   4.865   5.653 -0.2196  1.0225  0.3108
17738SOL     OW54654   0.953   4.202   1.481 -0.1590  0.2166  0.0028
17738SOL    HW154655   0.975   4.204   1.574  0.4887  0.0089 -0.1402
17738SOL    HW254656   0.912   4.116   1.468  1.1154 -0.3828 -0.1916
17739SOL     OW54657   7.976   7.208   1.904 -0.1006 -0.6334 -0.1267
17739SOL    HW154658   7.979   7.223   1.810  0.2856 -2.0488 -0.3673
17739SOL    HW254659   8.068   7.205   1.930 -0.2141  0.2698  0.3878
17740SOL     OW54660   1.875   3.142   2.604 -0.0626 -0.0217  0.0887
17740SOL    HW154661   1.929   3.063   2.599 -0.9162 -0.6190  0.0509
17740SOL    HW254662   1.823   3.130   2.684 -1.2669 -0.2114 -0.6908
17741SOL     OW54663   6.842   6.326   3.612  0.2308 -0.6302  0.0607
17741SOL    HW154664   6.861   6.289   3.698 -1.1027  0.2078  0.7497
17741SOL    HW254665   6.760   6.284   3.585 -0.6019  0.7910  0.2767
17742SOL     OW54666   3.773   1.147   2.959 -0.0900  0.0686  0.3992
17742SOL    HW154667   3.805   1.231   2.993 -1.0805  0.7452 -0.2740
17742SOL    HW254668   3.760   1.093   3.037  1.6228  0.1350  0.7584
17743SOL     OW54669   6.456   4.040   5.047  0.1073  0.3095 -0.1795
17743SOL    HW154670   6.433   4.102   5.116  1.5236 -0.7928  1.3473
17743SOL    HW254671   6.480   3.960   5.093  2.0254 -0.1814 -1.8793
17744SOL     OW54672   6.753   5.530   9.098  0.0185  0.4791  0.0122
17744SOL    HW154673   6.751   5.446   9.052 -3.1370  0.8089 -0.6861
17744SOL    HW254674   6.742   5.596   9.030  1.2585  1.4296  0.6875
17745SOL     OW54675   5.213   5.050  10.581 -0.3326 -0.3078 -0.6225
17745SOL    HW154676   5.208   5.115  10.511 -0.1956  0.9036  0.4642
17745SOL    HW254677   5.306   5.032  10.591 -0.1417  1.1228  0.6297
17746SOL     OW54678   2.870   4.482   7.525 -0.1665 -0.0605 -0.1616
17746SOL    HW154679   2.936   4.413   7.537 -0.5944 -0.2150  1.6738
17746SOL    HW254680   2.823   4.457   7.446  0.7651 -0.9619 -0.4555
17747SOL     OW54681   0.630   6.938   4.038  0.2370 -0.5403 -0.4000
17747SOL    HW154682   0.668   6.912   4.122 -0.6666 -0.1423  0.1428
17747SOL    HW254683   0.585   6.860   4.006 -0.1863 -0.4370 -0.0691
17748SOL     OW54684   6.804   1.302   7.657  0.5808 -0.0149  0.1539
17748SOL    HW154685   6.826   1.393   7.639  1.6735 -0.4002 -0.5793
17748SOL    HW254686   6.889   1.258   7.667  0.2542 -1.5959 -2.8910
17749SOL     OW54687   7.780   2.496  10.539 -0.4304  0.0923 -0.2250
17749SOL    HW154688   7.717   2.517  10.608  0.6599 -1.6096  1.3765
17749SOL    HW254689   7.813   2.409  10.562  1.3948  0.2965 -1.8219
17750SOL     OW54690   2.390   3.983  11.202  0.0397  0.2667 -0.0961
17750SOL    HW154691   2.333   3.938  11.263  0.4557  0.7893  0.7009
17750SOL    HW254692   2.363   3.952  11.116 -0.6127 -0.4181  0.3454
17751SOL     OW54693   6.682   0.695   1.254  0.4401  0.3694 -0.0150
17751SOL    HW154694   6.714   0.740   1.332  3.1125  1.0646 -1.3939
17751SOL    HW254695   6.722   0.608   1.258 -0.8517 -0.2354  0.2467
17752SOL     OW54696   5.799   1.372   8.784 -0.1509 -0.4937  0.0997
17752SOL    HW154697   5.881   1.361   8.736 -0.3822  1.0013 -0.6972
17752SOL    HW254698   5.825   1.408   8.869  0.1519 -1.9277  0.6448
17753SOL     OW54699   7.841   6.921   8.063 -0.5356 -0.4975 -0.0008
17753SOL    HW154700   7.769   6.969   8.022 -0.5492 -0.4490  0.0798
17753SOL    HW254701   7.803   6.885   8.143 -1.3185 -2.9313 -1.3617
17754SOL     OW54702   6.439   2.977   9.829  0.3589 -0.1247  0.3381
17754SOL    HW154703   6.426   2.993   9.735  0.5699 -1.4898  0.0580
17754SOL    HW254704   6.445   2.882   9.837  1.6789  0.0341  1.5707
17755SOL     OW54705   4.651   6.923  10.140 -0.0737  0.2174  0.3386
17755SOL    HW154706   4.681   6.842  10.182  0.4964 -0.4662 -1.3018
17755SOL    HW254707   4.596   6.965  10.206 -0.2765 -1.4403  1.2879
17756SOL     OW54708   5.912   2.622   8.883  0.0546 -0.2004  0.5138
17756SOL    HW154709   5.959   2.539   8.884  0.5771  0.0948  0.8594
17756SOL    HW254710   5.954   2.675   8.951  0.9194  0.9955 -0.8860
17757SOL     OW54711   6.846   1.797   6.078 -0.4443  0.3993 -0.5856
17757SOL    HW154712   6.793   1.859   6.127  1.8344  1.5954  0.5238
17757SOL    HW254713   6.934   1.807   6.113  0.4132 -2.0768 -1.7479
17758SOL     OW54714   3.165   4.939   4.929  0.1401  0.3557  0.0482
17758SOL    HW154715   3.207   4.866   4.974 -0.4497 -1.2639 -1.8668
17758SOL    HW254716   3.225   4.959   4.857 -2.1788 -2.0696 -2.8128
17759SOL     OW54717   2.632   3.128   0.605 -0.7705  0.1516  0.8785
17759SOL    HW154718   2.667   3.216   0.594 -0.6916  0.3606  2.5625
17759SOL    HW254719   2.570   3.135   0.678 -2.6207 -0.6934 -0.5184
17760SOL     OW54720   6.124   1.060   1.564 -0.3513  0.2786  0.3273
17760SOL    HW154721   6.036   1.084   1.591 -1.0270 -0.8475 -0.7754
17760SOL    HW254722   6.113   1.021   1.477  1.5185  2.4691 -1.0262
17761SOL     OW54723   0.241   4.350  10.934  0.0882 -0.0993 -0.2163
17761SOL    HW154724   0.321   4.344  10.882  0.3296  0.0139  0.1445
17761SOL    HW254725   0.189   4.417  10.890  0.0577 -0.3805 -0.6247
17762SOL     OW54726   7.002   5.085   4.534 -0.5217  0.5238 -0.1020
17762SOL    HW154727   7.018   4.990   4.532 -1.7791  0.2388  1.5739
17762SOL    HW254728   7.040   5.114   4.616 -0.8967  1.3354 -0.2060
17763SOL     OW54729   0.753   7.336   5.894  0.4363 -0.2314  0.3989
17763SOL    HW154730   0.672   7.286   5.891  0.8239 -0.8523 -2.0253
17763SOL    HW254731   0.780   7.333   5.986 -0.8591 -2.3627  0.7738
17764SOL     OW54732   0.214   7.956   4.358 -0.0366 -0.2092  0.0096
17764SOL    HW154733   0.199   7.900   4.434  1.4759 -0.2085  0.3401
17764SOL    HW254734   0.199   7.898   4.283 -0.1630 -0.5939  0.3268
17765SOL     OW54735   0.016   4.436   3.106  0.1854 -0.2264 -0.2250
17765SOL    HW154736   0.091   4.405   3.157 -0.1149  2.2228  1.8479
17765SOL    HW254737  -0.059   4.390   3.143  0.2184  0.0426  0.1796
17766SOL     OW54738   0.209   3.291   3.960  0.4506 -0.3702  0.0987
17766SOL    HW154739   0.137   3.230   3.979 -0.5317  0.3081 -1.2274
17766SOL    HW254740   0.178   3.375   3.992  2.2437 -0.6626  2.9049
17767SOL     OW54741   6.174   4.170  10.061  0.4962  0.3736 -0.6598
17767SOL    HW154742   6.079   4.166  10.048  0.5303 -0.1981 -0.7448
17767SOL    HW254743   6.185   4.166  10.155  0.5019 -1.3542 -0.6990
17768SOL     OW54744   1.746   0.611   5.458 -0.3378 -0.4480  0.0254
17768SOL    HW154745   1.750   0.526   5.414 -0.7151  0.3343 -1.6067
17768SOL    HW254746   1.777   0.673   5.392  1.0375  0.5706  1.5624
17769SOL     OW54747   7.363   1.076   2.086  0.0969  0.6197  0.4318
17769SOL    HW154748   7.319   1.144   2.035 -0.7705  1.4431  2.1971
17769SOL    HW254749   7.328   0.994   2.051  2.7563  0.7897 -3.2330
17770SOL     OW54750   6.778   5.505   3.577  0.2498  0.2288  0.0369
17770SOL    HW154751   6.778   5.414   3.606 -0.1402  0.0732 -0.4369
17770SOL    HW254752   6.818   5.554   3.649 -0.9001 -0.1212  0.9366
17771SOL     OW54753   4.057   0.652   9.124 -0.0822 -0.2083  0.0611
17771SOL    HW154754   4.111   0.573   9.130 -2.0262 -1.6017  0.3963
17771SOL    HW254755   3.967   0.619   9.132 -0.8914  2.2999  2.8635
17772SOL     OW54756   3.665   6.464   8.577  0.1599 -0.2570  0.2720
17772SOL    HW154757   3.711   6.423   8.504  0.6961  1.0536 -0.1522
17772SOL    HW254758   3.734   6.498   8.633 -0.2480  1.1784 -0.0523
17773SOL     OW54759   7.805   0.891   1.580  0.5910  0.2696 -0.3986
17773SOL    HW154760   7.752   0.876   1.658 -0.1457 -1.5540 -1.1824
17773SOL    HW254761   7.881   0.940   1.611 -0.1256  0.3713  1.2898
17774SOL     OW54762   3.727   5.391  10.493 -0.4761 -0.2078 -0.1659
17774SOL    HW154763   3.790   5.424  10.430 -0.1901 -1.0779 -0.3544
17774SOL    HW254764   3.670   5.334  10.442 -1.1426  0.2261  0.0899
17775SOL     OW54765   5.881   3.181   6.361  0.4286  0.6279 -0.1634
17775SOL    HW154766   5.824   3.181   6.283 -1.0536  0.2422  0.8700
17775SOL    HW254767   5.931   3.100   6.354 -1.9353 -1.0372  0.7702
17776SOL     OW54768   6.754   0.169   2.585  0.5251 -0.1467 -0.6108
17776SOL    HW154769   6.837   0.179   2.539  1.7050 -1.6782  1.0575
17776SOL    HW254770   6.742   0.252   2.632  0.7782  0.3104 -1.3362
17777SOL     OW54771   6.405   1.382   0.036 -0.6772  0.0766  0.0767
17777SOL    HW154772   6.409   1.423  -0.050  0.8245  0.3764  0.2692
17777SOL    HW254773   6.425   1.453   0.097 -1.1579 -0.2618  0.6372
17778SOL     OW54774   6.698   0.457  11.755 -0.0627  0.1514  0.0577
17778SOL    HW154775   6.756   0.487  11.824 -0.4742  2.1792 -0.4273
17778SOL    HW254776   6.722   0.509  11.678  0.1025 -1.7455 -1.2505
17779SOL     OW54777   7.971   0.302   1.743  0.1316  0.2810 -0.6193
17779SOL    HW154778   7.894   0.356   1.729 -0.0285 -0.0479 -1.0242
17779SOL    HW254779   7.943   0.234   1.803  0.7830  1.6151  1.2897
17780SOL     OW54780   6.041   7.350   2.057  0.1187 -0.3157 -0.4188
17780SOL    HW154781   5.974   7.356   2.125  1.3236  0.3395  0.7439
17780SOL    HW254782   6.094   7.429   2.069 -0.5134  0.6333 -3.0895
17781SOL     OW54783   2.620   6.412   7.990 -0.0609 -0.5912  0.1388
17781SOL    HW154784   2.665   6.417   7.906 -1.6179 -1.1696 -0.7740
17781SOL    HW254785   2.575   6.496   7.998 -0.4723 -0.8009  0.0559
17782SOL     OW54786   0.227   7.574   5.760 -0.1651 -0.6638 -0.0016
17782SOL    HW154787   0.175   7.644   5.799  0.3008 -0.7246  0.7528
17782SOL    HW254788   0.300   7.619   5.718 -0.3719 -0.6325 -0.3241
17783SOL     OW54789   0.851   0.265   8.675 -0.2247 -0.2071 -0.1401
17783SOL    HW154790   0.765   0.223   8.680 -1.2326  1.5864 -1.3083
17783SOL    HW254791   0.836   0.354   8.708  1.1464  0.2001 -0.5530
17784SOL     OW54792   2.079   3.721   5.513 -0.0559  0.8790 -0.1483
17784SOL    HW154793   2.153   3.718   5.451  1.1497 -0.4555  1.2836
17784SOL    HW254794   2.073   3.813   5.537 -0.0788  1.3120 -1.6626
17785SOL     OW54795   1.081   4.695   9.013  0.2134 -0.0995 -0.1618
17785SOL    HW154796   1.047   4.689   9.102  0.1751  1.2075 -0.0656
17785SOL    HW254797   1.014   4.653   8.959 -1.5350  2.2056  0.0530
17786SOL     OW54798   7.766   6.544   2.991  0.0162 -0.2525  0.0072
17786SOL    HW154799   7.834   6.483   2.961 -0.4455 -0.9538  0.3639
17786SOL    HW254800   7.758   6.527   3.085  0.7211  1.2062  0.3576
17787SOL     OW54801   4.224   3.004   0.901 -0.3655 -0.3799  0.2337
17787SOL    HW154802   4.157   3.066   0.929  0.3922  0.4901  0.1704
17787SOL    HW254803   4.178   2.921   0.892 -1.2722  0.0362  0.9237
17788SOL     OW54804   3.914   2.580  10.513 -0.1357 -0.1953 -0.2902
17788SOL    HW154805   3.914   2.498  10.562  0.1981  0.1534  0.3140
17788SOL    HW254806   3.865   2.641  10.568  0.9896  0.4402  0.0467
17789SOL     OW54807   7.116   7.551   3.681 -0.2870  0.8115 -0.3624
17789SOL    HW154808   7.054   7.483   3.709 -1.2645  1.8159  0.0012
17789SOL    HW254809   7.202   7.508   3.684 -0.8530 -0.3406  0.0490
17790SOL     OW54810   0.657   1.563   6.783  0.5581  0.3020 -0.0860
17790SOL    HW154811   0.637   1.475   6.750  1.1926  0.8941 -2.2146
17790SOL    HW254812   0.660   1.552   6.878 -2.1847 -1.3602 -0.0743
17791SOL     OW54813   5.589   7.434   1.733 -0.1007  0.3268  0.0032
17791SOL    HW154814   5.654   7.409   1.668 -1.3712  1.6038 -1.8703
17791SOL    HW254815   5.505   7.408   1.694 -0.9654  1.9429  0.6753
17792SOL     OW54816   3.907   4.256   2.287 -0.4669  0.2428  0.1980
17792SOL    HW154817   3.816   4.276   2.308 -0.6475 -1.1903  0.8948
17792SOL    HW254818   3.953   4.339   2.301 -1.8107  1.3132 -1.2959
17793SOL     OW54819   0.410   4.526   8.618  0.3365 -0.0033  0.9156
17793SOL    HW154820   0.421   4.437   8.649 -0.5647 -0.0340  1.1733
17793SOL    HW254821   0.350   4.567   8.681  0.6777  0.7614  0.7634
17794SOL     OW54822   6.936   7.695  12.351  0.2140 -0.4557  0.4118
17794SOL    HW154823   6.944   7.643  12.431  2.2495 -1.6713 -0.5113
17794SOL    HW254824   6.966   7.637  12.282  1.3142  1.5038 -0.8551
17795SOL     OW54825   0.219   4.936   4.718 -0.1176  0.3719 -0.1008
17795SOL    HW154826   0.233   4.847   4.752 -1.5488 -0.4108 -1.4377
17795SOL    HW254827   0.295   4.953   4.663  1.7873  1.3055  2.6077
17796SOL     OW54828   0.817   4.956   0.918 -0.0887 -0.0530  0.0864
17796SOL    HW154829   0.838   4.886   0.980 -0.8100 -0.2753  0.0979
17796SOL    HW254830   0.783   4.909   0.841 -2.2392  0.3056  0.7404
17797SOL     OW54831   7.345   4.445   1.482  0.2888 -0.8188 -0.0425
17797SOL    HW154832   7.261   4.475   1.448  0.8693 -0.7054 -1.4889
17797SOL    HW254833   7.326   4.408   1.567 -0.8225  1.6597  0.8816
17798SOL     OW54834   1.239   5.075  11.482 -0.4421  1.0288  0.4636
17798SOL    HW154835   1.325   5.098  11.515 -0.1926  2.9238 -1.3286
17798SOL    HW254836   1.209   5.152  11.434 -3.3648  0.6247  1.3848
17799SOL     OW54837   6.074   5.778   0.536 -0.4163  0.7002  0.5518
17799SOL    HW154838   6.096   5.823   0.617  3.1255 -0.9882  0.7026
17799SOL    HW254839   6.085   5.845   0.468  1.2413  1.0219  1.0935
17800SOL     OW54840   7.019   5.920   6.070 -0.0505  0.1225 -0.3095
17800SOL    HW154841   7.003   5.858   5.999  1.7872 -1.2825  0.4041
17800SOL    HW254842   6.947   5.906   6.132  0.7447 -1.9682  0.2204
17801SOL     OW54843   6.307   7.588   9.291  0.0623 -0.3469  0.4794
17801SOL    HW154844   6.361   7.518   9.255  0.7868  0.0985  0.6756
17801SOL    HW254845   6.231   7.592   9.234  2.5331  2.3853 -3.0762
17802SOL     OW54846   4.405   1.762  10.266 -0.5809  0.3492  0.1078
17802SOL    HW154847   4.481   1.740  10.213 -0.5651  0.1619  0.2099
17802SOL    HW254848   4.417   1.855  10.286  0.4645 -0.0377  1.4728
17803SOL     OW54849   2.399   0.555  10.023 -0.0192 -0.4236 -0.1077
17803SOL    HW154850   2.353   0.633   9.993  1.4815  1.0679  1.2586
17803SOL    HW254851   2.369   0.542  10.113  0.5162 -0.7812  0.0234
17804SOL     OW54852   3.233   2.225   6.823 -0.0280 -0.5069  0.2185
17804SOL    HW154853   3.255   2.222   6.916 -1.8915 -1.4517  0.6806
17804SOL    HW254854   3.138   2.212   6.820 -0.7132  3.4893 -1.5763
17805SOL     OW54855   4.196   6.053   5.324 -0.0419 -0.5068  0.0179
17805SOL    HW154856   4.138   6.125   5.301 -0.7373 -0.7020  1.0407
17805SOL    HW254857   4.137   5.984   5.355  0.4976 -2.0620 -2.2213
17806SOL     OW54858   6.626   2.078   8.273 -0.1219  0.6657  0.3777
17806SOL    HW154859   6.669   2.124   8.345  0.4850 -1.1198  1.1896
17806SOL    HW254860   6.595   1.996   8.311 -1.1165  0.3329 -1.0526
17807SOL     OW54861   7.206   4.228   4.687 -0.4089 -0.0842 -0.4163
17807SOL    HW154862   7.135   4.271   4.736 -0.6883  1.3738 -2.0219
17807SOL    HW254863   7.168   4.210   4.601  0.6540 -0.9182 -0.7317
17808SOL     OW54864   6.681   4.734   7.147  0.3173 -0.1672 -0.5525
17808SOL    HW154865   6.738   4.659   7.166  0.0915 -0.4535 -0.9844
17808SOL    HW254866   6.616   4.699   7.086  0.1223  0.3482 -0.6402
17809SOL     OW54867   0.999   2.626  10.093  0.0999 -0.6744 -0.0630
17809SOL    HW154868   1.066   2.691  10.114 -0.6645  0.2468 -0.3556
17809SOL    HW254869   0.952   2.664  10.018 -0.8312 -1.2238  0.2243
17810SOL     OW54870   2.502   1.824   4.637  0.0095 -0.4840 -0.5914
17810SOL    HW154871   2.513   1.899   4.578 -1.3636 -0.0983 -0.3999
17810SOL    HW254872   2.462   1.862   4.715  0.6794 -1.1922  0.1117
17811SOL     OW54873   2.077   4.024  11.802 -0.2305 -0.1376 -0.0481
17811SOL    HW154874   1.988   4.041  11.835  0.0267  1.0604  0.0486
17811SOL    HW254875   2.110   3.955  11.860  0.2978  2.0724  2.4408
17812SOL     OW54876   6.668   3.217  11.199  0.8638 -0.1166 -0.0429
17812SOL    HW154877   6.634   3.132  11.171  3.1014 -0.6677 -1.3538
17812SOL    HW254878   6.753   3.223  11.156  0.7789  2.7993  0.0422
17813SOL     OW54879   0.733   2.598   5.434 -0.2637  0.1760 -0.0285
17813SOL    HW154880   0.772   2.628   5.352  0.3940 -1.5469 -0.3909
17813SOL    HW254881   0.800   2.615   5.500 -0.3291  0.4883 -0.0405
17814SOL     OW54882   0.772   5.249   5.442  0.5150 -0.0886  0.4774
17814SOL    HW154883   0.777   5.301   5.522 -0.0481  0.7583 -0.0198
17814SOL    HW254884   0.849   5.192   5.445  1.0888  0.7053  1.0886
17815SOL     OW54885   2.624   1.763   0.160 -0.1478 -0.6566  0.8422
17815SOL    HW154886   2.719   1.777   0.165 -0.4177  1.2028  1.8720
17815SOL    HW254887   2.601   1.790   0.071  0.1698 -0.1391  0.9089
17816SOL     OW54888   3.913   4.194   6.909 -0.0639  0.1186  0.1660
17816SOL    HW154889   3.832   4.231   6.874 -0.3110 -0.8979 -0.3745
17816SOL    HW254890   3.955   4.153   6.833  0.4718 -0.2048  0.6342
17817SOL     OW54891   5.068   2.111   7.931 -0.3882 -0.4206 -0.2149
17817SOL    HW154892   5.158   2.107   7.965 -0.3407 -0.3070 -0.3278
17817SOL    HW254893   5.013   2.108   8.009 -0.3207 -1.8185 -0.1922
17818SOL     OW54894   4.227   1.861   0.322  0.2155 -0.2291 -0.0567
17818SOL    HW154895   4.191   1.781   0.282 -0.0791  0.2129 -0.6921
17818SOL    HW254896   4.268   1.908   0.249 -1.2187  1.0826 -0.0768
17819SOL     OW54897   7.421   2.722  12.277  0.2651  0.3584 -0.0408
17819SOL    HW154898   7.363   2.679  12.340 -0.5823  0.8252 -0.4851
17819SOL    HW254899   7.362   2.767  12.217  1.0500 -0.2209 -1.2820
17820SOL     OW54900   1.862   2.943   4.480 -0.5107 -0.1642 -0.5360
17820SOL    HW154901   1.805   2.947   4.557 -0.2336  0.5356 -0.3600
17820SOL    HW254902   1.937   2.998   4.504 -0.7490  0.6289 -1.5792
17821SOL     OW54903   1.000   5.102   5.132 -0.2374 -0.0094  0.4464
17821SOL    HW154904   1.059   5.122   5.205 -0.8802  0.9607  0.7182
17821SOL    HW254905   0.957   5.185   5.112  0.7456  0.0508 -1.8065
17822SOL     OW54906   0.665   0.181   7.585 -0.2125  0.0879  0.2008
17822SOL    HW154907   0.721   0.186   7.507 -1.4765 -0.7731 -0.8198
17822SOL    HW254908   0.578   0.207   7.553 -0.7981 -0.5018  1.2727
17823SOL     OW54909   1.302   3.960   3.314  0.6250  0.0637  0.5854
17823SOL    HW154910   1.346   3.992   3.236  0.8508  0.2396  0.7827
17823SOL    HW254911   1.333   4.017   3.384 -0.0757  0.3255  0.6886
17824SOL     OW54912   3.355   2.873  12.324 -0.1258 -0.0210 -0.0538
17824SOL    HW154913   3.406   2.847  12.248  1.6678  1.1522  0.6680
17824SOL    HW254914   3.376   2.966  12.336  1.1087 -0.5585  2.8865
17825SOL     OW54915   7.116   6.741   2.246  0.9157  0.3247 -0.3585
17825SOL    HW154916   7.129   6.807   2.177 -1.7579  3.0046  1.4823
17825SOL    HW254917   7.205   6.723   2.278  1.9947  0.8122 -2.8009
17826SOL     OW54918   1.500   1.786  10.481 -0.6380  0.8823 -0.1843
17826SOL    HW154919   1.509   1.838  10.401 -0.2836 -0.7698 -1.2655
17826SOL    HW254920   1.481   1.698  10.451 -2.1477  0.5241  1.6233
17827SOL     OW54921   4.919   1.155   3.584  0.4091  0.3676 -0.1844
17827SOL    HW154922   4.838   1.148   3.534  0.4834  0.5228 -0.3267
17827SOL    HW254923   4.900   1.219   3.653  0.6087  0.8993 -0.6128
17828SOL     OW54924   5.359   0.952   6.788  0.0663 -0.1041 -0.2636
17828SOL    HW154925   5.383   0.891   6.858 -2.3857  0.3176  1.0658
17828SOL    HW254926   5.270   0.926   6.764 -0.4086  1.9039 -0.8405
17829SOL     OW54927   0.064   4.544   1.957  0.7886 -0.7568 -0.2365
17829SOL    HW154928   0.005   4.505   1.893  0.5070 -0.6631 -0.0379
17829SOL    HW254929   0.053   4.491   2.036  0.7053 -0.5312 -0.0923
17830SOL     OW54930   3.349   3.700   7.462 -0.5544 -0.2816 -0.0633
17830SOL    HW154931   3.294   3.762   7.510 -2.0960 -0.8305 -1.0652
17830SOL    HW254932   3.341   3.618   7.511 -0.2452 -0.2519  0.0424
17831SOL     OW54933   0.823   1.698   2.673  0.2342  0.5244  0.2864
17831SOL    HW154934   0.799   1.748   2.595 -0.3026 -0.7978 -0.4320
17831SOL    HW254935   0.918   1.691   2.669  0.2588  0.9709  0.0649
17832SOL     OW54936   7.962   0.370   8.580  0.0024 -0.1543  0.3682
17832SOL    HW154937   7.970   0.402   8.669  3.1044  1.3605 -0.3092
17832SOL    HW254938   7.975   0.275   8.587  2.5781  0.1770  1.4133
17833SOL     OW54939   1.581   6.967   4.353 -0.8694 -0.3836 -0.2484
17833SOL    HW154940   1.654   7.017   4.389  1.2293 -1.9037 -2.1670
17833SOL    HW254941   1.507   7.028   4.356  0.4778  1.2909  1.5594
17834SOL     OW54942   7.015   0.178   6.081 -0.0592 -0.1273  0.2844
17834SOL    HW154943   6.922   0.175   6.061  0.4312 -0.5450 -2.3417
17834SOL    HW254944   7.020   0.216   6.169 -2.6474  0.6283  0.1809
17835SOL     OW54945   5.940   6.849   6.233 -0.0421  0.4971 -0.0945
17835SOL    HW154946   5.929   6.868   6.140  2.6529  2.0604 -0.1900
17835SOL    HW254947   5.859   6.879   6.274 -1.4012 -0.5199 -1.9192
17836SOL     OW54948   3.196   1.202   7.257  0.0152 -0.0709 -0.0807
17836SOL    HW154949   3.162   1.124   7.302  0.1294 -0.2140 -0.2459
17836SOL    HW254950   3.141   1.211   7.180  0.5442 -0.4763 -0.5087
17837SOL     OW54951   1.531   2.942   9.740 -0.2957 -0.1094 -0.2743
17837SOL    HW154952   1.460   3.002   9.721 -0.0116  0.2210 -0.3101
17837SOL    HW254953   1.517   2.918   9.832  0.6355  1.4841  0.3353
17838SOL     OW54954   2.605   7.658   4.802  0.5565 -0.2480 -0.2217
17838SOL    HW154955   2.650   7.732   4.843  0.1431  0.5530 -1.1635
17838SOL    HW254956   2.578   7.603   4.875  0.8651  0.5332  0.5029
17839SOL     OW54957   7.352   4.909  10.288 -0.1297  0.3756 -0.1551
17839SOL    HW154958   7.333   5.000  10.310 -1.2034 -0.3031  1.9218
17839SOL    HW254959   7.444   4.897  10.312  0.0764  0.9507 -0.6423
17840SOL     OW54960   1.471   6.927   9.356 -0.0905 -0.1422 -0.0940
17840SOL    HW154961   1.515   6.888   9.280 -0.0737 -1.1014  0.3921
17840SOL    HW254962   1.529   6.908   9.430  0.0657  1.0874  0.1264
17841SOL     OW54963   4.149   1.088   9.960 -0.1616  0.2626  0.4459
17841SOL    HW154964   4.081   1.153   9.941  1.2559  1.4460 -0.9796
17841SOL    HW254965   4.229   1.141   9.971  0.6525 -1.1168  1.3591
17842SOL     OW54966   2.842   7.301   1.755  0.1107  0.4845  0.2937
17842SOL    HW154967   2.778   7.369   1.773 -2.0043 -1.4261  0.4218
17842SOL    HW254968   2.841   7.246   1.833 -0.3475 -1.2430 -0.8809
17843SOL     OW54969   3.897   3.918   2.170  0.2247 -0.0485 -0.2971
17843SOL    HW154970   3.928   3.882   2.086  0.2799 -0.1677 -0.2264
17843SOL    HW254971   3.844   3.848   2.208 -2.0269  0.9524 -1.4389
17844SOL     OW54972   4.568   7.370   4.262  0.3671 -0.2474 -0.7373
17844SOL    HW154973   4.564   7.427   4.339 -0.8204 -0.1006 -0.8963
17844SOL    HW254974   4.588   7.430   4.190 -3.1011  0.4503 -1.2956
17845SOL     OW54975   3.509   4.955   7.031 -0.2632  0.7548  0.2140
17845SOL    HW154976   3.598   4.942   6.997 -0.4316  1.6176 -0.6105
17845SOL    HW254977   3.508   4.910   7.115  0.4866 -0.6045 -0.4684
17846SOL     OW54978   1.961   3.814   9.150 -0.8490  0.4535  0.5819
17846SOL    HW154979   1.960   3.867   9.230  1.7798  0.0531  0.9639
17846SOL    HW254980   1.908   3.737   9.171 -0.8678  0.7445  1.6304
17847SOL     OW54981   3.361   4.644   6.540  0.3487 -0.0333  0.6000
17847SOL    HW154982   3.297   4.588   6.494  0.5685 -0.4485  0.7925
17847SOL    HW254983   3.344   4.732   6.507  0.5377 -0.3318 -0.3238
17848SOL     OW54984   4.640   6.686   2.350 -0.1647  0.0971 -0.4126
17848SOL    HW154985   4.702   6.704   2.280 -1.0493  2.3402 -0.6969
17848SOL    HW254986   4.571   6.633   2.309  0.9267 -1.4601 -0.3534
17849SOL     OW54987   0.729   5.319   3.481  0.5722 -0.6225  0.0076
17849SOL    HW154988   0.800   5.372   3.444 -0.2559  0.9694  0.5670
17849SOL    HW254989   0.764   5.231   3.487  2.4767  0.1082  0.2185
17850SOL     OW54990   1.387   5.678  12.139  0.1537  0.0076 -0.5709
17850SOL    HW154991   1.314   5.678  12.201  0.0674 -0.2690 -0.6708
17850SOL    HW254992   1.395   5.587  12.111  0.7624 -0.0289 -0.3006
17851SOL     OW54993   2.970   4.438   2.037  0.1607 -0.0111  0.0950
17851SOL    HW154994   2.910   4.374   2.075  0.1964 -0.3945 -0.4750
17851SOL    HW254995   2.980   4.506   2.104 -0.0570 -0.4906  0.6150
17852SOL     OW54996   3.232   0.821   8.710 -0.3251  0.1095  0.0582
17852SOL    HW154997   3.232   0.744   8.767 -1.4023 -2.3793 -2.9633
17852SOL    HW254998   3.320   0.823   8.672 -1.3313 -2.2598 -2.7994
17853SOL     OW54999   6.080   2.440  11.104  0.2808 -0.1015 -0.0412
17853SOL    HW155000   6.082   2.535  11.116 -1.6069 -0.3023  2.8100
17853SOL    HW255001   6.155   2.421  11.048 -0.6887  3.2806 -2.8028
17854SOL     OW55002   6.873   0.747  10.976  0.4038 -0.0425  0.4311
17854SOL    HW155003   6.871   0.842  10.991  1.0957 -0.1018  0.9086
17854SOL    HW255004   6.802   0.732  10.914  0.2355  0.7808  0.4091
17855SOL     OW55005   1.464   5.149   4.900 -0.8363 -0.1448 -0.0112
17855SOL    HW155006   1.442   5.084   4.832  0.9304 -0.4619 -0.3309
17855SOL    HW255007   1.429   5.111   4.981 -1.1732 -0.7620 -0.4316
17856SOL     OW55008   7.641   7.679   2.491  0.2849  0.5671 -0.3467
17856SOL    HW155009   7.593   7.742   2.544  1.4934  0.3455  1.0900
17856SOL    HW255010   7.620   7.594   2.530  1.8610  0.4731  0.3939
17857SOL     OW55011   2.464   0.618  11.747 -0.4037  0.1189 -0.3169
17857SOL    HW155012   2.451   0.667  11.828  0.9296 -1.1058  0.6951
17857SOL    HW255013   2.556   0.593  11.749 -0.4454 -0.2753 -2.0360
17858SOL     OW55014   1.000   7.892   5.218 -0.3880 -0.0376  0.2237
17858SOL    HW155015   1.084   7.847   5.232 -0.8283 -0.4800  1.6192
17858SOL    HW255016   1.013   7.980   5.255  0.0646  0.5726 -1.3385
17859SOL     OW55017   4.893   7.203   5.334  0.4075  0.0887  0.3019
17859SOL    HW155018   4.891   7.107   5.331 -2.3940  0.0509 -0.1355
17859SOL    HW255019   4.808   7.226   5.372  1.4105  2.4049  1.2708
17860SOL     OW55020   0.905   4.704   5.106  0.2285  0.1875  0.1666
17860SOL    HW155021   0.981   4.681   5.053  0.2129 -1.0471  0.6388
17860SOL    HW255022   0.834   4.718   5.043  0.5668  0.1891 -0.2130
17861SOL     OW55023   5.844   7.008   8.637 -0.2233 -0.0986  0.8500
17861SOL    HW155024   5.797   6.927   8.657  0.7837 -0.6308  1.1296
17861SOL    HW255025   5.934   6.990   8.662 -0.0153  1.1800  1.0783
17862SOL     OW55026   2.086   0.946  11.988  0.2100  0.1468 -0.1789
17862SOL    HW155027   2.027   0.926  11.915  0.9546  0.5100 -0.9022
17862SOL    HW255028   2.106   1.039  11.977 -0.0291  0.3234  0.7707
17863SOL     OW55029   4.564   4.214   6.187 -0.1993  0.0672  0.1602
17863SOL    HW155030   4.553   4.302   6.222  0.1501  0.1460  0.0723
17863SOL    HW255031   4.659   4.201   6.183 -0.2487 -0.8545  1.5278
17864SOL     OW55032   1.263   0.098  12.079  0.3003 -0.0791 -0.1213
17864SOL    HW155033   1.281   0.187  12.048  1.8628 -0.2596  0.1713
17864SOL    HW255034   1.276   0.042  12.003 -2.1998  0.0222 -0.7175
17865SOL     OW55035   0.049   4.542   3.400 -0.6913 -0.2566  0.3891
17865SOL    HW155036   0.060   4.633   3.369 -1.2722  0.0238  0.9873
17865SOL    HW255037  -0.039   4.518   3.371  0.0463 -1.2308 -1.2241
17866SOL     OW55038   7.533   4.491  12.120  0.4290 -0.1246  0.0184
17866SOL    HW155039   7.595   4.424  12.089 -0.3952 -0.9791  0.1523
17866SOL    HW255040   7.502   4.534  12.041 -1.0832 -1.7722 -0.3441
17867SOL     OW55041   1.858   7.591   3.666  0.5013  0.3571 -0.0162
17867SOL    HW155042   1.899   7.676   3.682  0.3003  0.6026 -0.7889
17867SOL    HW255043   1.864   7.546   3.751 -2.2356  2.3199  1.3911
17868SOL     OW55044   4.289   0.949  10.780 -0.5806 -0.3188 -0.5912
17868SOL    HW155045   4.225   0.905  10.837 -0.0074 -0.5765 -0.1408
17868SOL    HW255046   4.348   0.879  10.752  1.0130  0.2901  1.0285
17869SOL     OW55047   7.021   3.650   8.770 -0.1073 -0.1504  0.5084
17869SOL    HW155048   6.927   3.658   8.754 -0.3279  3.0357  2.6364
17869SOL    HW255049   7.061   3.707   8.704  0.0444  1.0120  1.5698
17870SOL     OW55050   1.678   1.564   4.493  0.1978  0.3137  0.3039
17870SOL    HW155051   1.746   1.622   4.527  2.2939 -2.6552  1.5651
17870SOL    HW255052   1.611   1.563   4.561  1.0830 -0.2326  1.1827
17871SOL     OW55053   4.964   0.046   3.600 -0.0295  0.2975 -0.1104
17871SOL    HW155054   4.911  -0.005   3.538 -0.4028 -0.5171  0.8522
17871SOL    HW255055   4.979  -0.013   3.673  2.2007  0.5289 -0.3249
17872SOL     OW55056   2.976   3.457   9.616 -0.3985  0.4687 -0.0975
17872SOL    HW155057   3.014   3.511   9.686 -0.1945 -0.0926  0.2280
17872SOL    HW255058   3.026   3.376   9.618  0.1215  0.7379 -1.4140
17873SOL     OW55059   2.546   1.095  12.126  0.6005  0.1067  0.1278
17873SOL    HW155060   2.533   1.076  12.033  1.6561 -0.4723  0.0765
17873SOL    HW255061   2.640   1.111  12.133  0.7352 -1.1184  1.3184
17874SOL     OW55062   2.491   4.443   3.489  0.2826  0.5099 -0.3651
17874SOL    HW155063   2.525   4.382   3.424 -1.0616  0.2797 -0.8781
17874SOL    HW255064   2.454   4.388   3.558  2.5642  0.7301  1.1534
17875SOL     OW55065   1.123   6.961   1.892  0.5633  0.1663 -0.0986
17875SOL    HW155066   1.153   7.051   1.901  0.7305 -0.0197  1.6707
17875SOL    HW255067   1.177   6.912   1.954 -0.2746 -0.9585 -0.2220
17876SOL     OW55068   0.735   1.683   1.924 -0.1307  0.7656 -0.3957
17876SOL    HW155069   0.641   1.669   1.913 -0.0312 -0.1470 -0.1567
17876SOL    HW255070   0.742   1.772   1.959 -0.9019  0.8519 -0.4433
17877SOL     OW55071   1.984   3.286   1.927 -0.2633  0.1989  0.5646
17877SOL    HW155072   2.066   3.237   1.920  0.0596  0.6277  1.2471
17877SOL    HW255073   1.983   3.343   1.850 -0.3898 -0.4931  0.0459
17878SOL     OW55074   5.264   4.057   5.044 -0.4066 -0.4996 -0.3904
17878SOL    HW155075   5.318   4.032   4.969 -0.2311 -1.3421  0.0055
17878SOL    HW255076   5.180   4.014   5.028 -0.5771 -0.1590 -0.4184
17879SOL     OW55077   5.586   1.276   9.042  0.4822 -0.2043  0.1844
17879SOL    HW155078   5.491   1.281   9.033  0.5361 -0.6289 -0.7094
17879SOL    HW255079   5.611   1.358   9.086 -0.2825 -0.0488  0.3327
17880SOL     OW55080   7.614   6.264   9.231  0.6692 -1.0339  0.1318
17880SOL    HW155081   7.634   6.196   9.295  0.7584 -2.7880 -1.6368
17880SOL    HW255082   7.695   6.274   9.181  0.1917 -0.7236 -0.5933
17881SOL     OW55083   6.633   4.914   6.902 -0.1906 -0.0809 -0.0268
17881SOL    HW155084   6.668   4.849   6.842  1.6406  1.5751 -0.8602
17881SOL    HW255085   6.709   4.948   6.949 -1.1124  1.2433  0.5900
17882SOL     OW55086   6.602   1.434   8.670 -0.0636 -0.1056 -0.1055
17882SOL    HW155087   6.583   1.432   8.576  2.1520 -0.1677 -0.6163
17882SOL    HW255088   6.673   1.498   8.679 -1.2351  1.0196  1.7693
17883SOL     OW55089   3.800   5.920   3.099 -0.1833 -0.0351 -0.8417
17883SOL    HW155090   3.891   5.892   3.091 -0.4333 -0.5121 -2.4843
17883SOL    HW255091   3.770   5.881   3.182  0.9274 -0.3901 -0.5927
17884SOL     OW55092   6.235   0.612   1.995  0.1089 -0.8629 -0.5175
17884SOL    HW155093   6.282   0.617   1.912 -0.5268 -2.3712 -1.0013
17884SOL    HW255094   6.241   0.701   2.031 -0.7496  0.2218 -2.8112
17885SOL     OW55095   2.040   5.473  12.191 -0.2871 -1.0519  0.1886
17885SOL    HW155096   2.002   5.541  12.135 -0.5475 -2.5282 -1.5337
17885SOL    HW255097   1.991   5.479  12.273 -0.8573  0.2803 -0.2224
17886SOL     OW55098   0.141   2.367   6.786  0.5747  0.4058 -0.7152
17886SOL    HW155099   0.218   2.323   6.822  0.8695  0.6834 -0.9999
17886SOL    HW255100   0.109   2.422   6.857  0.4767  0.0893 -0.5096
17887SOL     OW55101   3.442   6.789   9.145 -0.3123 -0.4298  0.1636
17887SOL    HW155102   3.438   6.776   9.240  0.1599  2.0938  0.5852
17887SOL    HW255103   3.352   6.809   9.120  0.1113  2.8238  0.8134
17888SOL     OW55104   4.073   5.760   9.045  0.3703 -0.3304 -0.0359
17888SOL    HW155105   4.123   5.787   8.968  0.5737  0.9126  0.5150
17888SOL    HW255106   3.991   5.725   9.009  1.0784 -1.1405 -0.8776
17889SOL     OW55107   7.612   0.727   7.884  0.0224 -0.3564 -0.2714
17889SOL    HW155108   7.658   0.789   7.940 -0.6868 -0.9104  0.9609
17889SOL    HW255109   7.608   0.770   7.799  0.2923  0.9142  0.3343
17890SOL     OW55110   4.211   3.170   0.524  0.1605 -0.5587 -0.2385
17890SOL    HW155111   4.150   3.114   0.475  0.7842 -2.8162  1.3786
17890SOL    HW255112   4.289   3.175   0.468 -0.3307 -0.3404 -0.9108
17891SOL     OW55113   4.488   0.388   0.012 -0.2768  0.4984 -0.2077
17891SOL    HW155114   4.563   0.332   0.029 -1.0477 -0.0120  1.7527
17891SOL    HW255115   4.412   0.329   0.013 -0.7213  0.8668 -2.9474
17892SOL     OW55116   0.576   0.648   0.854  0.0177  0.1146  0.1679
17892SOL    HW155117   0.611   0.663   0.942  0.3769  1.3037 -0.1661
17892SOL    HW255118   0.483   0.668   0.861 -0.2919 -1.3395  0.6348
17893SOL     OW55119   3.039   2.331   9.088  0.5295  0.2207 -0.0617
17893SOL    HW155120   3.031   2.362   8.998 -0.9411  0.4443  0.1110
17893SOL    HW255121   3.043   2.236   9.081 -1.3213  0.1333 -0.3041
17894SOL     OW55122   4.297   6.369   5.818  0.3344 -0.1564  0.2792
17894SOL    HW155123   4.331   6.345   5.904  0.5069 -0.0962  0.2276
17894SOL    HW255124   4.248   6.291   5.789 -1.7263  0.6304  1.4390
17895SOL     OW55125   4.938   5.952   5.181 -0.4822 -0.3208  0.4405
17895SOL    HW155126   5.028   5.969   5.206 -1.2664  0.6088  2.9074
17895SOL    HW255127   4.922   5.862   5.209 -0.1499 -0.7220 -0.6204
17896SOL     OW55128   0.122   2.431   4.300  0.3095 -0.3716  0.2470
17896SOL    HW155129   0.114   2.337   4.282  0.2483 -0.5947  1.3503
17896SOL    HW255130   0.217   2.446   4.304  0.3195 -0.4468  0.3116
17897SOL     OW55131   0.094   7.626  11.336 -0.1295  0.1053  0.1891
17897SOL    HW155132   0.111   7.685  11.263 -0.3278  0.4467  0.4100
17897SOL    HW255133  -0.000   7.634  11.351 -0.0887  0.0437  0.4827
17898SOL     OW55134   5.785   4.703   5.499 -0.1411  0.8280  0.3569
17898SOL    HW155135   5.842   4.643   5.450  0.6382  1.4446  0.4898
17898SOL    HW255136   5.743   4.648   5.566  0.1678  0.3385  0.1516
17899SOL     OW55137   6.427   1.522  12.310  0.1485 -0.6167 -0.0887
17899SOL    HW155138   6.391   1.606  12.336 -0.2086 -0.9528  0.5188
17899SOL    HW255139   6.426   1.524  12.214  3.3525  1.4513 -0.2501
17900SOL     OW55140   0.265   1.942   9.647  0.0949  0.5510 -0.2703
17900SOL    HW155141   0.177   1.906   9.660  1.5054 -2.1822  3.5605
17900SOL    HW255142   0.251   2.037   9.642 -3.1109  0.1600 -1.0802
17901SOL     OW55143   6.822   6.771   4.750  0.1861 -0.2928 -0.4046
17901SOL    HW155144   6.884   6.731   4.688  0.0094 -0.7212 -0.3083
17901SOL    HW255145   6.800   6.855   4.710 -1.1104 -1.1968 -1.7247
17902SOL     OW55146   4.778   5.147   2.901  0.1333 -0.1694  0.4734
17902SOL    HW155147   4.821   5.138   2.816  1.7404 -2.6019  1.4417
17902SOL    HW255148   4.846   5.183   2.958 -0.1543 -0.8400  1.2629
17903SOL     OW55149   2.988   7.067   3.424  0.5699  0.8711  0.0826
17903SOL    HW155150   3.025   6.998   3.479 -0.6263  1.0992  1.2155
17903SOL    HW255151   3.007   7.148   3.472 -1.3436  0.9940  0.6954
17904SOL     OW55152   3.433   4.811   2.808 -0.2103  0.1160 -0.4546
17904SOL    HW155153   3.424   4.784   2.716  2.1376 -1.4952 -0.2934
17904SOL    HW255154   3.426   4.730   2.858  4.0423 -0.0363  0.2887
17905SOL     OW55155   4.015   1.891  12.110 -0.2193  0.0217  0.5323
17905SOL    HW155156   3.975   1.977  12.109  0.1702  0.2057  0.4775
17905SOL    HW255157   3.946   1.831  12.081 -0.1514  0.4608 -0.5705
17906SOL     OW55158   5.188   2.990   0.780  0.4319 -0.6715 -0.0757
17906SOL    HW155159   5.180   2.964   0.872 -1.5380 -0.3480 -0.1197
17906SOL    HW255160   5.232   2.915   0.739 -0.7890 -1.8790  0.7086
17907SOL     OW55161   0.993   7.688  10.693 -0.3348 -0.2824 -0.2577
17907SOL    HW155162   1.057   7.663  10.760  1.3184 -0.0119 -1.6425
17907SOL    HW255163   1.043   7.686  10.611 -2.3661 -1.0266 -1.5640
17908SOL     OW55164   2.099   2.011   0.714  0.5888 -1.1010 -1.0061
17908SOL    HW155165   2.139   1.959   0.784 -1.0576 -1.3522 -0.1996
17908SOL    HW255166   2.154   2.090   0.709  0.1259 -0.5314  1.4024
17909SOL     OW55167   7.485   3.401  10.523  0.0736  0.0396 -0.1287
17909SOL    HW155168   7.402   3.367  10.490 -0.1356  0.2671  0.1647
17909SOL    HW255169   7.503   3.348  10.601 -1.2215  1.8160  1.4827
17910SOL     OW55170   5.495   3.302   9.961  0.4616 -0.1456  0.0890
17910SOL    HW155171   5.554   3.233   9.991 -0.5872 -0.6272  1.1622
17910SOL    HW255172   5.426   3.304  10.027 -1.3360 -0.3944 -1.6656
17911SOL     OW55173   3.443   7.489   7.429  0.0876  0.4565 -0.5744
17911SOL    HW155174   3.367   7.437   7.405 -0.7244  1.0269  0.6657
17911SOL    HW255175   3.442   7.563   7.369  1.2366 -0.8791 -2.3321
17912SOL     OW55176   2.203   3.074   9.294  0.1958  1.0956  0.4301
17912SOL    HW155177   2.174   2.983   9.292 -0.2590  1.2122  1.2841
17912SOL    HW255178   2.298   3.068   9.306  0.0181  0.7352  1.7535
17913SOL     OW55179   4.719   4.899   9.795  0.0638 -0.0219  0.3762
17913SOL    HW155180   4.700   4.875   9.886  0.6077 -2.1690 -0.0223
17913SOL    HW255181   4.670   4.836   9.743  0.2486  0.8055 -0.8333
17914SOL     OW55182   0.355   0.461   8.451  0.3299  0.2023  0.0566
17914SOL    HW155183   0.449   0.473   8.442  0.2838 -0.3155 -1.4179
17914SOL    HW255184   0.342   0.366   8.445 -0.3336  0.3195 -0.5228
17915SOL     OW55185   0.251   1.035  10.863 -0.5442  0.3978 -0.0794
17915SOL    HW155186   0.170   1.082  10.885 -0.5844  0.0409  0.5494
17915SOL    HW255187   0.262   0.972  10.934  0.9688  1.3028  0.5263
17916SOL     OW55188   4.301   0.209   6.461  0.1303 -0.5083 -0.2540
17916SOL    HW155189   4.274   0.128   6.417  1.3426  0.0128 -2.0506
17916SOL    HW255190   4.306   0.274   6.391 -2.9060  1.7644  1.4370
17917SOL     OW55191   3.269   4.731   3.296  0.3752 -0.3547  0.2305
17917SOL    HW155192   3.346   4.674   3.294  0.6476 -0.0015  0.3500
17917SOL    HW255193   3.303   4.816   3.326 -0.1927 -0.4055  1.0557
17918SOL     OW55194   0.042   3.942   9.539 -0.2946 -0.4291  0.3833
17918SOL    HW155195   0.031   3.896   9.455 -1.5194  2.2880 -1.0741
17918SOL    HW255196  -0.034   3.916   9.591  0.2002 -1.7368  0.4949
17919SOL     OW55197   4.830   7.083  10.479  0.2091  0.0309 -0.2295
17919SOL    HW155198   4.878   7.127  10.550 -0.9322  1.4677 -0.3202
17919SOL    HW255199   4.810   6.997  10.515  0.5206  0.3744  0.8224
17920SOL     OW55200   1.387   2.324   4.983  0.2044 -0.2125 -0.5045
17920SOL    HW155201   1.310   2.353   4.934 -0.1013  0.5870  0.4211
17920SOL    HW255202   1.369   2.348   5.073  1.5197 -0.0801 -0.2550
17921SOL     OW55203   7.595   2.049   9.063  0.3066 -0.0316  0.0856
17921SOL    HW155204   7.538   2.127   9.059  0.8545  0.4654  1.3018
17921SOL    HW255205   7.573   2.009   9.148  1.5115 -0.0342  0.4030
17922SOL     OW55206   3.588   4.070   4.295  0.0156  0.0417  0.4900
17922SOL    HW155207   3.504   4.097   4.258  0.3826 -0.4347 -0.7311
17922SOL    HW255208   3.638   4.151   4.304  0.3764  0.0413 -1.2634
17923SOL     OW55209   7.950   2.374   9.210  0.0050  0.2711  0.3410
17923SOL    HW155210   7.981   2.381   9.300 -0.2491  1.7788  0.3471
17923SOL    HW255211   7.932   2.464   9.184 -0.7828 -0.2182 -0.9223
17924SOL     OW55212   2.756   4.776   0.401 -0.3014  0.4612  0.1159
17924SOL    HW155213   2.751   4.681   0.411 -1.8417  0.5667  0.5520
17924SOL    HW255214   2.821   4.803   0.465  1.0965 -0.4001 -0.8801
17925SOL     OW55215   7.282   0.785   4.527  0.8113 -0.4923  0.2784
17925SOL    HW155216   7.226   0.708   4.524  2.7920 -2.0106  0.1644
17925SOL    HW255217   7.225   0.857   4.501 -0.7989 -2.1086 -0.9397
17926SOL     OW55218   5.317   5.595   7.107  0.1867  0.5659  0.1376
17926SOL    HW155219   5.295   5.662   7.043  0.6073  0.7160  0.1457
17926SOL    HW255220   5.233   5.559   7.134 -0.0920  1.6189  0.7090
17927SOL     OW55221   4.642   1.995   5.056 -0.2541 -0.1327 -0.1783
17927SOL    HW155222   4.549   2.017   5.044 -0.0355  1.2318  0.4879
17927SOL    HW255223   4.666   1.952   4.974 -1.7890 -1.7165  0.1282
17928SOL     OW55224   4.703   4.956   2.168  0.3673  0.6465 -0.3104
17928SOL    HW155225   4.679   4.901   2.093  0.9341  1.0985 -0.8396
17928SOL    HW255226   4.733   4.894   2.234 -0.4404  0.2154 -0.3320
17929SOL     OW55227   2.417   0.595  11.139 -0.3858  0.0397 -0.0192
17929SOL    HW155228   2.335   0.640  11.116  0.3272  1.1784 -0.3981
17929SOL    HW255229   2.477   0.618  11.068  1.0176  1.2893  1.4864
17930SOL     OW55230   0.759   2.453   3.552  0.3907  0.7925 -0.5965
17930SOL    HW155231   0.846   2.415   3.543 -0.0225 -0.2734 -0.3592
17930SOL    HW255232   0.708   2.412   3.482 -0.4097 -0.1813  0.5079
17931SOL     OW55233   3.319   5.374   4.949 -0.4606  0.1082  0.0668
17931SOL    HW155234   3.409   5.406   4.946 -0.5596  0.3308 -1.3166
17931SOL    HW255235   3.271   5.442   4.997  0.1427 -0.1482  1.0562
17932SOL     OW55236   2.343   4.992   0.186 -0.7587 -0.6900 -0.4538
17932SOL    HW155237   2.438   4.997   0.177 -1.0242  2.5542 -3.4348
17932SOL    HW255238   2.324   5.030   0.272  0.5923 -2.3228  0.6262
17933SOL     OW55239   3.511   1.897   8.776  0.2516  0.3220 -0.3692
17933SOL    HW155240   3.471   1.950   8.707 -1.1009  0.2311  0.3060
17933SOL    HW255241   3.601   1.929   8.782  0.7797 -0.4963 -2.9744
17934SOL     OW55242   0.880   6.100   1.131 -0.3424 -0.2629 -0.2130
17934SOL    HW155243   0.851   6.012   1.154  0.1145  0.0368  1.6823
17934SOL    HW255244   0.864   6.152   1.210 -1.8299  1.6951 -1.6974
17935SOL     OW55245   1.447   2.230  11.267  0.2215  0.1724 -0.2328
17935SOL    HW155246   1.363   2.264  11.236  0.5593  1.1098 -0.1707
17935SOL    HW255247   1.468   2.158  11.208 -0.5926 -0.0198 -0.2922
17936SOL     OW55248   2.037   5.554  10.622 -0.1327  1.2228 -0.0898
17936SOL    HW155249   2.091   5.579  10.547 -0.0053  0.7742 -0.1502
17936SOL    HW255250   1.999   5.636  10.653 -0.8055  1.3278 -1.1264
17937SOL     OW55251   1.482   1.669   4.675 -0.2774 -0.3102  0.1128
17937SOL    HW155252   1.518   1.746   4.632 -0.1483 -0.8436 -0.7593
17937SOL    HW255253   1.394   1.660   4.638 -0.5373 -0.2135  0.6921
17938SOL     OW55254   1.418   6.281   3.305  0.1290  0.2221  0.2309
17938SOL    HW155255   1.382   6.217   3.244 -0.4386  0.0855  0.6965
17938SOL    HW255256   1.492   6.236   3.346  0.9887  0.5800 -0.8838
17939SOL     OW55257   3.548   1.390   8.307 -0.3974 -0.1232 -0.1086
17939SOL    HW155258   3.456   1.374   8.328 -0.2383 -0.2961  0.4708
17939SOL    HW255259   3.587   1.415   8.391  0.4130 -1.5351 -0.0514
17940SOL     OW55260   5.347   3.026  10.199 -0.9666  0.6704 -0.1551
17940SOL    HW155261   5.398   2.977  10.135 -1.7770 -0.7606  0.2492
17940SOL    HW255262   5.268   2.973  10.212 -1.2751  1.4426  1.2696
17941SOL     OW55263   4.510   3.424  11.343  0.3497  0.4128 -0.0758
17941SOL    HW155264   4.573   3.411  11.272  0.4856  1.9709 -0.2703
17941SOL    HW255265   4.430   3.452  11.300 -0.4669 -1.3749  0.1872
17942SOL     OW55266   5.663   5.531   6.665 -0.1432  0.2249  0.2087
17942SOL    HW155267   5.603   5.465   6.631  0.7282 -0.2466 -0.4534
17942SOL    HW255268   5.643   5.535   6.758 -0.4577 -0.7213  0.1982
17943SOL     OW55269   0.105   0.223   7.427  0.3157 -0.3122 -0.1253
17943SOL    HW155270   0.158   0.303   7.431 -2.2883  1.4803  0.7648
17943SOL    HW255271   0.020   0.252   7.395 -0.1487 -3.1399 -1.8265
17944SOL     OW55272   1.479   3.186   8.123  0.0392 -0.0311  0.3549
17944SOL    HW155273   1.405   3.130   8.147 -0.5775  1.2211  1.4992
17944SOL    HW255274   1.444   3.275   8.125  1.4152  0.5436  0.2403
17945SOL     OW55275   3.653   3.381   1.923 -0.3266 -0.1564  0.8713
17945SOL    HW155276   3.666   3.294   1.960 -0.2951 -0.6990 -0.3742
17945SOL    HW255277   3.732   3.398   1.872  0.4958  1.3953  2.5457
17946SOL     OW55278   2.405   6.454  12.250  0.0242 -0.5936 -0.3398
17946SOL    HW155279   2.463   6.461  12.174  0.4468  0.7315  0.0714
17946SOL    HW255280   2.412   6.540  12.292  1.2544 -1.8507  2.2500
17947SOL     OW55281   3.367   2.146   5.900 -0.5183 -0.0351 -0.1329
17947SOL    HW155282   3.433   2.216   5.899  0.8138 -1.1872  1.2455
17947SOL    HW255283   3.343   2.135   5.809 -0.7291  2.1632 -0.4089
17948SOL     OW55284   7.695   3.312  11.737  0.2007  0.0045  0.0403
17948SOL    HW155285   7.700   3.252  11.663  0.8632  1.2275 -0.9328
17948SOL    HW255286   7.614   3.287  11.782 -0.1915 -0.7861 -1.0662
17949SOL     OW55287   3.002   6.943   1.089 -0.2935 -0.0342 -0.5207
17949SOL    HW155288   3.007   6.929   1.184 -0.5982 -0.3209 -0.5448
17949SOL    HW255289   3.035   7.031   1.076  2.8435 -1.1036 -0.4960
17950SOL     OW55290   3.849   5.884   7.384  0.1199  0.2270 -0.3604
17950SOL    HW155291   3.885   5.955   7.331  1.2199 -0.7746 -1.0327
17950SOL    HW255292   3.925   5.849   7.431 -0.8451  1.1746  2.0593
17951SOL     OW55293   0.533   3.635   3.866  0.4717  0.0932 -0.8254
17951SOL    HW155294   0.495   3.550   3.845 -0.1106  0.1635 -0.0923
17951SOL    HW255295   0.628   3.622   3.856  0.4083 -0.7256 -0.4223
17952SOL     OW55296   6.790   7.724   8.938 -0.0287  1.0481  0.4123
17952SOL    HW155297   6.854   7.690   9.001 -0.4969 -0.7155 -0.0363
17952SOL    HW255298   6.714   7.668   8.947  0.2025  0.1256 -2.3454
17953SOL     OW55299   3.270   7.090   1.282  0.3400 -0.1683 -0.5918
17953SOL    HW155300   3.192   7.145   1.288 -0.2997 -1.0206 -0.8695
17953SOL    HW255301   3.289   7.085   1.188 -0.6151 -1.7698 -0.7296
17954SOL     OW55302   4.344   5.087   2.722 -0.0583  0.8847  0.9682
17954SOL    HW155303   4.373   5.178   2.733  1.3451  0.7503 -1.0665
17954SOL    HW255304   4.276   5.092   2.655 -0.3019  0.4489  1.1758
17955SOL     OW55305   3.606   7.005   9.107  0.7714 -0.8477 -0.0970
17955SOL    HW155306   3.671   6.964   9.051  1.3543 -1.3039  0.8848
17955SOL    HW255307   3.530   6.946   9.103  0.1683 -0.0231 -1.6918
17956SOL     OW55308   0.820   5.565   1.805 -0.2609  0.2843  0.1424
17956SOL    HW155309   0.855   5.562   1.894 -4.4294  2.9361  2.2395
17956SOL    HW255310   0.828   5.656   1.779  0.9572 -0.4557 -2.3856
17957SOL     OW55311   3.956   4.523   6.079  0.0468 -0.1244  0.1435
17957SOL    HW155312   3.967   4.474   6.160 -1.0979 -1.1868 -0.3181
17957SOL    HW255313   3.862   4.540   6.074  0.0863 -0.1740 -1.0048
17958SOL     OW55314   5.534   6.172   3.511 -0.1219 -0.1182  0.1019
17958SOL    HW155315   5.496   6.178   3.423 -1.3405 -0.7579  0.5694
17958SOL    HW255316   5.470   6.214   3.568  1.1041  1.1860  0.5864
17959SOL     OW55317   5.647   3.905  11.123 -0.0829  0.5234  0.5371
17959SOL    HW155318   5.704   3.982  11.123  1.9160 -0.8794 -0.1081
17959SOL    HW255319   5.584   3.923  11.192 -0.1068  3.0142 -0.0200
17960SOL     OW55320   3.279   4.330   0.309 -0.4634 -0.5246  0.6130
17960SOL    HW155321   3.300   4.424   0.315  0.6596 -0.8137  1.4833
17960SOL    HW255322   3.260   4.305   0.399 -1.4662 -0.9960  0.2840
17961SOL     OW55323   1.752   7.182  10.800  0.3738  0.0665  0.1647
17961SOL    HW155324   1.727   7.090  10.812  1.0908 -0.0445  0.9026
17961SOL    HW255325   1.730   7.201  10.708 -1.3080 -0.3446  0.4380
17962SOL     OW55326   0.251   4.179   4.182  0.3990 -0.3676  0.7002
17962SOL    HW155327   0.332   4.140   4.148  0.7490  2.8326 -2.7886
17962SOL    HW255328   0.204   4.208   4.104 -2.2146  1.5206  2.7925
17963SOL     OW55329   7.113   5.359   3.577  0.0662 -0.1239  0.0491
17963SOL    HW155330   7.148   5.417   3.509  0.4562 -1.2388 -0.7384
17963SOL    HW255331   7.081   5.418   3.645 -0.4079  1.0451 -1.1344
17964SOL     OW55332   3.598   2.606   8.824 -0.7393  0.3388  0.1954
17964SOL    HW155333   3.588   2.548   8.900  2.3069  0.1134  0.5322
17964SOL    HW255334   3.643   2.683   8.858  1.4600 -0.1227 -1.4737
17965SOL     OW55335   0.938   6.893   3.611  0.1883  0.1481 -0.1215
17965SOL    HW155336   0.848   6.905   3.642  0.3778  1.4789 -0.0318
17965SOL    HW255337   0.992   6.941   3.674  0.9214 -0.1898 -0.4797
17966SOL     OW55338   3.675   4.065   6.324 -0.4133  0.0010  0.7847
17966SOL    HW155339   3.627   3.986   6.349 -2.1743  1.4383  2.2885
17966SOL    HW255340   3.624   4.104   6.254 -0.0955  0.2887  0.7073
17967SOL     OW55341   0.823   4.490  10.517  0.8691  0.1526  0.2015
17967SOL    HW155342   0.835   4.515  10.609  2.6676 -0.1540  0.0900
17967SOL    HW255343   0.804   4.396  10.520 -1.9161  0.6454  0.3810
17968SOL     OW55344   4.395   1.061   6.099 -0.0340 -0.0364  0.0939
17968SOL    HW155345   4.429   1.055   6.188 -0.6517  0.2029  0.3463
17968SOL    HW255346   4.454   1.006   6.047  0.2629 -0.2602  0.6677
17969SOL     OW55347   7.039   7.334   2.554 -0.6560  0.7662 -0.1997
17969SOL    HW155348   7.110   7.392   2.525  0.6391 -1.9919 -3.1370
17969SOL    HW255349   6.959   7.380   2.530  0.2166  2.2493 -0.4102
17970SOL     OW55350   5.686   4.269   2.316  0.2559 -0.1203  0.3596
17970SOL    HW155351   5.620   4.212   2.353 -1.8053  0.9320 -1.4784
17970SOL    HW255352   5.669   4.355   2.356  0.8483  0.0567  0.2488
17971SOL     OW55353   5.973   2.334   1.511 -0.8509 -0.0894  0.6211
17971SOL    HW155354   6.040   2.348   1.577 -1.1653 -1.0461  1.1710
17971SOL    HW255355   6.017   2.351   1.427  0.5071 -2.0434  0.8631
17972SOL     OW55356   2.483   3.923   6.751 -0.2504 -0.4026  0.6407
17972SOL    HW155357   2.568   3.929   6.708 -0.6242 -1.0499 -0.2104
17972SOL    HW255358   2.423   3.895   6.682 -1.1063 -0.2192  1.2932
17973SOL     OW55359   1.581   3.364   9.374  0.0511  0.0380 -0.3697
17973SOL    HW155360   1.628   3.412   9.442  0.4239 -0.5162 -0.2269
17973SOL    HW255361   1.527   3.301   9.422 -0.2828  0.1746 -0.5613
17974SOL     OW55362   2.750   6.305   3.446 -0.1836 -0.2200  0.8269
17974SOL    HW155363   2.776   6.382   3.496 -1.1979 -1.5407  3.5499
17974SOL    HW255364   2.696   6.340   3.374  0.9213  1.7017  0.8719
17975SOL     OW55365   2.374   7.602   8.445  0.1616 -0.6648 -0.0864
17975SOL    HW155366   2.358   7.696   8.442  0.1257 -0.5931  1.5768
17975SOL    HW255367   2.434   7.586   8.372 -0.2871  0.5370 -0.7471
17976SOL     OW55368   0.402   7.660   7.288  0.0122 -0.6339  0.2556
17976SOL    HW155369   0.348   7.588   7.255 -0.0674 -1.6143  2.3312
17976SOL    HW255370   0.486   7.649   7.243 -0.3971 -1.2554 -0.3883
17977SOL     OW55371   7.917   6.055   0.726 -0.5202  0.5583 -0.6621
17977SOL    HW155372   7.867   5.984   0.685  0.3371 -0.5312  0.1047
17977SOL    HW255373   7.854   6.098   0.784 -1.3817  1.2553 -2.0584
17978SOL     OW55374   5.729   2.452   3.492 -0.4776 -0.1509  0.1161
17978SOL    HW155375   5.733   2.461   3.587 -0.9437 -0.4876  0.1742
17978SOL    HW255376   5.636   2.447   3.472 -0.5269  2.3726 -0.6129
17979SOL     OW55377   7.427   4.568   5.427  0.7478  0.3127  0.6562
17979SOL    HW155378   7.499   4.579   5.490  0.9457  0.3545  0.4219
17979SOL    HW255379   7.445   4.486   5.383 -0.2083 -0.5021  1.7125
17980SOL     OW55380   6.340   7.877   1.420 -0.1490  0.4618  0.2672
17980SOL    HW155381   6.246   7.893   1.417 -0.0558  0.9808 -0.0179
17980SOL    HW255382   6.352   7.818   1.494 -1.0236 -2.0147 -1.4438
17981SOL     OW55383   7.050   4.364   2.503 -0.5654  0.1107  0.3024
17981SOL    HW155384   7.077   4.408   2.583  0.7352  0.1306 -0.1133
17981SOL    HW255385   7.039   4.434   2.439  0.3363 -0.0325 -0.0392
17982SOL     OW55386   1.427   3.110  11.386  0.2124  0.6110 -0.0913
17982SOL    HW155387   1.414   3.106  11.291  0.4718  0.6569 -0.1292
17982SOL    HW255388   1.464   3.197  11.401  0.1452  0.6146  0.0566
17983SOL     OW55389   1.022   0.011   0.729  0.1017 -0.7034  0.1382
17983SOL    HW155390   0.950   0.044   0.676 -0.8976 -0.0894  1.8003
17983SOL    HW255391   1.095   0.070   0.709 -0.0463 -0.8984 -1.0279
17984SOL     OW55392   4.546   7.335   3.934 -0.4244 -0.1303 -0.4531
17984SOL    HW155393   4.486   7.300   4.001 -0.6879  1.0592 -0.0459
17984SOL    HW255394   4.506   7.311   3.851 -2.2923  1.8838 -0.2238
17985SOL     OW55395   0.850   0.853  11.219  0.1732  0.4166 -0.0287
17985SOL    HW155396   0.869   0.861  11.312  0.0010  0.6173 -0.0076
17985SOL    HW255397   0.897   0.926  11.178 -0.7712  1.0942  0.0605
17986SOL     OW55398   6.952   4.262   9.603  0.4040 -0.2264 -0.0999
17986SOL    HW155399   6.993   4.176   9.592  2.2872  0.7679 -1.4124
17986SOL    HW255400   6.878   4.246   9.661  1.0086 -2.6390  0.1083
17987SOL     OW55401   1.495   3.611  11.359  0.1074  0.2625  0.0238
17987SOL    HW155402   1.419   3.660  11.390 -0.6410 -0.2040 -1.0021
17987SOL    HW255403   1.516   3.649  11.274  0.0271 -0.6348 -0.4157
17988SOL     OW55404   0.322   2.669   1.139  0.5490  0.6484  0.0029
17988SOL    HW155405   0.323   2.630   1.227  0.2373  1.1524  0.2367
17988SOL    HW255406   0.278   2.604   1.085  1.8668 -0.2191 -0.0568
17989SOL     OW55407   5.579   0.258   3.202 -0.1709 -0.1020  0.0265
17989SOL    HW155408   5.648   0.203   3.165 -1.3013  0.3388 -3.0280
17989SOL    HW255409   5.624   0.338   3.229  0.6821 -0.2866 -0.7853
17990SOL     OW55410   4.945   1.585   8.857 -0.1449  0.3471  0.0708
17990SOL    HW155411   4.869   1.546   8.899 -1.6883  1.6706 -1.3704
17990SOL    HW255412   4.969   1.523   8.788  1.7748 -1.3363  2.1068
17991SOL     OW55413   1.564   3.833   1.608 -0.1714 -0.0082 -0.2709
17991SOL    HW155414   1.591   3.904   1.666  1.4952 -0.6742 -0.1695
17991SOL    HW255415   1.471   3.820   1.628  0.4625 -0.6475  2.7649
17992SOL     OW55416   5.270   2.452   8.414 -0.3631 -0.7124 -0.0943
17992SOL    HW155417   5.186   2.475   8.453  0.3119 -0.9968  1.5885
17992SOL    HW255418   5.331   2.445   8.488  1.5685  1.1587 -1.3709
17993SOL     OW55419   1.188   6.344   5.691 -0.7354 -0.0131 -0.2278
17993SOL    HW155420   1.100   6.363   5.725 -0.1068 -2.1321  3.0328
17993SOL    HW255421   1.197   6.249   5.701  1.8759  0.1204 -0.6892
17994SOL     OW55422   3.278   2.509   2.470  0.6818  0.3990 -0.1600
17994SOL    HW155423   3.287   2.600   2.440  0.4951  0.5279  0.1661
17994SOL    HW255424   3.253   2.517   2.562 -0.3719  0.0433 -0.3947
17995SOL     OW55425   7.853   0.415   7.725  0.4320  0.0586 -0.1991
17995SOL    HW155426   7.907   0.435   7.802  0.3900  1.3978 -0.4913
17995SOL    HW255427   7.765   0.443   7.750  0.6453  1.6648 -1.1463
17996SOL     OW55428   1.791   2.529   8.742 -0.6730 -0.5330 -0.8027
17996SOL    HW155429   1.788   2.480   8.660 -1.4265 -0.5381 -0.7760
17996SOL    HW255430   1.700   2.552   8.760 -0.5306 -0.6527  0.1080
17997SOL     OW55431   6.660   2.124   3.957  0.6486  0.1495  0.2073
17997SOL    HW155432   6.574   2.092   3.984  0.6314 -2.7646 -2.7302
17997SOL    HW255433   6.647   2.217   3.943 -2.0177 -0.1701 -0.0635
17998SOL     OW55434   6.277   4.319  11.369  0.1869 -0.0215  0.0130
17998SOL    HW155435   6.330   4.284  11.298 -0.0997 -1.2845  0.3833
17998SOL    HW255436   6.234   4.396  11.332  0.3632 -0.4159 -1.0506
17999SOL     OW55437   4.658   1.916   0.847  0.4471  0.1646  0.3521
17999SOL    HW155438   4.631   1.871   0.767  0.8830  0.4587  0.0347
17999SOL    HW255439   4.751   1.895   0.856  0.0390 -1.3185  1.7473
18000SOL     OW55440   5.442   0.989   2.649  0.1252 -0.0967 -0.7440
18000SOL    HW155441   5.455   0.899   2.620  1.3369  0.2195 -1.2704
18000SOL    HW255442   5.444   1.041   2.569  1.3859  0.5815 -0.3077
18001SOL     OW55443   5.579   4.227  10.995  0.0345 -0.0181 -0.0732
18001SOL    HW155444   5.618   4.192  10.916  1.1806  0.6248  0.1917
18001SOL    HW255445   5.503   4.170  11.012  0.6694 -1.0982 -0.7595
18002SOL     OW55446   0.286   2.213   1.079  0.0609  0.1456  0.3867
18002SOL    HW155447   0.361   2.214   1.138 -0.5254 -0.0585  1.1439
18002SOL    HW255448   0.297   2.132   1.028 -1.6026 -1.9268  3.0928
18003SOL     OW55449   7.158   4.664   6.600 -0.2719  0.0869  0.0052
18003SOL    HW155450   7.107   4.719   6.660 -1.2821 -0.0998 -0.6440
18003SOL    HW255451   7.092   4.624   6.543  0.6912  1.5309 -2.3058
18004SOL     OW55452   4.515   2.939   7.647 -0.1267 -0.4888  0.7844
18004SOL    HW155453   4.469   2.928   7.563 -0.4085  0.1168  0.8554
18004SOL    HW255454   4.549   3.028   7.644 -0.3087 -0.3925  1.3985
18005SOL     OW55455   6.183   5.994   7.403 -0.4502 -0.4048 -0.1321
18005SOL    HW155456   6.118   5.979   7.472 -1.3016 -1.6111 -1.1493
18005SOL    HW255457   6.258   5.940   7.428  0.0919  0.7383  0.8722
18006SOL     OW55458   7.276   1.808   5.226 -0.4266  0.0614  0.0674
18006SOL    HW155459   7.241   1.856   5.300 -1.4309  0.3565 -0.5748
18006SOL    HW255460   7.214   1.736   5.212  1.3758 -1.8990  1.4293
18007SOL     OW55461   0.290   5.877  11.210  0.1137 -0.2609  0.5512
18007SOL    HW155462   0.256   5.802  11.261  0.7249 -0.5588  0.5228
18007SOL    HW255463   0.385   5.866  11.212  0.2135  0.5907  0.6541
18008SOL     OW55464   2.234   3.433  10.668 -0.5335  0.1120  0.1723
18008SOL    HW155465   2.150   3.467  10.698 -0.8038 -1.2627  1.0583
18008SOL    HW255466   2.216   3.342  10.645  0.3324  0.3044 -1.3784
18009SOL     OW55467   1.428   0.394   0.410 -0.2845 -0.1582  0.3827
18009SOL    HW155468   1.431   0.321   0.348  1.2316  0.3533 -0.1878
18009SOL    HW255469   1.516   0.430   0.409 -1.2251  2.2879 -0.0518
18010SOL     OW55470   1.936   6.312   8.137 -0.1000  0.2664  0.3237
18010SOL    HW155471   1.849   6.276   8.120 -0.6095  1.0006  1.2547
18010SOL    HW255472   1.949   6.301   8.232  0.2798  1.2832  0.4089
18011SOL     OW55473   5.919   1.503   2.276 -0.6798 -0.1850  0.1714
18011SOL    HW155474   5.825   1.487   2.272 -0.8065  0.5786 -0.0222
18011SOL    HW255475   5.934   1.577   2.217  0.1328 -0.6960 -0.2831
18012SOL     OW55476   0.315   4.271   4.551  0.1065 -0.2471 -0.4687
18012SOL    HW155477   0.376   4.263   4.477  0.1662 -0.2571 -0.4179
18012SOL    HW255478   0.360   4.232   4.625 -0.5397 -1.5791 -0.7536
18013SOL     OW55479   3.038   5.879  10.120 -0.3014  0.4108  0.5856
18013SOL    HW155480   3.062   5.882  10.027 -0.4568 -1.0158  0.4839
18013SOL    HW255481   3.116   5.908  10.166 -0.7834  2.9129 -0.0346
18014SOL     OW55482   3.391   1.346   5.994 -0.2989 -0.4635  0.0337
18014SOL    HW155483   3.425   1.256   5.994  1.4411  0.1457  0.4885
18014SOL    HW255484   3.469   1.401   5.980 -1.2518  1.0020  0.2553
18015SOL     OW55485   6.403   7.709   6.716  0.4349  0.4071  0.1092
18015SOL    HW155486   6.472   7.732   6.654 -0.4329 -0.3002 -1.1693
18015SOL    HW255487   6.357   7.792   6.732 -0.2597  0.3531 -1.4043
18016SOL     OW55488   0.556   4.347  11.806  0.1175  0.5119  0.1935
18016SOL    HW155489   0.635   4.305  11.840 -0.5365 -0.3676  0.6572
18016SOL    HW255490   0.571   4.440  11.822  1.4273  0.4549 -0.5154
18017SOL     OW55491   6.627   7.494   6.560  0.2748  0.6198 -0.7044
18017SOL    HW155492   6.630   7.510   6.466  0.4363 -1.2042 -1.0495
18017SOL    HW255493   6.610   7.400   6.568 -1.5680  1.0326  1.1065
18018SOL     OW55494   0.067   3.669   5.299  0.5735  0.4550  0.6451
18018SOL    HW155495   0.022   3.728   5.238 -1.1481 -0.3700  1.0615
18018SOL    HW255496   0.105   3.727   5.364 -0.4820  1.1720  0.6495
18019SOL     OW55497   3.690   7.099   3.237 -0.5468  0.1835 -0.3547
18019SOL    HW155498   3.610   7.048   3.249  0.0990 -0.8522 -0.2847
18019SOL    HW255499   3.759   7.033   3.227  0.3211  1.0508 -0.2575
18020SOL     OW55500   0.936   5.588   2.050 -0.4851 -0.2528 -0.3406
18020SOL    HW155501   0.877   5.524   2.090 -0.5621 -0.5209 -0.8760
18020SOL    HW255502   1.022   5.567   2.086 -0.4794 -0.7830 -0.6584
18021SOL     OW55503   2.792   1.389   3.851  0.4923  0.0656  0.4429
18021SOL    HW155504   2.726   1.344   3.799  0.5919 -1.6908  1.7121
18021SOL    HW255505   2.765   1.481   3.851 -0.0903 -0.0648 -1.7481
18022SOL     OW55506   3.839   2.408   6.602  0.4154 -0.1309  0.3344
18022SOL    HW155507   3.815   2.366   6.519  0.5770 -0.1380  0.2912
18022SOL    HW255508   3.761   2.400   6.656  0.3517 -0.2397  0.2277
18023SOL     OW55509   4.440   5.068   1.924 -0.5445  0.9015 -0.0778
18023SOL    HW155510   4.400   5.130   1.864  0.0958  0.6373 -0.7975
18023SOL    HW255511   4.523   5.110   1.950  0.1181  0.1633 -0.9375
18024SOL     OW55512   3.332   1.893   9.265 -0.0147 -0.1616 -0.0063
18024SOL    HW155513   3.421   1.873   9.295 -0.1734 -1.6003 -0.4264
18024SOL    HW255514   3.325   1.848   9.181 -1.3680 -0.6302  0.3430
18025SOL     OW55515   3.631   7.493  11.811 -0.4782 -0.2360  0.0690
18025SOL    HW155516   3.673   7.570  11.774 -2.3268 -0.2516 -2.2835
18025SOL    HW255517   3.580   7.527  11.885 -2.5498  1.2032 -1.8857
18026SOL     OW55518   4.189   0.808   1.567 -0.2803 -0.4814  0.5705
18026SOL    HW155519   4.197   0.898   1.533 -0.9532 -0.5095  0.3255
18026SOL    HW255520   4.098   0.801   1.595 -1.5343 -2.3792 -3.2555
18027SOL     OW55521   7.472   4.557   0.554  0.2223  0.3891  0.0789
18027SOL    HW155522   7.489   4.616   0.628  2.4286 -1.8417  1.5769
18027SOL    HW255523   7.549   4.567   0.498 -0.1063  0.0628 -0.4306
18028SOL     OW55524   5.356   5.789   0.589 -0.0139  0.4604 -0.0135
18028SOL    HW155525   5.273   5.743   0.577  0.5342 -1.0435  1.5697
18028SOL    HW255526   5.423   5.722   0.573  0.9693  1.7554 -1.7563
18029SOL     OW55527   7.180   1.224   9.268 -0.4123  0.4144  0.1337
18029SOL    HW155528   7.202   1.291   9.334  0.2047  0.3882 -0.0369
18029SOL    HW255529   7.242   1.153   9.285  0.0762  0.6118 -0.7793
18030SOL     OW55530   2.259   2.583   9.576  0.1410 -0.4383  0.2085
18030SOL    HW155531   2.258   2.550   9.486 -0.1741 -0.3993  0.1964
18030SOL    HW255532   2.281   2.506   9.629  0.0267 -0.5308  0.1241
18031SOL     OW55533   4.699   2.633   3.755  0.2036  0.0724 -0.7176
18031SOL    HW155534   4.713   2.540   3.738 -0.2108 -0.1701  0.2307
18031SOL    HW255535   4.604   2.641   3.769  0.2096  0.6701 -0.9697
18032SOL     OW55536   0.877   5.173   1.246  0.4317 -0.8681  0.2713
18032SOL    HW155537   0.801   5.151   1.193 -2.2077  1.9741  2.4984
18032SOL    HW255538   0.875   5.109   1.317 -0.9367  0.0929  1.1569
18033SOL     OW55539   6.169   7.113   4.192  0.6543  0.2603 -0.5025
18033SOL    HW155540   6.173   7.073   4.279  1.6050  0.3801 -0.4831
18033SOL    HW255541   6.094   7.173   4.198  1.7963  1.6451  0.8544
18034SOL     OW55542   3.291   7.399   4.244 -0.0265 -0.0956 -0.3656
18034SOL    HW155543   3.209   7.350   4.231 -0.8768  0.6246  1.7442
18034SOL    HW255544   3.331   7.357   4.320  1.4021 -0.2021 -1.1604
18035SOL     OW55545   0.915   4.034   2.031  0.2775  0.5356  0.3709
18035SOL    HW155546   0.855   3.980   1.979 -1.2034  0.4361  2.0954
18035SOL    HW255547   0.970   3.971   2.077 -0.6663  0.4958  1.4784
18036SOL     OW55548   1.761   7.005   6.626  0.3589  0.2220 -0.7716
18036SOL    HW155549   1.781   7.097   6.644  0.3967  0.0839 -0.1085
18036SOL    HW255550   1.796   6.990   6.538 -0.7851  1.1921 -1.4350
18037SOL     OW55551   0.701   4.092   1.752  0.2795 -0.6369 -0.3015
18037SOL    HW155552   0.611   4.115   1.774  0.2459  0.0316 -1.0878
18037SOL    HW255553   0.710   4.001   1.782  0.0692  0.0007  1.8340
18038SOL     OW55554   0.271   6.667   1.968  0.3978 -0.3803 -0.4196
18038SOL    HW155555   0.305   6.579   1.982  2.7899  0.4081 -0.8129
18038SOL    HW255556   0.296   6.716   2.046  1.1844  0.4959 -1.1886
18039SOL     OW55557   1.662   1.741   7.550 -0.6023  0.0262  0.4493
18039SOL    HW155558   1.605   1.811   7.580  0.8756  1.2897  0.4295
18039SOL    HW255559   1.709   1.778   7.475  1.3484 -0.3903  1.3818
18040SOL     OW55560   1.560   4.042   4.156 -0.2467  0.1021  0.4083
18040SOL    HW155561   1.620   3.967   4.158 -0.4359 -0.0462  0.5978
18040SOL    HW255562   1.582   4.089   4.076  0.8779  0.6703  1.0375
18041SOL     OW55563   6.432   6.001  10.948 -0.6885  0.0046  0.8762
18041SOL    HW155564   6.435   5.999  10.853  0.4111 -1.4782  0.9058
18041SOL    HW255565   6.340   5.987  10.970 -0.9229  0.2182  0.0498
18042SOL     OW55566   4.576   1.695  12.310 -0.0289  0.2233 -0.2498
18042SOL    HW155567   4.489   1.705  12.272  0.3094 -1.5468 -1.5828
18042SOL    HW255568   4.627   1.766  12.271 -0.5594  0.5437 -0.3754
18043SOL     OW55569   1.449   1.977   0.821 -0.4858 -0.2743  0.0818
18043SOL    HW155570   1.359   1.992   0.792 -0.2171  2.5275  0.4284
18043SOL    HW255571   1.492   1.934   0.747 -1.3012  1.3663 -1.4175
18044SOL     OW55572   7.559   1.848   7.117 -0.2182  0.3143 -0.0569
18044SOL    HW155573   7.563   1.797   7.036  0.3799  1.1507 -0.5807
18044SOL    HW255574   7.531   1.786   7.184  2.5442 -1.2907 -0.2202
18045SOL     OW55575   7.414   1.343   6.279  0.3726 -0.5181 -0.2041
18045SOL    HW155576   7.354   1.372   6.211  0.4326 -0.5013 -0.2491
18045SOL    HW255577   7.373   1.265   6.316 -0.2801  0.1793  0.5783
18046SOL     OW55578   0.596   1.237   3.984  0.4179 -0.5409 -0.0594
18046SOL    HW155579   0.595   1.332   3.973 -1.0638 -0.7254 -1.8943
18046SOL    HW255580   0.687   1.212   3.966  0.6493  0.4458 -0.3043
18047SOL     OW55581   6.358   5.271   2.409  0.5108  0.5808 -0.5178
18047SOL    HW155582   6.321   5.296   2.494  0.2130 -0.1022 -0.4353
18047SOL    HW255583   6.306   5.320   2.345 -0.1642  0.0836 -0.3681
18048SOL     OW55584   3.454   3.919  10.822 -0.0568  0.0844  0.2888
18048SOL    HW155585   3.406   3.978  10.765  0.2934 -0.3367 -0.4483
18048SOL    HW255586   3.513   3.976  10.872  1.7583  0.2064 -1.8472
18049SOL     OW55587   4.160   5.536   5.803  0.4324  0.7090  0.4965
18049SOL    HW155588   4.188   5.445   5.788 -1.0436 -0.1534  2.5367
18049SOL    HW255589   4.198   5.559   5.888  1.0753  2.1619 -0.1606
18050SOL     OW55590   0.153   6.809  10.397  0.7925 -0.2037  0.2056
18050SOL    HW155591   0.126   6.731  10.444  2.9205  0.0211  1.9746
18050SOL    HW255592   0.150   6.783  10.304 -2.7193 -0.9089  0.3853
18051SOL     OW55593   5.711   7.487   6.997  0.5511  0.6207 -0.0732
18051SOL    HW155594   5.673   7.573   6.979  2.2272  1.4155 -0.0144
18051SOL    HW255595   5.694   7.473   7.090 -0.9200  0.2381 -0.3717
18052SOL     OW55596   5.252   7.212   9.523  0.2605 -0.3302 -0.4450
18052SOL    HW155597   5.328   7.154   9.516 -0.3643 -1.1395 -0.6895
18052SOL    HW255598   5.264   7.275   9.451  2.0163  1.1921  1.0694
18053SOL     OW55599   3.499   0.397   7.703 -0.1137 -0.3579 -0.1743
18053SOL    HW155600   3.458   0.365   7.622 -1.9398 -1.8580  1.2373
18053SOL    HW255601   3.558   0.326   7.729  2.2797  1.0996 -1.3144
18054SOL     OW55602   3.703   0.320  10.679  0.0722  0.4745 -0.0726
18054SOL    HW155603   3.779   0.262  10.679  1.8851  2.7282  1.1735
18054SOL    HW255604   3.686   0.336  10.586  1.3478  0.2240 -0.3702
18055SOL     OW55605   0.914   2.408   8.070  0.4786 -0.6717 -0.5321
18055SOL    HW155606   0.988   2.349   8.084  0.6521 -0.4619 -0.5632
18055SOL    HW255607   0.875   2.418   8.156  2.0870  1.3408  0.0526
18056SOL     OW55608   5.900   2.260   9.763  0.4238  0.3772 -0.2995
18056SOL    HW155609   5.924   2.169   9.741  1.7342  0.8424 -0.9039
18056SOL    HW255610   5.895   2.260   9.859 -1.7661 -0.8218 -0.3515
18057SOL     OW55611   1.884   1.224   7.868  0.2869 -0.3319  0.0288
18057SOL    HW155612   1.813   1.272   7.910 -0.8072 -1.7265 -0.1562
18057SOL    HW255613   1.910   1.158   7.932  1.4438  0.1668  0.0964
18058SOL     OW55614   7.060   4.754   8.419  0.2661  0.7686 -0.0303
18058SOL    HW155615   7.085   4.683   8.359 -2.3901  0.8355 -1.3409
18058SOL    HW255616   7.109   4.830   8.387  1.1680  0.1213 -0.2254
18059SOL     OW55617   1.030   5.301   6.811  0.3165 -0.0912  0.6450
18059SOL    HW155618   1.061   5.263   6.893  0.4924 -0.0549  0.5969
18059SOL    HW255619   1.063   5.242   6.743  0.5069  0.0905  0.5759
18060SOL     OW55620   0.355   1.862   2.614  0.0869  0.4707  0.2370
18060SOL    HW155621   0.297   1.915   2.558 -0.1068 -1.9643 -2.0776
18060SOL    HW255622   0.431   1.918   2.630  0.2350  1.2743 -2.7159
18061SOL     OW55623   0.679   6.582   8.302 -0.3511 -0.1745  0.4212
18061SOL    HW155624   0.721   6.498   8.284  0.3739  0.2921 -0.1026
18061SOL    HW255625   0.594   6.576   8.260  0.3716 -0.0117 -1.1314
18062SOL     OW55626   1.929   4.592  11.977  0.3252  0.0113 -0.6158
18062SOL    HW155627   1.989   4.519  11.983 -1.3837 -1.5484 -1.5515
18062SOL    HW255628   1.901   4.608  12.068  1.5207  0.2563 -0.2774
18063SOL     OW55629   1.477   5.735   0.734  0.0180  0.1897  0.3199
18063SOL    HW155630   1.488   5.787   0.814 -1.7822  0.1861  0.6155
18063SOL    HW255631   1.481   5.799   0.663 -1.7449  0.7403  0.6551
18064SOL     OW55632   0.164   3.796   1.364  0.2812 -0.1076 -0.4009
18064SOL    HW155633   0.119   3.874   1.331 -0.7652 -0.2131  0.7112
18064SOL    HW255634   0.107   3.723   1.340 -1.2674 -0.0874  2.6887
18065SOL     OW55635   1.968   4.775   1.540  0.1709 -0.6727 -0.2598
18065SOL    HW155636   2.053   4.738   1.562  0.1123 -0.2179  0.7837
18065SOL    HW255637   1.907   4.733   1.600  0.2007  1.4942  1.4170
18066SOL     OW55638   0.849   3.357   0.501  0.1669 -0.1766 -0.1795
18066SOL    HW155639   0.773   3.313   0.540 -0.6347  0.3041 -1.1668
18066SOL    HW255640   0.818   3.445   0.482  1.3088  0.3670  0.3771
18067SOL     OW55641   1.888   1.484   3.832  0.1552  0.2063 -0.0508
18067SOL    HW155642   1.851   1.401   3.861  1.2846 -0.1112  0.5241
18067SOL    HW255643   1.980   1.465   3.817 -0.0663  0.6751 -2.5780
18068SOL     OW55644   7.840   0.808   3.004 -1.3740 -0.5426  0.2308
18068SOL    HW155645   7.783   0.848   3.070 -1.6274 -1.7853  0.7894
18068SOL    HW255646   7.905   0.876   2.984 -0.4074 -0.5801  2.8295
18069SOL     OW55647   0.994   1.419   6.805  0.1163 -0.0773 -0.4874
18069SOL    HW155648   1.064   1.428   6.870  0.0135  1.5737 -0.5437
18069SOL    HW255649   0.979   1.509   6.774 -1.7409 -0.4443 -0.7680
18070SOL     OW55650   6.550   0.851   9.193  0.4603  0.1630 -0.3994
18070SOL    HW155651   6.484   0.783   9.205 -0.0884  0.5650 -1.0351
18070SOL    HW255652   6.567   0.850   9.098  1.2973  0.1258 -0.2510
18071SOL     OW55653   5.617   6.969   3.301  0.5510  0.1170  0.3062
18071SOL    HW155654   5.611   6.964   3.397 -0.2826 -0.8942  0.2113
18071SOL    HW255655   5.709   6.991   3.285  0.9438 -0.6897  1.3152
18072SOL     OW55656   5.439   1.607   5.042 -0.0651 -0.2814 -0.2039
18072SOL    HW155657   5.393   1.524   5.049 -1.0791  0.1318 -1.5332
18072SOL    HW255658   5.373   1.669   5.009  1.0668  0.6695 -0.7775
18073SOL     OW55659   3.072   6.743   8.669 -0.1520 -0.3363  0.1479
18073SOL    HW155660   3.139   6.699   8.616  0.0623 -1.4284  1.3016
18073SOL    HW255661   3.003   6.678   8.679 -0.9138  0.4197 -0.1235
18074SOL     OW55662   2.864   3.369  11.414  0.2063 -0.1436  0.0622
18074SOL    HW155663   2.800   3.313  11.370 -0.7943  1.4772 -0.6346
18074SOL    HW255664   2.836   3.458  11.394  1.9132  0.6294  0.8894
18075SOL     OW55665   1.372   7.904   0.150  0.2322 -0.4871  0.3201
18075SOL    HW155666   1.409   7.824   0.114  1.0647  0.0928 -0.1566
18075SOL    HW255667   1.445   7.966   0.150 -0.2421  0.0891  1.2472
18076SOL     OW55668   2.645   6.338   6.480 -0.0385  0.2027  0.0529
18076SOL    HW155669   2.710   6.352   6.411  0.6820 -1.1141  0.4167
18076SOL    HW255670   2.561   6.339   6.434  0.4253 -0.5924 -0.8587
18077SOL     OW55671   6.150   3.045   2.101  0.7598 -0.2590 -0.0427
18077SOL    HW155672   6.170   3.074   2.190  0.6455 -0.2583 -0.0178
18077SOL    HW255673   6.199   3.105   2.045 -1.1893  1.4072 -0.0800
18078SOL     OW55674   4.823   2.550  10.169  0.3776 -0.3744 -0.0988
18078SOL    HW155675   4.803   2.642  10.184  0.3740 -0.2946 -0.5622
18078SOL    HW255676   4.755   2.502  10.215  0.3868 -0.1426  0.1543
18079SOL     OW55677   2.073   0.005   4.440  0.0967 -0.0953  0.1328
18079SOL    HW155678   2.121  -0.065   4.484  1.0785  0.4841  0.0154
18079SOL    HW255679   2.104   0.085   4.482  0.8493  0.4511 -1.3881
18080SOL     OW55680   4.290   1.880   9.340  0.0898  0.1167  0.0954
18080SOL    HW155681   4.350   1.817   9.301  0.3860  0.9839 -0.9106
18080SOL    HW255682   4.203   1.846   9.320  0.2472  0.0528 -0.5072
18081SOL     OW55683   1.244   6.329   7.472 -0.2233 -0.6334  1.0416
18081SOL    HW155684   1.294   6.364   7.399 -0.2320 -1.6188  0.5429
18081SOL    HW255685   1.162   6.298   7.433 -1.2193  0.8582  1.8256
18082SOL     OW55686   1.353   2.947   7.907 -0.1598 -0.4081 -0.2335
18082SOL    HW155687   1.333   2.943   8.000  1.1491 -2.1130  0.0259
18082SOL    HW255688   1.440   2.988   7.903 -1.0449  1.5369 -0.8997
18083SOL     OW55689   6.793   6.169  11.391  0.3953 -0.0726  0.0662
18083SOL    HW155690   6.879   6.182  11.430  0.7916  0.2041 -0.8668
18083SOL    HW255691   6.771   6.078  11.412  0.6819  0.0087  0.7466
18084SOL     OW55692   5.874   5.922   8.604 -0.3315 -0.0199 -0.2521
18084SOL    HW155693   5.791   5.920   8.556  0.1750  0.4285 -1.1679
18084SOL    HW255694   5.848   5.910   8.696 -1.2310 -1.7592 -0.6877
18085SOL     OW55695   2.177   4.049   5.339  0.4905  0.3509 -0.2861
18085SOL    HW155696   2.225   4.021   5.261 -1.5241 -1.1000 -1.1223
18085SOL    HW255697   2.202   3.986   5.407  0.6725  0.3408 -0.3630
18086SOL     OW55698   1.429   6.465   3.920  0.0847  0.6690 -0.5281
18086SOL    HW155699   1.438   6.559   3.909  1.4031  0.6893  0.4662
18086SOL    HW255700   1.451   6.428   3.834 -0.4205  1.2546 -0.9128
18087SOL     OW55701   7.323   3.428  12.322  0.2306  0.5621  0.4909
18087SOL    HW155702   7.320   3.419  12.227  1.9037 -0.0017  0.4538
18087SOL    HW255703   7.416   3.425  12.344 -0.1382 -0.0005  2.2091
18088SOL     OW55704   4.118   2.794   3.498 -0.7464 -0.5668 -0.0400
18088SOL    HW155705   4.035   2.754   3.472 -1.3570 -0.3039  1.3974
18088SOL    HW255706   4.108   2.810   3.592  1.3658 -1.5311  0.3853
18089SOL     OW55707   7.855   3.046   1.583 -0.6562 -0.4822  0.3415
18089SOL    HW155708   7.913   3.116   1.614 -0.4147 -1.3250  1.8760
18089SOL    HW255709   7.767   3.084   1.588 -0.3366  0.6979 -1.7133
18090SOL     OW55710   4.415   0.337   8.897 -0.3459  0.0994  0.6372
18090SOL    HW155711   4.431   0.258   8.948 -2.7166 -1.0240 -0.2039
18090SOL    HW255712   4.336   0.317   8.847  0.1300  2.2925 -1.1219
18091SOL     OW55713   2.467   3.529   3.032 -0.2146  0.0963 -0.0191
18091SOL    HW155714   2.552   3.559   3.064 -0.0826  1.3519 -1.4052
18091SOL    HW255715   2.473   3.434   3.032  1.4937  0.1738 -0.8330
18092SOL     OW55716   5.686   6.879   2.147 -0.4185  0.7521 -0.1437
18092SOL    HW155717   5.756   6.840   2.095  0.8981  3.9704 -1.0916
18092SOL    HW255718   5.622   6.910   2.082 -1.5404 -0.0097  0.5633
18093SOL     OW55719   2.022   5.058   5.116 -0.3854 -0.0649 -0.4373
18093SOL    HW155720   1.929   5.036   5.122 -0.4176  0.2264  0.1746
18093SOL    HW255721   2.023   5.149   5.085 -0.2954 -0.2072 -0.8550
18094SOL     OW55722   6.466   2.400   8.582 -0.0987  0.5460  0.3222
18094SOL    HW155723   6.372   2.413   8.572  0.2779  1.8208 -2.5959
18094SOL    HW255724   6.495   2.476   8.634 -0.3836  1.5329 -0.9218
18095SOL     OW55725   3.324   1.259   4.218  0.7003  0.4620 -0.7166
18095SOL    HW155726   3.232   1.276   4.197  0.9934  0.7828 -1.8246
18095SOL    HW255727   3.331   1.273   4.312 -0.1839  1.3770 -0.7744
18096SOL     OW55728   4.410   1.231   9.909 -0.3611  0.1554  0.1639
18096SOL    HW155729   4.433   1.207   9.819  2.1524 -0.4614  0.8893
18096SOL    HW255730   4.403   1.327   9.907 -2.4227  0.0494 -1.0574
18097SOL     OW55731   0.333   0.351   8.742 -0.1327  0.2301 -0.0950
18097SOL    HW155732   0.348   0.324   8.651 -2.3872  0.3084 -0.5438
18097SOL    HW255733   0.354   0.444   8.743  0.1180  0.1811 -0.4715
18098SOL     OW55734   4.035   5.177   6.404 -0.1521 -0.0714 -0.1582
18098SOL    HW155735   4.021   5.098   6.351  1.0978  0.7869 -1.8885
18098SOL    HW255736   4.099   5.151   6.470 -2.3161 -1.3781  1.5630
18099SOL     OW55737   4.034   2.807   6.725  0.7224  0.3519  0.2556
18099SOL    HW155738   4.096   2.782   6.793 -1.6450 -2.4492  1.6407
18099SOL    HW255739   3.958   2.842   6.772  0.4821  2.0080 -1.2414
18100SOL     OW55740   2.647   3.179   1.929 -0.1212  0.0800 -0.2594
18100SOL    HW155741   2.699   3.200   1.852 -0.2715 -0.8424 -0.6314
18100SOL    HW255742   2.662   3.085   1.942  0.4505  0.3528  1.2478
18101SOL     OW55743   4.167   0.111   0.438  0.4460 -0.0305  0.2393
18101SOL    HW155744   4.199   0.194   0.472  1.0900  0.1719 -0.7956
18101SOL    HW255745   4.245   0.055   0.434 -0.2595 -1.3163  2.5648
18102SOL     OW55746   2.315   5.225   4.822  0.2360 -0.2411 -0.5091
18102SOL    HW155747   2.300   5.315   4.794  0.7962 -0.0616 -0.2499
18102SOL    HW255748   2.236   5.178   4.796  0.2603  0.1632 -1.3547
18103SOL     OW55749   5.095   5.257  10.023  0.3469  0.4416  0.3957
18103SOL    HW155750   5.080   5.202   9.946 -0.5230  0.0604  0.8272
18103SOL    HW255751   5.188   5.246  10.043  0.3082 -0.4183  0.1259
18104SOL     OW55752   5.006   6.239   4.764  0.0028 -0.2278 -0.0470
18104SOL    HW155753   5.039   6.325   4.789 -0.7045 -0.2303  0.9283
18104SOL    HW255754   4.924   6.229   4.813 -0.1612 -1.2594 -0.5082
18105SOL     OW55755   1.115   3.894   6.378  0.1732  0.1854  0.2205
18105SOL    HW155756   1.087   3.967   6.434  1.7044  0.5966  0.5254
18105SOL    HW255757   1.202   3.921   6.346  0.1941 -0.9357 -0.7313
18106SOL     OW55758   7.417   2.477   0.329  0.2966  0.1022 -0.0603
18106SOL    HW155759   7.403   2.566   0.362  0.6513 -0.1265  0.7376
18106SOL    HW255760   7.347   2.425   0.368  1.5124 -0.4405  1.4829
18107SOL     OW55761   3.336   7.465   1.705 -0.7630  0.2465  0.1926
18107SOL    HW155762   3.316   7.519   1.782 -0.6739  0.3495  0.1439
18107SOL    HW255763   3.416   7.503   1.670  0.5309 -1.2211  1.3888
18108SOL     OW55764   2.895   5.675   1.988  0.0834 -0.6064  0.2909
18108SOL    HW155765   2.870   5.736   2.057 -0.1441  2.0594 -1.9888
18108SOL    HW255766   2.813   5.635   1.960 -0.1287 -0.0352  0.0916
18109SOL     OW55767   2.777   5.507  10.651 -0.2811 -0.0650  0.0606
18109SOL    HW155768   2.845   5.485  10.715 -1.7104  1.1207  2.0979
18109SOL    HW255769   2.739   5.422  10.627  1.6763 -0.7167 -0.9044
18110SOL     OW55770   4.258   6.915   1.360  0.3702 -0.0864  0.0902
18110SOL    HW155771   4.185   6.976   1.362  1.2129  1.0498 -1.4539
18110SOL    HW255772   4.221   6.832   1.391 -1.4016  0.6125 -0.0391
18111SOL     OW55773   1.179   1.324   7.650 -0.2306 -0.1900  0.4839
18111SOL    HW155774   1.165   1.337   7.556  0.9152 -0.8217  0.1987
18111SOL    HW255775   1.148   1.235   7.667 -1.9465  0.4780  1.0677
18112SOL     OW55776   4.337   2.594   4.307 -0.7432  0.0994 -0.5579
18112SOL    HW155777   4.341   2.666   4.245  1.6953 -0.2988 -0.9725
18112SOL    HW255778   4.345   2.636   4.393 -0.3836  0.4086 -0.7394
18113SOL     OW55779   0.198   7.635   1.507 -0.3649  0.1128  0.0684
18113SOL    HW155780   0.221   7.716   1.462 -0.3408 -0.0617 -0.2396
18113SOL    HW255781   0.173   7.575   1.437 -0.9126  0.0254  0.3376
18114SOL     OW55782   4.686   1.333   7.871 -0.4333  0.6108 -0.1145
18114SOL    HW155783   4.766   1.287   7.846 -1.5602 -1.7431  0.2692
18114SOL    HW255784   4.716   1.413   7.914  1.7349 -0.4457  0.4839
18115SOL     OW55785   4.011   6.133   4.966 -0.2021 -0.9045  0.1774
18115SOL    HW155786   3.951   6.139   5.040  2.4860  0.4169  2.4576
18115SOL    HW255787   4.046   6.044   4.971 -0.9367 -1.2244 -0.3000
18116SOL     OW55788   7.059   5.349  12.046  0.3520 -0.2438 -0.2577
18116SOL    HW155789   7.095   5.306  11.968  0.9327  0.6511 -0.4956
18116SOL    HW255790   7.136   5.378  12.095  0.0116  2.0822 -0.9788
18117SOL     OW55791   5.594   2.084   2.450  0.0179  0.4443  0.3502
18117SOL    HW155792   5.596   2.095   2.545 -0.5615  1.1217  0.2962
18117SOL    HW255793   5.677   2.120   2.420  0.4991 -0.4016  0.6538
18118SOL     OW55794   0.438   3.139  11.723 -0.5587  0.3717 -0.3460
18118SOL    HW155795   0.345   3.125  11.706 -0.7079 -0.6827  1.1900
18118SOL    HW255796   0.482   3.092  11.652 -1.1417  2.7986 -2.4558
18119SOL     OW55797   3.611   0.918   7.772  1.0120  0.5030  0.2577
18119SOL    HW155798   3.670   0.957   7.708  1.5463  0.7727  0.8946
18119SOL    HW255799   3.593   0.830   7.740  0.2740  1.0486 -0.8963
18120SOL     OW55800   6.632   7.105   2.955 -0.0622  0.0855  0.0606
18120SOL    HW155801   6.585   7.041   2.902  0.7771 -1.8504  1.5243
18120SOL    HW255802   6.720   7.107   2.919  0.5364 -1.3044  1.3405
18121SOL     OW55803   7.163   3.588   6.392  0.6978 -0.4368  0.4127
18121SOL    HW155804   7.144   3.601   6.485  0.7348 -1.4891  0.5900
18121SOL    HW255805   7.106   3.515   6.367  0.6533 -0.1233 -0.4083
18122SOL     OW55806   0.263   4.221   8.125 -0.5060 -0.0269  0.3573
18122SOL    HW155807   0.342   4.274   8.117  1.7262 -3.1713 -0.6665
18122SOL    HW255808   0.226   4.245   8.210  0.8339  2.4117  0.3332
18123SOL     OW55809   5.138   2.213   8.327 -0.0464 -0.3325  0.9474
18123SOL    HW155810   5.211   2.152   8.320  1.2751  1.2286  0.5219
18123SOL    HW255811   5.178   2.297   8.349 -1.6202  0.7905 -0.1760
18124SOL     OW55812   3.391   7.169   3.489  0.4657 -0.5352  0.0622
18124SOL    HW155813   3.351   7.130   3.567 -0.9694  0.1700 -0.2921
18124SOL    HW255814   3.433   7.249   3.521  0.8111 -0.8013  0.2817
18125SOL     OW55815   4.757   6.487   7.813  0.2435 -0.1110  0.1959
18125SOL    HW155816   4.844   6.511   7.843 -0.1693  0.3639  1.0316
18125SOL    HW255817   4.700   6.558   7.844 -0.3404 -0.0386 -0.9536
18126SOL     OW55818   1.045   6.106  12.160  0.2515 -0.2668 -0.0945
18126SOL    HW155819   1.081   6.068  12.080  1.3695  1.5474 -0.5108
18126SOL    HW255820   1.122   6.134  12.210 -0.4642  2.1728 -0.2217
18127SOL     OW55821   2.353   2.828   0.976  0.2941  0.6009 -0.3092
18127SOL    HW155822   2.330   2.792   0.891  0.5873  1.3937 -0.7278
18127SOL    HW255823   2.448   2.815   0.982  0.0418 -1.2011  0.7327
18128SOL     OW55824   2.874   3.875   9.932 -0.5273 -0.5840  0.1110
18128SOL    HW155825   2.890   3.785   9.904  1.7836 -0.9476  2.2553
18128SOL    HW255826   2.940   3.926   9.885 -1.6497  0.0007 -0.8813
18129SOL     OW55827   3.016   1.486  11.360  0.2927 -0.5524  0.3792
18129SOL    HW155828   3.078   1.475  11.287 -1.5881  2.4772 -1.9465
18129SOL    HW255829   2.944   1.427  11.339 -1.5143  2.1677 -2.0430
18130SOL     OW55830   2.668   4.679   2.747 -0.5424 -0.7608 -0.1175
18130SOL    HW155831   2.748   4.689   2.695 -0.0494  1.1421  0.9005
18130SOL    HW255832   2.692   4.617   2.816 -0.1678 -0.7285 -0.2169
18131SOL     OW55833   3.224   5.311   5.352  0.2078 -0.0361  0.2485
18131SOL    HW155834   3.170   5.375   5.306 -2.2885 -2.1526  0.0435
18131SOL    HW255835   3.264   5.259   5.282  1.3467  0.5309  0.4410
18132SOL     OW55836   5.226   2.822   4.134 -0.5803 -0.2559  0.1737
18132SOL    HW155837   5.206   2.821   4.040  1.5354 -2.7417 -0.3805
18132SOL    HW255838   5.267   2.907   4.150 -2.5393  0.9165 -0.6985
18133SOL     OW55839   3.852   5.113   5.037  0.5628  0.5726  0.3308
18133SOL    HW155840   3.826   5.120   4.945 -0.0679  1.6544  0.5816
18133SOL    HW255841   3.936   5.066   5.034 -1.0607 -2.6275 -0.5385
18134SOL     OW55842   1.528   4.096   4.743 -0.0136  0.5718  0.0458
18134SOL    HW155843   1.610   4.046   4.738  1.2289  2.3630  1.3102
18134SOL    HW255844   1.530   4.152   4.666  0.5450  1.4128  0.6518
18135SOL     OW55845   2.735   2.280   9.139 -0.2130 -0.2674 -0.4170
18135SOL    HW155846   2.741   2.368   9.103  0.0345  0.3325  0.9898
18135SOL    HW255847   2.809   2.275   9.201 -0.7125 -1.1544  0.1321
18136SOL     OW55848   7.020   5.483   5.414  0.1458 -0.3011 -0.0148
18136SOL    HW155849   6.940   5.441   5.385 -2.0029  2.9127  0.7670
18136SOL    HW255850   7.083   5.466   5.344 -1.5726 -1.8602 -1.2728
18137SOL     OW55851   7.869   3.219  12.094  0.5397 -0.3398  0.6013
18137SOL    HW155852   7.841   3.133  12.064  0.8762  0.0683 -1.0007
18137SOL    HW255853   7.958   3.229  12.059  0.7799  0.3621  1.3726
18138SOL     OW55854   4.792   7.979  11.283  0.6700 -0.1880  0.2402
18138SOL    HW155855   4.804   8.031  11.203  0.5623  0.2330  0.4944
18138SOL    HW255856   4.820   8.036  11.354  2.0305 -1.0359  0.4098
18139SOL     OW55857   5.462   2.395   2.696 -0.6321 -0.0590  0.0117
18139SOL    HW155858   5.406   2.332   2.741 -1.0326  0.3059  0.0333
18139SOL    HW255859   5.448   2.378   2.603 -1.1047  0.3061  0.0112
18140SOL     OW55860   0.363   2.044   3.862  0.2795 -0.1672 -0.3138
18140SOL    HW155861   0.455   2.018   3.868 -0.0513 -2.4617 -3.1124
18140SOL    HW255862   0.362   2.114   3.797  0.1360  1.0235  0.9030
18141SOL     OW55863   4.589   1.022   3.926 -0.0514 -0.6853 -0.0041
18141SOL    HW155864   4.566   1.071   4.006 -0.4795 -0.6222 -0.1623
18141SOL    HW255865   4.661   1.071   3.888 -1.8335  1.1132 -1.3139
18142SOL     OW55866   3.773   2.113   7.694  0.0322 -0.1469 -0.0157
18142SOL    HW155867   3.746   2.134   7.783 -3.2833 -0.8639 -0.7310
18142SOL    HW255868   3.858   2.071   7.704  0.0168  0.2959  2.7246
18143SOL     OW55869   2.089   3.695  12.233 -0.2899  0.0575 -0.2618
18143SOL    HW155870   2.123   3.608  12.212 -1.4756 -0.3948 -0.4295
18143SOL    HW255871   2.091   3.699  12.328  0.2361  0.0450 -0.2723
18144SOL     OW55872   5.139   3.426   6.434  0.1165  0.2487 -0.3312
18144SOL    HW155873   5.183   3.343   6.454 -1.7534 -0.7510 -0.1475
18144SOL    HW255874   5.072   3.402   6.370 -0.3677  1.6553 -0.3847
18145SOL     OW55875   2.215   0.306   5.965  0.4618 -0.2640  0.7356
18145SOL    HW155876   2.144   0.265   5.916  0.8108  0.3434 -0.3284
18145SOL    HW255877   2.240   0.381   5.911  2.8657 -1.2666  0.3421
18146SOL     OW55878   1.759   7.550   1.900  0.7181  0.5293  0.2656
18146SOL    HW155879   1.753   7.642   1.876  2.1124  0.3399 -0.9945
18146SOL    HW255880   1.671   7.527   1.931  0.1329  2.0671 -0.1676
18147SOL     OW55881   0.037   2.428   0.759 -0.3790  0.1693 -0.3400
18147SOL    HW155882   0.048   2.520   0.783  1.1375 -0.3169  0.9840
18147SOL    HW255883  -0.042   2.427   0.705  1.8771  2.8890 -4.1045
18148SOL     OW55884   4.207   5.606   8.596 -0.4333 -0.1776  0.1715
18148SOL    HW155885   4.265   5.534   8.574 -1.5918 -0.8315 -0.8687
18148SOL    HW255886   4.220   5.619   8.690  0.1150 -1.4494  0.2914
18149SOL     OW55887   6.404   0.666  11.028 -0.6749 -0.2325 -0.4137
18149SOL    HW155888   6.461   0.743  11.038 -1.2283 -0.0533  1.7595
18149SOL    HW255889   6.430   0.629  10.943  0.2876  1.7737 -1.0768
18150SOL     OW55890   1.492   6.251   5.717  0.0883 -0.3019 -0.4529
18150SOL    HW155891   1.554   6.183   5.744 -0.5371 -0.8113 -0.2640
18150SOL    HW255892   1.457   6.218   5.634  0.6500  0.3704 -0.9693
18151SOL     OW55893   4.898   1.371   5.396 -0.1976  0.3271  0.3348
18151SOL    HW155894   4.816   1.386   5.348 -1.3238 -1.1018  1.6902
18151SOL    HW255895   4.965   1.366   5.328 -1.6263 -0.9976 -1.0577
18152SOL     OW55896   2.643   0.310   9.392  0.3440  0.3652 -0.5949
18152SOL    HW155897   2.715   0.247   9.389  0.8778  0.7346  1.9774
18152SOL    HW255898   2.680   0.386   9.437 -1.6744  0.4370  1.1032
18153SOL     OW55899   7.843   3.634  10.069 -0.0004 -0.5273  0.1528
18153SOL    HW155900   7.803   3.631   9.982  1.1476  0.0749 -0.4282
18153SOL    HW255901   7.795   3.703  10.115 -0.0793 -0.2703 -0.3035
18154SOL     OW55902   5.854   0.023   5.655 -0.5398  0.4779 -0.2548
18154SOL    HW155903   5.791   0.094   5.672 -1.5517  0.0219 -1.8319
18154SOL    HW255904   5.814  -0.026   5.583  1.3087 -0.2483 -0.8253
18155SOL     OW55905   3.585   3.667   4.908  0.5359 -0.3977  0.1895
18155SOL    HW155906   3.671   3.652   4.867  0.6680  0.8616 -0.0356
18155SOL    HW255907   3.561   3.755   4.880 -0.5939 -0.5357  0.6980
18156SOL     OW55908   2.893   5.172   3.750  0.2554  0.4666  0.3201
18156SOL    HW155909   2.919   5.152   3.840 -2.3165 -0.9378  0.8398
18156SOL    HW255910   2.857   5.260   3.755  0.2950  0.4677  0.6239
18157SOL     OW55911   4.564   4.211  11.328  0.4023 -0.3318  0.3791
18157SOL    HW155912   4.499   4.172  11.270  0.7145 -0.9916  0.4615
18157SOL    HW255913   4.515   4.275  11.380 -0.1188 -0.6065  0.2319
18158SOL     OW55914   7.848   3.921   7.548 -0.0818  0.2599  0.1134
18158SOL    HW155915   7.935   3.911   7.510  0.5953  0.3506  1.6064
18158SOL    HW255916   7.862   3.923   7.642 -1.7216  0.1009  0.3940
18159SOL     OW55917   5.372   1.766   4.460 -0.3128 -0.1472  0.4738
18159SOL    HW155918   5.449   1.802   4.504 -0.0936  0.2457 -0.2293
18159SOL    HW255919   5.400   1.752   4.370 -0.9924 -0.2222  0.2711
18160SOL     OW55920   6.604   5.602   1.603  0.3551  0.1735 -0.0060
18160SOL    HW155921   6.695   5.622   1.581  0.7028 -0.8800  0.4006
18160SOL    HW255922   6.553   5.632   1.528  1.1672 -0.2953 -0.7501
18161SOL     OW55923   4.230   1.418   1.749 -0.2099  0.3647 -0.3209
18161SOL    HW155924   4.305   1.470   1.776  0.5656 -0.0887 -1.5160
18161SOL    HW255925   4.167   1.481   1.715 -0.5349  0.7809  1.0282
18162SOL     OW55926   3.900   5.502   3.999 -0.4622  0.1733  0.3637
18162SOL    HW155927   3.968   5.494   3.932 -0.6675  0.6201  0.1034
18162SOL    HW255928   3.911   5.423   4.053  0.0585  0.0856  0.1382
18163SOL     OW55929   6.666   0.597  11.512 -1.0970  0.3285  0.0950
18163SOL    HW155930   6.638   0.521  11.462 -0.4006  0.6247 -0.7690
18163SOL    HW255931   6.680   0.665  11.446  1.9929  0.0995  0.3629
18164SOL     OW55932   7.109   0.964   9.488  0.0534 -0.6602 -0.3230
18164SOL    HW155933   7.098   0.877   9.450  0.1605 -0.4351 -0.8862
18164SOL    HW255934   7.191   0.997   9.450 -0.4654  0.0547 -0.8697
18165SOL     OW55935   4.140   1.817   7.941 -0.6461  0.4181  0.0235
18165SOL    HW155936   4.102   1.731   7.923 -1.5347  0.7215  0.3844
18165SOL    HW255937   4.234   1.806   7.925 -0.6779 -0.7425  0.5378
18166SOL     OW55938   5.889   6.983   3.298 -0.5216  0.4313 -0.0163
18166SOL    HW155939   5.976   6.942   3.299 -0.6934 -0.0184 -1.1958
18166SOL    HW255940   5.891   7.046   3.370  0.2044 -0.7531  1.0462
18167SOL     OW55941   4.661   5.397   5.760 -0.1116  0.0307  0.2036
18167SOL    HW155942   4.657   5.385   5.855  0.5605  0.2392  0.2602
18167SOL    HW255943   4.746   5.436   5.744  0.9662 -2.4959 -0.7610
18168SOL     OW55944   6.640   2.071  10.864  0.2166 -0.1233  0.2537
18168SOL    HW155945   6.701   2.036  10.929  0.3670  0.1512  0.2629
18168SOL    HW255946   6.606   2.151  10.904  0.3519  0.0758 -0.0292
18169SOL     OW55947   0.498   6.478   5.069  0.1652 -0.2436 -0.6887
18169SOL    HW155948   0.492   6.510   4.979  0.9212 -2.5729 -1.6415
18169SOL    HW255949   0.535   6.551   5.118  2.5195  0.1730 -2.8677
18170SOL     OW55950   6.466   5.700   2.056  0.4093  0.4590  0.4518
18170SOL    HW155951   6.545   5.718   2.006  0.8164  0.9512  1.2527
18170SOL    HW255952   6.480   5.613   2.093 -0.5113 -0.5345 -1.4306
18171SOL     OW55953   5.210   3.801  12.427 -0.9109  0.1717 -0.1711
18171SOL    HW155954   5.206   3.825  12.335  0.6654  3.2405  0.4470
18171SOL    HW255955   5.149   3.862  12.470 -1.0187 -0.6813  0.9363
18172SOL     OW55956   2.801   7.352   5.977 -0.3598  0.0390 -0.3879
18172SOL    HW155957   2.769   7.441   5.989 -0.3173  0.1738 -1.1912
18172SOL    HW255958   2.796   7.313   6.064  1.3905  1.4052  0.3976
18173SOL     OW55959   3.006   5.047   3.530  0.6636  0.1933  0.0782
18173SOL    HW155960   2.965   5.103   3.595  1.0717 -0.2435  0.7226
18173SOL    HW255961   3.064   4.990   3.580 -0.3265 -1.3606 -0.4650
18174SOL     OW55962   1.429   3.747  12.068 -0.9549 -0.0219  0.7666
18174SOL    HW155963   1.487   3.740  11.993 -2.4132  1.4085 -0.5774
18174SOL    HW255964   1.478   3.709  12.141  1.3138  0.4020 -0.4629
18175SOL     OW55965   4.679   1.053   4.855  0.0556  0.8373  0.4707
18175SOL    HW155966   4.739   1.118   4.892  0.4706 -0.7154  2.6677
18175SOL    HW255967   4.597   1.102   4.843  1.4413  2.8304 -2.0223
18176SOL     OW55968   2.773   2.220   9.513  0.1282 -0.6105  0.3260
18176SOL    HW155969   2.833   2.268   9.455  0.0675 -0.5526  0.3120
18176SOL    HW255970   2.790   2.128   9.493  0.0279 -0.5890  0.1358
18177SOL     OW55971   2.099   7.657  11.324 -0.1450  0.3881 -0.0180
18177SOL    HW155972   2.024   7.601  11.309 -0.7320  0.7189  1.5468
18177SOL    HW255973   2.171   7.597  11.345  0.0729  0.0728 -1.5404
18178SOL     OW55974   3.642   1.012   4.276 -0.1307  0.0087 -0.2517
18178SOL    HW155975   3.690   1.017   4.359  1.3938  0.4565 -1.1325
18178SOL    HW255976   3.693   0.950   4.223 -0.9546 -0.0817 -0.9484
18179SOL     OW55977   6.138   0.419   6.121 -0.4839  0.4716  0.2476
18179SOL    HW155978   6.229   0.437   6.142 -0.6081  1.5014 -0.0250
18179SOL    HW255979   6.118   0.337   6.167  0.4044  0.5418  0.7821
18180SOL     OW55980   3.789   6.788   7.074  0.1346  0.2054  0.2434
18180SOL    HW155981   3.711   6.822   7.116 -3.1782 -1.1658 -4.0496
18180SOL    HW255982   3.775   6.693   7.070  1.4343  0.0329 -1.5959
18181SOL     OW55983   1.334   6.974   8.743 -0.0973  0.4833  0.1589
18181SOL    HW155984   1.266   7.041   8.752 -2.6607 -1.7780 -0.9100
18181SOL    HW255985   1.374   6.992   8.658  0.6143  1.7743  0.7444
18182SOL     OW55986   2.229   2.957   6.953 -0.4643  0.1669  0.3794
18182SOL    HW155987   2.295   2.984   7.017 -0.9083  1.9432  0.1428
18182SOL    HW255988   2.214   3.035   6.900 -0.3774 -1.1547 -1.6760
18183SOL     OW55989   3.774   1.195   1.876  0.4543 -0.4152 -0.5708
18183SOL    HW155990   3.857   1.170   1.836 -1.0726 -2.1640 -2.8778
18183SOL    HW255991   3.707   1.163   1.815 -1.9896 -0.9096  2.1537
18184SOL     OW55992   5.445   5.114   4.958  0.3980 -1.2247 -0.4774
18184SOL    HW155993   5.519   5.081   5.009  0.6769 -0.7134 -0.5511
18184SOL    HW255994   5.431   5.047   4.891 -0.0451 -1.9606  0.3344
18185SOL     OW55995   3.125   2.318   5.387  0.1788 -0.1534  0.3329
18185SOL    HW155996   3.204   2.271   5.413  0.3769  0.9636  1.8627
18185SOL    HW255997   3.067   2.249   5.353  2.0952 -0.8928 -1.7131
18186SOL     OW55998   1.409   3.379   5.374  0.5203  0.3181  0.2246
18186SOL    HW155999   1.447   3.324   5.443  0.2528 -1.7632 -1.1910
18186SOL    HW256000   1.391   3.463   5.417  1.2810 -0.5702  2.4076
18187SOL     OW56001   5.325   4.050  11.926  0.1113 -0.4558 -0.2375
18187SOL    HW156002   5.274   4.129  11.943 -0.8666 -1.0059 -0.5407
18187SOL    HW256003   5.408   4.083  11.890  0.2142  0.4761  0.7966
18188SOL     OW56004   0.415   4.588  12.105  0.0645  0.4792 -0.1173
18188SOL    HW156005   0.467   4.521  12.149  0.3829  1.5847  1.2532
18188SOL    HW256006   0.462   4.604  12.023  1.0561  0.3984  0.4190
18189SOL     OW56007   6.336   3.895   9.319  0.6640 -0.2186  0.1141
18189SOL    HW156008   6.330   3.941   9.235  0.2633 -1.1296 -0.3806
18189SOL    HW256009   6.255   3.843   9.323  1.3424 -1.2749  0.4071
18190SOL     OW56010   3.382   2.246  11.871  0.2935 -0.2548  0.3595
18190SOL    HW156011   3.332   2.165  11.862  0.4908 -0.1720 -1.8830
18190SOL    HW256012   3.450   2.240  11.805  0.9934  1.2637  0.9010
18191SOL     OW56013   3.145   1.407  11.111  0.2526  0.0855 -0.3246
18191SOL    HW156014   3.058   1.387  11.076  0.3934  0.4641 -0.8919
18191SOL    HW256015   3.206   1.373  11.046  0.5070  1.6991 -0.9867
18192SOL     OW56016   2.759   6.399   7.734  0.0856  0.0572  0.0974
18192SOL    HW156017   2.827   6.465   7.718  1.1403 -0.7893  0.8667
18192SOL    HW256018   2.807   6.316   7.742 -1.1194 -0.6855 -0.0542
18193SOL     OW56019   5.416   6.582   9.994  0.5699  0.4303 -0.3818
18193SOL    HW156020   5.399   6.677   9.993  0.7735  0.4729 -0.1056
18193SOL    HW256021   5.332   6.542   9.973  1.1458  0.7317 -3.6675
18194SOL     OW56022   6.914   7.443  10.468 -0.0880 -0.0161 -0.3148
18194SOL    HW156023   6.890   7.434  10.376 -2.3342 -0.3325  0.2374
18194SOL    HW256024   6.832   7.463  10.512  1.0288  0.6408  1.5683
18195SOL     OW56025   6.635   4.704   7.558  0.2486  0.0576  0.0397
18195SOL    HW156026   6.605   4.633   7.501 -3.0040  0.6803  0.7427
18195SOL    HW256027   6.611   4.784   7.511 -3.0382  0.5947  2.2549
18196SOL     OW56028   6.269   2.638   3.070 -0.4177 -0.0648  0.2976
18196SOL    HW156029   6.174   2.638   3.075 -0.3817 -0.1949  4.3959
18196SOL    HW256030   6.295   2.726   3.100  0.8142  0.2055 -1.3861
18197SOL     OW56031   7.180   4.287   5.347  0.1409  0.1661  0.8960
18197SOL    HW156032   7.151   4.226   5.280 -2.4220  2.0330  0.1322
18197SOL    HW256033   7.255   4.332   5.308 -0.2750  0.0562 -0.0507
18198SOL     OW56034   4.981   5.610   4.302  0.3994 -0.1007  0.0130
18198SOL    HW156035   4.940   5.601   4.216  0.5893 -1.5651  0.0648
18198SOL    HW256036   5.021   5.525   4.319  1.1973  0.4769  1.1330
18199SOL     OW56037   0.874   3.025   7.874 -0.0557  0.2475  0.0390
18199SOL    HW156038   0.808   3.071   7.823 -1.0403 -0.5306  0.5647
18199SOL    HW256039   0.920   2.970   7.811 -1.2338 -0.6753 -0.0522
18200SOL     OW56040   2.690   2.346   7.872 -0.1605  0.2762  0.3126
18200SOL    HW156041   2.654   2.386   7.951  1.7468 -0.4253  1.5965
18200SOL    HW256042   2.737   2.416   7.828  0.2312  0.2673  0.7157
18201SOL     OW56043   5.502   5.926   0.407  0.1497  0.2105  0.5898
18201SOL    HW156044   5.439   5.911   0.478  0.8342  1.6609  1.5822
18201SOL    HW256045   5.587   5.924   0.451  0.5362  2.0881  0.0234
18202SOL     OW56046   0.425   0.342   5.178 -0.0077 -0.2931 -0.1849
18202SOL    HW156047   0.408   0.435   5.167 -1.6066 -0.4251  0.7123
18202SOL    HW256048   0.374   0.300   5.109  1.9769 -0.4777 -1.6097
18203SOL     OW56049   1.558   3.238   1.122 -0.2609  0.0066 -0.2767
18203SOL    HW156050   1.472   3.279   1.115  0.8649  2.3636 -1.3172
18203SOL    HW256051   1.590   3.264   1.209 -0.0688  0.2576 -0.4215
18204SOL     OW56052   5.222   7.803   1.738 -0.2173 -0.0312 -0.7373
18204SOL    HW156053   5.297   7.821   1.682  0.0780 -1.6348 -0.8977
18204SOL    HW256054   5.182   7.724   1.701 -1.9930  0.7675 -0.6435
18205SOL     OW56055   1.605   1.603   5.872  0.7665  0.0022  0.0113
18205SOL    HW156056   1.537   1.635   5.932 -0.2904 -0.5525 -0.8460
18205SOL    HW256057   1.575   1.632   5.786  1.6046 -0.3077 -0.3890
18206SOL     OW56058   3.478   6.711  10.152 -0.6684 -0.2928  0.2806
18206SOL    HW156059   3.439   6.702  10.065 -1.3000 -0.8584  0.6091
18206SOL    HW256060   3.403   6.733  10.209 -0.5526 -1.6059  0.9656
18207SOL     OW56061   1.040   5.918   7.112 -0.4193  0.6695  0.1023
18207SOL    HW156062   1.089   5.846   7.150 -0.1673  1.2678  0.9357
18207SOL    HW256063   0.948   5.897   7.131 -0.3986  0.2450 -0.2440
18208SOL     OW56064   5.015   4.812  11.177  0.3365 -0.2699 -0.0716
18208SOL    HW156065   5.004   4.726  11.217 -2.5255 -0.2584 -0.6250
18208SOL    HW256066   5.103   4.839  11.202  0.4743 -2.3563  2.0412
18209SOL     OW56067   6.581   7.099   1.611  0.2190  0.1995  0.3341
18209SOL    HW156068   6.593   7.097   1.706  2.9879  0.2933  0.0461
18209SOL    HW256069   6.617   7.183   1.584 -0.2072  0.0116 -0.8734
18210SOL     OW56070   4.789   7.472   2.840 -0.1232  0.4448 -0.2769
18210SOL    HW156071   4.855   7.460   2.772  0.8604 -3.8937  1.1169
18210SOL    HW256072   4.754   7.384   2.855 -1.5687  1.4728  3.5510
18211SOL     OW56073   4.866   6.558   9.383 -0.0168 -0.7665 -0.3314
18211SOL    HW156074   4.930   6.627   9.400  1.0643 -1.3584 -1.7965
18211SOL    HW256075   4.781   6.601   9.390  0.6261  0.6878 -1.1170
18212SOL     OW56076   0.417   2.052   7.979 -0.2671  0.1752  0.1240
18212SOL    HW156077   0.489   2.099   8.022  0.3031 -1.9002  1.6173
18212SOL    HW256078   0.415   2.087   7.891  2.0944  0.8860  0.2810
18213SOL     OW56079   4.015   5.025   2.334 -0.3493 -0.2841 -0.3921
18213SOL    HW156080   3.957   5.059   2.266  0.7664  0.4545 -1.0146
18213SOL    HW256081   3.960   5.020   2.412 -1.1385  0.7890 -0.8505
18214SOL     OW56082   4.030   4.078   9.962  0.0457 -0.3734 -0.0080
18214SOL    HW156083   4.004   4.163   9.928 -0.0767  1.1267  3.4570
18214SOL    HW256084   3.969   4.016   9.923 -0.2329  1.1447 -2.1503
18215SOL     OW56085   1.439   1.856   7.270  0.4622 -0.0313 -0.4995
18215SOL    HW156086   1.406   1.943   7.247  0.6094 -0.3737 -2.0771
18215SOL    HW256087   1.532   1.869   7.286  0.7886 -0.1011 -2.1360
18216SOL     OW56088   0.649   7.626  11.862 -0.8029 -0.7187  0.9276
18216SOL    HW156089   0.621   7.640  11.952 -2.1232 -1.3281  0.6350
18216SOL    HW256090   0.680   7.535  11.861  1.0495 -0.1340  1.1889
18217SOL     OW56091   6.480   0.488   3.677 -0.1368  0.3378  0.2511
18217SOL    HW156092   6.433   0.467   3.758 -0.8772  1.4269  0.1221
18217SOL    HW256093   6.520   0.573   3.693  0.3556  0.2068 -0.2635
18218SOL     OW56094   7.558   7.108   8.352  0.0709 -0.1576 -0.2978
18218SOL    HW156095   7.513   7.058   8.419 -0.1400 -1.9517 -1.7041
18218SOL    HW256096   7.561   7.197   8.387 -2.2488 -0.4917  0.9793
18219SOL     OW56097   3.616   7.311   2.297 -0.1636  0.1038  0.1622
18219SOL    HW156098   3.551   7.241   2.303  0.2377 -0.3029 -0.1751
18219SOL    HW256099   3.566   7.387   2.267 -0.0834 -0.8314 -2.6155
18220SOL     OW56100   0.236   3.979   2.676 -0.0834  0.6991  0.0110
18220SOL    HW156101   0.157   3.971   2.622 -1.2060  1.8910  1.4094
18220SOL    HW256102   0.271   4.065   2.655  0.0272  0.7611  0.4419
18221SOL     OW56103   6.855   6.777   1.395  0.5118 -0.0155  0.0597
18221SOL    HW156104   6.781   6.789   1.455 -1.1770 -3.2792 -1.1330
18221SOL    HW256105   6.819   6.792   1.308  2.0904  1.3027 -0.4284
18222SOL     OW56106   7.143   4.037  11.549  0.3945  0.2486  0.4172
18222SOL    HW156107   7.164   4.129  11.533  1.5819 -0.1967 -0.7949
18222SOL    HW256108   7.228   3.994  11.556 -0.1472 -0.7213  1.2895
18223SOL     OW56109   0.736   7.524   8.207 -0.3169 -0.0473 -0.1429
18223SOL    HW156110   0.660   7.537   8.151 -0.1804 -1.1052 -0.6107
18223SOL    HW256111   0.811   7.540   8.149 -0.1835  0.4967  0.1800
18224SOL     OW56112   6.100   5.543   4.192 -0.0111  0.8582  0.1951
18224SOL    HW156113   6.137   5.457   4.212 -1.2390  0.9360  3.3807
18224SOL    HW256114   6.085   5.542   4.097  1.0210 -1.9793 -0.0134
18225SOL     OW56115   7.494   6.192   9.729 -0.4729  0.6262  0.2070
18225SOL    HW156116   7.568   6.132   9.719 -0.9482 -0.1700  1.2808
18225SOL    HW256117   7.528   6.277   9.699  0.6793  0.1500  0.1049
18226SOL     OW56118   6.122   4.695   5.537  0.0635 -0.2765  0.5701
18226SOL    HW156119   6.092   4.786   5.542  0.7232 -0.0386  0.2158
18226SOL    HW256120   6.194   4.696   5.474  1.3936 -0.6977  2.0332
18227SOL     OW56121   6.949   2.498   6.815 -0.2837  0.4212  0.0091
18227SOL    HW156122   7.038   2.474   6.840 -0.6028  0.6171  1.4001
18227SOL    HW256123   6.934   2.583   6.857 -1.4334 -0.0346  0.5502
18228SOL     OW56124   7.436   4.366   5.234 -0.3563  0.0181 -0.2883
18228SOL    HW156125   7.512   4.319   5.199  0.2492 -0.6505  1.8079
18228SOL    HW256126   7.417   4.433   5.168  1.4812 -0.3898 -1.2946
18229SOL     OW56127   1.218   5.525   3.738 -0.0118  0.0756  0.0673
18229SOL    HW156128   1.262   5.496   3.659  0.1184  2.7304 -0.9440
18229SOL    HW256129   1.153   5.457   3.756  0.3546 -0.8845 -1.9783
18230SOL     OW56130   2.048   3.191  10.576  0.5191  0.4083 -0.1173
18230SOL    HW156131   2.065   3.110  10.529 -0.8091  0.0422 -0.0059
18230SOL    HW256132   1.993   3.243  10.518 -2.5014 -0.7139  1.5412
18231SOL     OW56133   1.173   3.503   1.795 -0.0366  0.2967  0.0156
18231SOL    HW156134   1.207   3.414   1.792 -0.8926  0.0017 -1.5657
18231SOL    HW256135   1.202   3.543   1.713  0.9175  1.7318  0.9822
18232SOL     OW56136   3.912   0.935   5.647  0.0834  0.1338  0.4798
18232SOL    HW156137   3.942   0.881   5.720 -1.9172  0.3028  1.5181
18232SOL    HW256138   3.831   0.893   5.617 -1.1722  2.0874  0.8836
18233SOL     OW56139   7.984   6.918  10.862  0.2865 -0.1816 -0.0461
18233SOL    HW156140   8.023   6.980  10.800  0.7062 -0.1664  0.2302
18233SOL    HW256141   7.889   6.926  10.847  0.2389  1.5405  0.9394
18234SOL     OW56142   5.308   0.827   5.916  0.0477  0.3834 -0.5193
18234SOL    HW156143   5.339   0.888   5.982  1.1089  0.4378 -1.0575
18234SOL    HW256144   5.347   0.743   5.940 -2.4139 -0.4485  0.9642
18235SOL     OW56145   6.876   4.589  10.488 -0.5129  0.0263 -0.1784
18235SOL    HW156146   6.931   4.666  10.474 -0.5985 -0.1822 -1.8711
18235SOL    HW256147   6.896   4.562  10.578  1.2755  0.6448 -0.3446
18236SOL     OW56148   7.189   6.111   0.149 -0.1749 -0.4010  0.4978
18236SOL    HW156149   7.123   6.159   0.199 -1.0181  1.2870 -2.0356
18236SOL    HW256150   7.141   6.071   0.077  0.8357 -3.5588  1.3963
18237SOL     OW56151   3.806   1.706   3.691 -0.2214  0.3339 -0.6998
18237SOL    HW156152   3.729   1.758   3.667  0.2083  0.6984 -1.3186
18237SOL    HW256153   3.794   1.688   3.784 -1.5215 -0.4146 -0.9873
18238SOL     OW56154   3.905   7.476  10.003  0.4389  0.1572  0.1960
18238SOL    HW156155   3.951   7.453   9.923  0.0923 -1.2850  0.3876
18238SOL    HW256156   3.886   7.570   9.994 -0.9797 -0.2810 -2.1238
18239SOL     OW56157   3.661   5.625   4.421 -0.3921 -0.1980  0.0241
18239SOL    HW156158   3.662   5.538   4.382  2.5889  1.2122 -3.6673
18239SOL    HW256159   3.707   5.615   4.505 -0.4583 -2.2109 -0.1487
18240SOL     OW56160   2.588   2.855   5.086 -0.2759 -0.6194 -0.1512
18240SOL    HW156161   2.643   2.907   5.144  0.0633 -1.4633  0.3116
18240SOL    HW256162   2.502   2.855   5.128  0.0342 -1.4467  0.5131
18241SOL     OW56163   7.080   4.204   0.274  0.0569  0.0855 -0.7071
18241SOL    HW156164   7.011   4.270   0.267 -0.9544 -0.9842 -1.2265
18241SOL    HW256165   7.154   4.250   0.313 -1.0782  1.1773  0.2195
18242SOL     OW56166   6.784   7.720   4.502 -0.1670 -0.1625 -0.3068
18242SOL    HW156167   6.747   7.745   4.587  0.6432 -1.8655  0.5979
18242SOL    HW256168   6.854   7.660   4.524  1.9933  1.5541 -2.0690
18243SOL     OW56169   3.467   7.557   4.410  0.6203  0.6489  0.2272
18243SOL    HW156170   3.423   7.542   4.327  0.3450  2.0625  0.0830
18243SOL    HW256171   3.560   7.555   4.389  0.6181 -1.0648  0.2904
18244SOL     OW56172   7.169   5.469   1.421 -0.3091 -0.3083  0.5005
18244SOL    HW156173   7.262   5.477   1.398  0.1975  0.9402  2.7193
18244SOL    HW256174   7.148   5.378   1.404  1.1961 -0.5248 -0.4438
18245SOL     OW56175   7.910   1.459   3.856 -0.0663 -0.3325  0.1225
18245SOL    HW156176   8.002   1.456   3.882 -0.2203 -0.4159  0.6712
18245SOL    HW256177   7.894   1.551   3.835  0.6453 -0.6073 -1.8919
18246SOL     OW56178   6.947   0.127   7.491  0.0162 -0.4485 -0.5885
18246SOL    HW156179   6.858   0.162   7.487  0.2300  1.0542  3.3253
18246SOL    HW256180   6.942   0.052   7.549  1.1838 -0.8339 -0.9450
18247SOL     OW56181   6.058   7.217   1.324 -1.0427  0.1317 -0.0237
18247SOL    HW156182   6.103   7.133   1.330  2.5783  1.9306  1.5586
18247SOL    HW256183   6.029   7.235   1.413 -1.0057  0.9076 -0.1602
18248SOL     OW56184   7.734   5.061   4.631 -0.0288 -0.5062  0.0942
18248SOL    HW156185   7.802   4.998   4.604  0.0247 -0.7969  0.8993
18248SOL    HW256186   7.700   5.096   4.548  1.4998  0.0745 -0.3366
18249SOL     OW56187   6.020   3.136   4.745 -0.4684  0.0229  0.2713
18249SOL    HW156188   5.962   3.126   4.669 -2.3447  1.7643  1.3830
18249SOL    HW256189   6.063   3.220   4.731  1.3043 -0.9318 -0.1850
18250SOL     OW56190   6.129   2.183   2.471  0.8059  0.2657  0.5801
18250SOL    HW156191   6.142   2.265   2.519 -1.4739  0.0840  1.6588
18250SOL    HW256192   6.054   2.141   2.515  1.4790 -2.0927 -0.3470
18251SOL     OW56193   1.744   4.023   7.536  0.8927 -0.3233 -0.2925
18251SOL    HW156194   1.684   3.950   7.523  0.1878 -0.0715  1.2731
18251SOL    HW256195   1.830   3.988   7.515  0.3950 -1.1762 -0.9511
18252SOL     OW56196   4.979   5.696   7.650  0.3405  0.2246 -0.0575
18252SOL    HW156197   4.889   5.720   7.673  0.5399  1.4286 -0.5058
18252SOL    HW256198   4.984   5.711   7.556  1.3552  1.3340  0.1551
18253SOL     OW56199   1.099   4.218  12.271 -0.0588 -0.2634 -0.3857
18253SOL    HW156200   1.133   4.129  12.282 -0.4543 -0.3101  0.5256
18253SOL    HW256201   1.176   4.274  12.276 -0.0613 -0.3801  1.4758
18254SOL     OW56202   7.009   2.519   8.265  0.0752 -0.1554 -0.3409
18254SOL    HW156203   6.952   2.587   8.301 -0.9194  0.5224 -2.9453
18254SOL    HW256204   6.975   2.437   8.300  0.4846  0.5337  1.8242
18255SOL     OW56205   7.391   1.375   7.839 -0.7387  0.5258 -0.1675
18255SOL    HW156206   7.436   1.292   7.853  1.9739  2.1594  1.6328
18255SOL    HW256207   7.433   1.413   7.762 -0.9496  0.8951 -0.1040
18256SOL     OW56208   3.095   1.611   2.024  0.2093  0.0450 -0.4580
18256SOL    HW156209   3.134   1.607   1.936  0.9817 -0.0526 -0.1176
18256SOL    HW256210   3.104   1.522   2.058 -0.7379 -0.0963 -0.5396
18257SOL     OW56211   7.026   3.045  10.594 -0.0906  0.6033 -0.0631
18257SOL    HW156212   7.040   3.140  10.594 -0.4735  0.6865  1.2499
18257SOL    HW256213   6.957   3.031  10.659  0.3201 -0.6242  0.1386
18258SOL     OW56214   6.993   0.250  11.004  0.0935  0.0512 -0.0796
18258SOL    HW156215   6.988   0.313  11.076 -0.9418  0.5989 -0.6012
18258SOL    HW256216   7.086   0.229  10.996  0.5030  1.7580 -0.0890
18259SOL     OW56217   6.137   4.576   7.617 -0.3401 -0.1177 -0.0414
18259SOL    HW156218   6.210   4.612   7.667 -0.2170  1.3496 -1.1957
18259SOL    HW256219   6.139   4.482   7.635  0.4608  0.1956  1.6690
18260SOL     OW56220   0.680   7.557   4.996 -0.0283 -0.1102 -0.4013
18260SOL    HW156221   0.700   7.632   4.941 -2.4122  1.9071  1.2651
18260SOL    HW256222   0.591   7.533   4.971  0.3331 -1.7981 -0.1918
18261SOL     OW56223   0.510   0.267   6.320  0.0441 -0.2857 -0.0745
18261SOL    HW156224   0.535   0.359   6.331 -0.9555  0.0622 -0.5356
18261SOL    HW256225   0.424   0.271   6.278  0.4384 -1.4370 -1.0710
18262SOL     OW56226   6.603   5.655   5.704  0.3990 -0.1429 -0.0817
18262SOL    HW156227   6.565   5.709   5.634 -0.7069  1.2650  1.5369
18262SOL    HW256228   6.689   5.695   5.720  0.0989  0.3916  0.2505
18263SOL     OW56229   1.655   3.795   4.020 -0.6203  0.2916  0.8391
18263SOL    HW156230   1.643   3.790   3.925  1.7114  0.6056  0.4744
18263SOL    HW256231   1.584   3.741   4.056 -0.0648 -1.9643 -1.1958
18264SOL     OW56232   7.252   4.703   9.396  0.7773  0.1715 -0.1707
18264SOL    HW156233   7.317   4.744   9.339  2.1068  1.2977  1.9926
18264SOL    HW256234   7.181   4.768   9.403 -0.7856 -1.1280 -2.6680
18265SOL     OW56235   7.695   3.332   9.622  0.4826 -0.7030  0.2379
18265SOL    HW156236   7.775   3.308   9.669  0.6891  0.2242  0.3720
18265SOL    HW256237   7.667   3.250   9.580  0.3673 -1.5367  1.8513
18266SOL     OW56238   7.908   6.138   7.673  0.7002  0.2608 -0.7532
18266SOL    HW156239   7.884   6.130   7.580  0.8198 -1.5036 -0.6541
18266SOL    HW256240   7.966   6.064   7.690  0.2368  0.2342  0.8789
18267SOL     OW56241   3.280   0.746  11.712  0.1976  0.9064  0.2258
18267SOL    HW156242   3.209   0.809  11.698 -1.7435 -1.6848 -3.5360
18267SOL    HW256243   3.349   0.774  11.651  0.3185  0.7266  0.2778
18268SOL     OW56244   6.213   7.824   8.205 -0.4159  0.3547 -0.2443
18268SOL    HW156245   6.169   7.794   8.126  0.0267 -1.4689  0.1384
18268SOL    HW256246   6.307   7.820   8.184 -0.3321  1.8981 -0.2824
18269SOL     OW56247   3.808   6.952  11.073  0.2339 -0.3593  0.5631
18269SOL    HW156248   3.774   7.038  11.099  0.6189 -0.6413  2.0997
18269SOL    HW256249   3.819   6.905  11.155  1.4221 -1.3674 -0.1411
18270SOL     OW56250   1.532   6.931  10.322  0.1448  0.0291 -0.1736
18270SOL    HW156251   1.613   6.909  10.276  0.5064  1.4240 -0.2726
18270SOL    HW256252   1.473   6.858  10.305  1.0552 -0.5402 -0.9423
18271SOL     OW56253   6.585   6.006  11.943 -0.7410 -0.4048  0.0158
18271SOL    HW156254   6.596   6.039  12.032 -2.6177 -1.7789  0.8164
18271SOL    HW256255   6.553   6.082  11.894 -1.3921 -0.0700  0.9303
18272SOL     OW56256   7.957   2.292   7.082  0.1984  0.1462  0.6362
18272SOL    HW156257   8.025   2.333   7.136  0.7296  0.8713 -0.5541
18272SOL    HW256258   7.913   2.365   7.038  1.6311 -0.5220 -2.0841
18273SOL     OW56259   7.066   4.777  10.420  0.5477 -0.5489 -0.1028
18273SOL    HW156260   7.022   4.804  10.339  3.0138 -0.5767 -1.5671
18273SOL    HW256261   7.106   4.857  10.454  1.6151 -0.9578 -0.3358
18274SOL     OW56262   3.265   5.813   9.545  0.1412  0.7567  0.0401
18274SOL    HW156263   3.358   5.820   9.523  0.3093 -0.6891  0.2012
18274SOL    HW256264   3.263   5.760   9.625 -0.8569  0.3126 -0.2643
18275SOL     OW56265   2.387   3.944   8.278 -0.4142 -0.1964  0.0253
18275SOL    HW156266   2.337   4.025   8.275 -0.0594  0.1055  1.5034
18275SOL    HW256267   2.475   3.970   8.304 -0.0312 -0.9528 -0.4585
18276SOL     OW56268   1.724   7.279   6.650 -0.8709  0.2966 -0.2160
18276SOL    HW156269   1.667   7.267   6.574 -2.5122  1.4864  0.7699
18276SOL    HW256270   1.790   7.342   6.621 -1.9357  1.3318 -0.4411
18277SOL     OW56271   1.045   4.035   4.078 -0.3957 -0.0574 -0.9360
18277SOL    HW156272   1.051   3.987   3.996 -1.7948  0.0164 -1.1036
18277SOL    HW256273   1.002   3.974   4.139  0.7388 -0.1610 -0.1970
18278SOL     OW56274   2.054   3.020   1.678 -0.8745  0.1337 -0.0818
18278SOL    HW156275   2.079   3.110   1.699  0.9826 -0.2610 -0.4183
18278SOL    HW256276   2.133   2.982   1.638 -1.2720 -1.9387  0.9858
18279SOL     OW56277   4.920   0.340   4.908  0.6783 -0.2387 -0.1498
18279SOL    HW156278   5.000   0.385   4.881  0.4086  0.3362 -0.0125
18279SOL    HW256279   4.855   0.366   4.843 -0.1538  1.6906  1.3668
18280SOL     OW56280   0.260   3.229   6.992 -0.4849 -0.2226  0.0456
18280SOL    HW156281   0.280   3.279   7.071  2.0505 -0.5340 -0.2864
18280SOL    HW256282   0.258   3.295   6.922  0.2638 -0.2631 -0.0240
18281SOL     OW56283   4.364   2.440   9.963  0.8433 -0.1462 -0.3664
18281SOL    HW156284   4.357   2.434   9.868 -0.1171  0.2490 -0.3297
18281SOL    HW256285   4.347   2.352   9.994  0.7205 -0.1839 -0.5381
18282SOL     OW56286   5.249   5.423   0.101 -0.0963  0.3919  0.3028
18282SOL    HW156287   5.231   5.483   0.173 -0.6878 -2.0235  2.3397
18282SOL    HW256288   5.163   5.400   0.066  0.1053  0.5612 -0.3233
18283SOL     OW56289   2.071   7.970  11.937 -0.0714  0.3634 -0.0815
18283SOL    HW156290   2.009   7.897  11.931 -0.5098  0.8009 -0.9804
18283SOL    HW256291   2.032   8.028  12.003 -0.4495  0.4790 -0.4048
18284SOL     OW56292   0.981   2.006   0.531  0.0451 -0.2170  0.2693
18284SOL    HW156293   0.966   2.052   0.448  0.9995  1.4203  0.9486
18284SOL    HW256294   0.908   1.944   0.537 -1.9995  1.9627 -0.2316
18285SOL     OW56295   0.677   5.760   0.590  0.5176  0.0402 -0.6394
18285SOL    HW156296   0.585   5.761   0.564  0.1438 -1.4469  0.4665
18285SOL    HW256297   0.702   5.852   0.592 -1.6774  0.7018  1.4269
18286SOL     OW56298   7.889   3.235  10.797  0.2929 -0.8630 -0.3848
18286SOL    HW156299   7.844   3.174  10.739 -0.7582 -0.9589  0.5047
18286SOL    HW256300   7.920   3.181  10.870  1.7623 -0.7742 -0.9213
18287SOL     OW56301   5.864   5.311   1.410  0.2101  0.0621 -0.4503
18287SOL    HW156302   5.807   5.334   1.483  0.6895  0.7411 -0.2753
18287SOL    HW256303   5.929   5.252   1.448  0.6472  0.6677 -0.2529
18288SOL     OW56304   2.271   3.190   6.319 -0.1405  0.0262 -0.1248
18288SOL    HW156305   2.326   3.183   6.397  0.1467 -3.8746 -0.4458
18288SOL    HW256306   2.330   3.215   6.249  0.3620  0.0290  0.2977
18289SOL     OW56307   4.947   3.060   5.869  0.1015  0.2935  0.6851
18289SOL    HW156308   4.930   3.116   5.793  2.2235 -1.6379 -1.3794
18289SOL    HW256309   5.003   3.114   5.926 -1.0271  1.5611  0.6412
18290SOL     OW56310   0.982   0.738  10.443  0.7698 -0.9448 -0.6214
18290SOL    HW156311   1.056   0.799  10.442 -0.2892  0.3755 -0.8117
18290SOL    HW256312   0.978   0.704  10.353  0.9934 -0.8373 -0.6732
18291SOL     OW56313   5.082   1.940  10.336  0.2223 -0.0122 -0.7469
18291SOL    HW156314   5.063   1.893  10.255  1.2222 -0.1877 -0.8943
18291SOL    HW256315   5.139   1.881  10.385  0.8165  0.6911 -0.5682
18292SOL     OW56316   1.035   0.457   1.699  0.3007 -0.3318  0.0034
18292SOL    HW156317   0.942   0.469   1.681  0.4899  0.1378 -0.7329
18292SOL    HW256318   1.038   0.408   1.780 -0.5902 -0.1806  0.1370
18293SOL     OW56319   5.424   2.001  10.771  0.3094  0.3299  0.2295
18293SOL    HW156320   5.358   2.070  10.782  0.4892  0.5931 -0.2869
18293SOL    HW256321   5.506   2.041  10.800 -0.0379 -0.6001  2.6763
18294SOL     OW56322   2.777   4.224   9.873 -0.4941 -0.3295  0.0061
18294SOL    HW156323   2.808   4.310   9.901 -0.9491 -0.1454 -0.0336
18294SOL    HW256324   2.682   4.235   9.866 -0.5255 -0.7620 -0.2569
18295SOL     OW56325   6.027   1.343   5.353 -0.3114  0.7313  0.2332
18295SOL    HW156326   5.983   1.264   5.385  0.4239  1.3378  2.9539
18295SOL    HW256327   5.957   1.407   5.344 -0.4521  0.7797  1.4961
18296SOL     OW56328   2.964   2.119  11.783  0.2424 -0.2001  0.5065
18296SOL    HW156329   2.990   2.060  11.854 -0.3523  0.3287  1.1805
18296SOL    HW256330   3.021   2.095  11.710  1.3930 -0.2347  1.3915
18297SOL     OW56331   6.550   2.778   0.565 -0.3559 -0.2689  0.1865
18297SOL    HW156332   6.583   2.713   0.503 -0.8367 -0.2507 -0.0850
18297SOL    HW256333   6.587   2.750   0.649  2.0225  0.8836 -0.3924
18298SOL     OW56334   4.234   7.799   6.573  0.1980  0.0279 -0.9015
18298SOL    HW156335   4.272   7.854   6.642  0.5475 -0.0695 -1.0125
18298SOL    HW256336   4.219   7.859   6.500  1.5393 -0.1989 -1.3926
18299SOL     OW56337   5.179   5.655   5.744  0.0220  0.1781  0.1783
18299SOL    HW156338   5.118   5.679   5.814 -0.7243  0.4769 -0.5588
18299SOL    HW256339   5.252   5.612   5.790 -0.9930 -0.6921  1.0265
18300SOL     OW56340   5.113   6.760   6.204  0.1900  0.0158  0.0397
18300SOL    HW156341   5.189   6.741   6.149  0.6770  0.9004  0.3948
18300SOL    HW256342   5.062   6.679   6.202  0.2200 -0.0093 -1.6649
18301SOL     OW56343   2.007   5.693   1.717  0.0688 -0.0591  0.3347
18301SOL    HW156344   2.079   5.732   1.767 -0.6233 -0.0708  1.3674
18301SOL    HW256345   1.978   5.619   1.770 -0.6831 -0.0836 -0.0959
18302SOL     OW56346   2.805   7.037  11.118  0.1682  0.3644  0.2366
18302SOL    HW156347   2.851   6.953  11.114 -0.5364 -0.1205 -5.3562
18302SOL    HW256348   2.713   7.014  11.109 -0.0965  1.6393 -0.6157
18303SOL     OW56349   2.929   0.480   2.155  0.0925  0.5547  0.1494
18303SOL    HW156350   2.951   0.471   2.062 -0.7844 -1.0725  0.0560
18303SOL    HW256351   2.833   0.485   2.156  0.0400 -0.3215  1.0038
18304SOL     OW56352   2.105   7.139   7.065 -1.1547 -0.1199  0.3406
18304SOL    HW156353   2.180   7.104   7.112 -0.2527 -0.5958 -1.3664
18304SOL    HW256354   2.074   7.211   7.119 -0.3978 -0.8577  1.8098
18305SOL     OW56355   2.281   2.940   1.544 -0.7882 -0.0576  0.3161
18305SOL    HW156356   2.315   2.851   1.534  0.8096  0.5420  0.2005
18305SOL    HW256357   2.280   2.975   1.455  0.9932  0.8663  0.6223
18306SOL     OW56358   1.967   0.975   7.663 -0.1133  0.3896 -0.5892
18306SOL    HW156359   2.042   0.998   7.718 -0.7753  0.8761  0.1119
18306SOL    HW256360   1.906   1.048   7.672 -1.0352 -0.3698 -0.5211
18307SOL     OW56361   0.471   0.281   3.364 -0.2103 -0.0467 -0.0980
18307SOL    HW156362   0.459   0.248   3.275 -0.1792 -0.8382  0.1911
18307SOL    HW256363   0.566   0.283   3.376 -0.2093  0.2298 -0.1410
18308SOL     OW56364   0.600   3.166   3.671  0.7881 -0.3380  0.9544
18308SOL    HW156365   0.678   3.221   3.659  1.5943 -1.6248  0.0247
18308SOL    HW256366   0.626   3.080   3.639 -0.9550 -0.8718  0.8558
18309SOL     OW56367   7.823   3.826   1.127 -0.0577 -0.4257  0.2538
18309SOL    HW156368   7.841   3.889   1.056 -2.1083 -0.1964 -0.1122
18309SOL    HW256369   7.858   3.869   1.205  1.4337 -0.2840 -0.4393
18310SOL     OW56370   2.436   1.692   9.948  0.0912  0.0364  0.4573
18310SOL    HW156371   2.389   1.770   9.979  1.8365  1.1127  0.5384
18310SOL    HW256372   2.526   1.704   9.980  1.4733  0.1011 -2.9944
18311SOL     OW56373   7.252   1.981   1.171 -0.4933  0.1494 -0.0482
18311SOL    HW156374   7.289   2.045   1.110 -2.0120  0.5301 -0.6026
18311SOL    HW256375   7.319   1.912   1.178  0.2948  0.8041 -1.0198
18312SOL     OW56376   3.003   5.415   1.988  0.4319  0.1989  0.2719
18312SOL    HW156377   2.980   5.507   2.007  0.3960  0.3848 -0.6391
18312SOL    HW256378   2.920   5.368   1.994 -0.0863  0.7119 -2.0656
18313SOL     OW56379   0.713   1.112   6.655 -0.2291 -0.3296  0.8666
18313SOL    HW156380   0.670   1.047   6.710 -0.9290 -0.9402 -0.3684
18313SOL    HW256381   0.807   1.091   6.662 -0.5347 -2.6506 -0.8952
18314SOL     OW56382   0.698   2.679  11.256 -0.4895 -0.3908  0.3302
18314SOL    HW156383   0.656   2.690  11.342 -0.8666  0.0715  0.0875
18314SOL    HW256384   0.791   2.694  11.274 -0.4949 -0.8338  0.7594
18315SOL     OW56385   0.025   3.921   4.083 -0.0873  0.4891 -0.7027
18315SOL    HW156386  -0.049   3.983   4.082 -0.0771  0.5554  0.9276
18315SOL    HW256387   0.072   3.940   4.002 -0.9827  1.5275 -1.0064
18316SOL     OW56388   7.654   5.345   8.343 -0.0589  0.8044 -0.0794
18316SOL    HW156389   7.632   5.439   8.344  3.3829  1.7554  1.4076
18316SOL    HW256390   7.635   5.315   8.432  0.4781  0.5649 -0.0401
18317SOL     OW56391   2.958   6.752   6.108 -0.4354 -0.7790  0.3546
18317SOL    HW156392   2.862   6.756   6.113 -0.3605  0.4332  1.4733
18317SOL    HW256393   2.986   6.744   6.199  0.5684  0.9313  0.2287
18318SOL     OW56394   0.387   4.939   9.982  0.6217  0.6827 -0.1503
18318SOL    HW156395   0.398   5.023  10.026  1.5547 -0.1714  1.3175
18318SOL    HW256396   0.324   4.892  10.037  2.0307 -0.5186  0.4867
18319SOL     OW56397   6.782   3.388   8.995  0.0312 -0.7753  0.2373
18319SOL    HW156398   6.809   3.381   8.904  1.1367 -0.5340  0.5327
18319SOL    HW256399   6.688   3.368   8.994 -0.7668  2.3932 -1.4181
18320SOL     OW56400   1.006   5.354  11.507 -0.3639  0.0636  0.3777
18320SOL    HW156401   0.935   5.384  11.564 -1.3388 -1.0922 -0.1789
18320SOL    HW256402   0.991   5.400  11.424  0.6596  1.2353  0.8175
18321SOL     OW56403   2.010   4.340   6.453 -0.1053 -0.0027  0.2148
18321SOL    HW156404   1.952   4.409   6.419 -1.0909 -0.8363  0.1432
18321SOL    HW256405   2.087   4.344   6.397  0.9769  2.6547  1.7371
18322SOL     OW56406   2.413   7.897   1.095  0.0669  0.0217 -0.2047
18322SOL    HW156407   2.385   7.806   1.105  0.2085  0.2567  4.6225
18322SOL    HW256408   2.336   7.941   1.060 -0.7587 -1.5904 -0.5220
18323SOL     OW56409   2.501   4.364   9.441  0.6810  0.0179 -0.1242
18323SOL    HW156410   2.572   4.363   9.377 -0.1012 -0.7213 -1.0117
18323SOL    HW256411   2.492   4.273   9.468  1.1749  0.3530  1.2723
18324SOL     OW56412   4.519   6.158  11.854  0.1104  0.2721 -0.1794
18324SOL    HW156413   4.466   6.237  11.858  0.7793  0.6864  1.6301
18324SOL    HW256414   4.578   6.172  11.780 -1.3745  0.3896 -1.3617
18325SOL     OW56415   0.054   6.663   9.940 -0.0106  0.0746 -0.3442
18325SOL    HW156416   0.115   6.689  10.009  0.7017  0.3841 -1.0886
18325SOL    HW256417   0.068   6.726   9.870 -1.4272  0.3698 -0.4092
18326SOL     OW56418   5.032   5.174   7.742 -0.1351 -0.2792 -0.1870
18326SOL    HW156419   4.962   5.155   7.680 -1.1791  1.1810  0.4675
18326SOL    HW256420   5.054   5.090   7.780  0.5161 -1.2109 -2.4736
18327SOL     OW56421   0.103   2.625  10.530  0.0874 -0.5966 -0.2223
18327SOL    HW156422   0.103   2.574  10.611 -2.1687 -0.9192 -0.3830
18327SOL    HW256423   0.017   2.667  10.528  0.8824  1.0864 -1.4395
18328SOL     OW56424   3.041   5.108   2.882 -0.4150 -0.5404 -0.5753
18328SOL    HW156425   2.998   5.164   2.818 -0.6509 -0.7057 -0.5636
18328SOL    HW256426   3.118   5.158   2.910 -1.6469  0.6391  0.8672
18329SOL     OW56427   6.930   3.909   9.163  0.1525  0.6309 -0.1539
18329SOL    HW156428   6.862   3.857   9.120  0.4219  0.1027  0.0454
18329SOL    HW256429   6.932   3.876   9.253  0.5312  0.7784 -0.1067
18330SOL     OW56430   7.287   5.960   6.830  0.3885  0.4992  0.2053
18330SOL    HW156431   7.279   5.918   6.916 -1.1523  1.8774  0.7941
18330SOL    HW256432   7.321   5.892   6.773 -0.9049 -1.2100  1.3708
18331SOL     OW56433   7.779   1.087   8.982 -0.6534 -0.0523  0.8240
18331SOL    HW156434   7.789   1.040   8.899 -0.0450  1.0097  0.2818
18331SOL    HW256435   7.814   1.027   9.048  1.9242  0.3607 -0.0732
18332SOL     OW56436   5.718   5.282   1.161 -0.0713  0.4435  0.1763
18332SOL    HW156437   5.771   5.311   1.236 -0.3199 -0.5413  0.7510
18332SOL    HW256438   5.694   5.192   1.182 -0.9935  0.4848 -0.6330
18333SOL     OW56439   2.301   7.688   7.308  0.8629 -0.2166  0.0089
18333SOL    HW156440   2.360   7.757   7.338 -0.7614  1.8674 -1.3431
18333SOL    HW256441   2.279   7.639   7.387  3.2378 -0.1877  0.7548
18334SOL     OW56442   6.545   2.561   5.211  0.2371  0.4081  0.1252
18334SOL    HW156443   6.576   2.636   5.262 -0.5988  1.1152 -0.3723
18334SOL    HW256444   6.478   2.598   5.153  2.4657  0.0871 -2.8863
18335SOL     OW56445   2.026   3.194   4.476  0.2496 -0.3731 -0.0970
18335SOL    HW156446   1.986   3.251   4.411 -0.0016  1.2125  1.3887
18335SOL    HW256447   1.994   3.226   4.560  3.1860 -0.1675  1.0695
18336SOL     OW56448   3.097   5.915   4.226 -0.1307 -0.6285 -0.1478
18336SOL    HW156449   3.147   5.917   4.308 -1.1415  1.6937  0.5045
18336SOL    HW256450   3.050   5.832   4.229 -0.1553 -0.5969  1.6457
18337SOL     OW56451   3.578   5.941   7.715 -0.1636  0.0749  0.6813
18337SOL    HW156452   3.569   5.907   7.804 -0.7066  0.4182  0.7576
18337SOL    HW256453   3.592   5.862   7.661 -0.0474 -0.1512  1.0359
18338SOL     OW56454   2.694   1.746   1.052 -0.2418  0.7849  0.1863
18338SOL    HW156455   2.613   1.698   1.068 -0.6593  0.8950 -1.4282
18338SOL    HW256456   2.685   1.825   1.105 -0.3798 -0.0250  1.4079
18339SOL     OW56457   4.555   6.290  10.267  0.6508  0.3020 -0.1068
18339SOL    HW156458   4.602   6.365  10.229  0.2743 -0.0262 -1.2749
18339SOL    HW256459   4.611   6.260  10.339  1.5267  0.8031 -0.5669
18340SOL     OW56460   6.708   0.952  10.087 -0.1281 -0.0675  0.7103
18340SOL    HW156461   6.659   1.030  10.061  0.2463  0.1993  0.8056
18340SOL    HW256462   6.794   0.964  10.048 -0.0496 -0.4037  0.7796
18341SOL     OW56463   5.986   3.345   2.796 -0.0178  0.2477 -0.3207
18341SOL    HW156464   5.907   3.337   2.742  0.1822 -0.0371 -0.5720
18341SOL    HW256465   5.983   3.435   2.829 -0.7403  0.0740  0.1255
18342SOL     OW56466   2.775   6.004   5.985 -0.3052  0.1751  0.0398
18342SOL    HW156467   2.850   5.945   5.978 -0.7178 -0.4709  0.8186
18342SOL    HW256468   2.763   6.016   6.079  0.3709  2.3094 -0.1160
18343SOL     OW56469   5.941   6.869   4.317  0.3130 -0.1203  0.2489
18343SOL    HW156470   5.905   6.938   4.260  2.5403  0.4313 -0.6297
18343SOL    HW256471   5.879   6.797   4.309 -1.7885  1.5177  0.7016
18344SOL     OW56472   2.498   0.326   4.470  0.3146 -0.1521  0.1028
18344SOL    HW156473   2.584   0.285   4.460  0.5083  0.3849 -0.5451
18344SOL    HW256474   2.441   0.256   4.499  0.3260 -1.2555 -2.2672
18345SOL     OW56475   0.834   7.488  12.295  0.0266  0.2661  0.1739
18345SOL    HW156476   0.925   7.498  12.322  0.0135 -2.2667  1.4827
18345SOL    HW256477   0.784   7.494  12.376 -1.0271  1.8431 -0.5600
18346SOL     OW56478   5.032   6.871   2.006 -0.6207 -0.0207  0.0549
18346SOL    HW156479   5.019   6.965   1.994 -1.4373 -0.4383 -3.3623
18346SOL    HW256480   5.121   6.863   2.040 -0.9143  1.9738  1.4801
18347SOL     OW56481   7.029   2.324   8.632  0.1393 -0.0288  0.3048
18347SOL    HW156482   7.086   2.372   8.571 -0.9489  0.9079 -0.0052
18347SOL    HW256483   7.030   2.377   8.712 -3.2598  2.2088 -0.9067
18348SOL     OW56484   6.319   6.985   1.597 -0.0900 -0.2166  0.0905
18348SOL    HW156485   6.408   7.017   1.611 -0.2112  0.3964 -0.5053
18348SOL    HW256486   6.278   6.989   1.684  0.1493  0.4846  0.1734
18349SOL     OW56487   0.677   2.244  11.642  0.3447  0.8490  0.1561
18349SOL    HW156488   0.762   2.219  11.678 -0.9137 -2.3112  1.3359
18349SOL    HW256489   0.678   2.211  11.552 -0.2726 -1.0763  0.8071
18350SOL     OW56490   4.533   0.390  12.130  0.0336 -0.1191  0.0861
18350SOL    HW156491   4.462   0.384  12.067  0.0174  0.1459  0.0777
18350SOL    HW256492   4.542   0.484  12.147  0.3432 -0.1558  0.1287
18351SOL     OW56493   0.403   7.495   4.865 -0.1771  0.0542  0.0324
18351SOL    HW156494   0.346   7.572   4.859  0.8268  1.1380  2.9942
18351SOL    HW256495   0.346   7.425   4.896 -0.2798  0.7519  1.5072
18352SOL     OW56496   6.712   7.847   9.493  0.3920 -0.3002  0.0925
18352SOL    HW156497   6.725   7.909   9.421  0.1549 -0.0006  0.3078
18352SOL    HW256498   6.624   7.811   9.477  1.2255 -1.9587 -1.0828
18353SOL     OW56499   3.354   2.944   9.103 -0.5617  0.0680 -0.4875
18353SOL    HW156500   3.442   2.963   9.135  0.0639  0.0846 -2.0940
18353SOL    HW256501   3.303   3.020   9.129 -0.6043 -0.7362  2.0594
18354SOL     OW56502   7.221   6.369   6.588 -0.0317 -0.2998 -0.1944
18354SOL    HW156503   7.202   6.432   6.657 -0.2316 -0.0153 -0.5071
18354SOL    HW256504   7.196   6.413   6.507 -0.4003 -0.8700 -0.3981
18355SOL     OW56505   1.031   5.637   1.175  0.2520  0.0573 -0.1988
18355SOL    HW156506   1.046   5.731   1.187 -1.5155  0.6304 -1.9074
18355SOL    HW256507   1.103   5.595   1.222  1.9697  2.2910 -0.6420
18356SOL     OW56508   5.305   4.353   8.272  0.0951  0.4223 -0.4149
18356SOL    HW156509   5.238   4.419   8.256  0.1492  0.4118 -0.6857
18356SOL    HW256510   5.258   4.269   8.265  0.2515  0.3931 -1.1922
18357SOL     OW56511   7.863   0.855   9.116 -0.4652  0.5129  0.3849
18357SOL    HW156512   7.823   0.874   9.202  0.8254  0.4219  1.0272
18357SOL    HW256513   7.881   0.762   9.118 -0.2421  0.5500  0.0948
18358SOL     OW56514   6.494   7.711  11.725  0.0698 -0.1835 -0.4071
18358SOL    HW156515   6.438   7.774  11.680 -0.4681  0.0993  0.6297
18358SOL    HW256516   6.534   7.660  11.654 -0.2316  0.6799 -1.2232
18359SOL     OW56517   1.790   3.131   4.879  0.7699 -0.1463 -0.0987
18359SOL    HW156518   1.755   3.220   4.875 -1.6476 -1.0118  0.1305
18359SOL    HW256519   1.769   3.100   4.967 -2.8126 -2.4729 -1.5326
18360SOL     OW56520   0.375   6.355   0.485 -0.1826 -0.3746 -0.0215
18360SOL    HW156521   0.296   6.374   0.535  0.6233  1.9301  0.5242
18360SOL    HW256522   0.445   6.353   0.550  0.3494 -1.5554 -0.5970
18361SOL     OW56523   5.901   5.766  11.985  0.6793 -0.3333 -0.6292
18361SOL    HW156524   5.960   5.695  12.007  0.4467 -0.6709 -1.0847
18361SOL    HW256525   5.928   5.795  11.898  0.3282 -0.3299 -0.7397
18362SOL     OW56526   3.861   4.596  10.824 -0.1428  0.3125  0.5203
18362SOL    HW156527   3.870   4.503  10.804 -2.4163 -0.2043  1.5717
18362SOL    HW256528   3.775   4.620  10.789 -1.6219  0.8290  4.1016
18363SOL     OW56529   0.614   0.637   4.653 -0.2703  0.4952 -0.2157
18363SOL    HW156530   0.636   0.708   4.714 -0.4806  0.4880 -0.1306
18363SOL    HW256531   0.530   0.664   4.616 -0.3637  0.2758 -0.1624
18364SOL     OW56532   1.475   0.002  10.934  0.5054  0.1366  0.1279
18364SOL    HW156533   1.415  -0.071  10.915 -0.3844  0.9077 -0.0751
18364SOL    HW256534   1.487   0.046  10.850  1.2611  0.0743  0.1976
18365SOL     OW56535   0.290   7.368   0.768 -0.5450  0.5505  0.4916
18365SOL    HW156536   0.298   7.336   0.678 -0.3472  2.6544 -0.2961
18365SOL    HW256537   0.196   7.362   0.787 -0.6686  0.6349 -0.0668
18366SOL     OW56538   2.208   3.546   8.163 -0.7121 -0.6276 -1.0166
18366SOL    HW156539   2.164   3.616   8.212 -0.8255 -0.5382 -1.2450
18366SOL    HW256540   2.291   3.585   8.135 -1.2002 -0.2626 -1.9773
18367SOL     OW56541   3.244   6.483   6.262  0.6831  0.3321 -0.2668
18367SOL    HW156542   3.320   6.427   6.246  0.4943  0.0644 -0.2371
18367SOL    HW256543   3.247   6.547   6.192  0.0614 -0.6207 -1.1972
18368SOL     OW56544   4.178   0.769   8.596  0.0297  0.2322 -0.4648
18368SOL    HW156545   4.256   0.810   8.633  0.1985  1.2748 -1.9264
18368SOL    HW256546   4.156   0.822   8.520 -0.7287 -1.4442 -1.4592
18369SOL     OW56547   2.506   0.130   7.064  0.5159  0.2840 -0.8265
18369SOL    HW156548   2.412   0.112   7.060  0.0723  1.7710  1.2362
18369SOL    HW256549   2.518   0.211   7.014  1.1841 -1.1614 -3.1822
18370SOL     OW56550   6.347   2.098  12.041  0.1381 -0.2486  0.7041
18370SOL    HW156551   6.287   2.036  12.001  0.1990 -1.1151  1.9145
18370SOL    HW256552   6.434   2.062  12.022  0.3232  0.9035 -0.8834
18371SOL     OW56553   7.017   1.477   4.707  0.3402 -0.0168  0.3166
18371SOL    HW156554   7.074   1.436   4.642 -1.8130 -0.5241 -1.3479
18371SOL    HW256555   6.979   1.552   4.661  0.3412  0.8854  1.7114
18372SOL     OW56556   6.555   3.087   1.744  0.2479 -0.3527  0.0266
18372SOL    HW156557   6.528   3.051   1.659  0.3265 -0.4885  0.0582
18372SOL    HW256558   6.543   3.015   1.806  2.5819 -1.1157 -0.2999
18373SOL     OW56559   3.630   5.317   8.889 -0.0729  0.2299  0.0119
18373SOL    HW156560   3.633   5.267   8.970  1.3540 -0.2632 -0.3165
18373SOL    HW256561   3.721   5.343   8.873 -0.4650  1.0786 -0.9581
18374SOL     OW56562   4.394   0.646   0.103  0.0675  0.2890  0.1810
18374SOL    HW156563   4.457   0.575   0.089  0.1169  0.4831 -0.6086
18374SOL    HW256564   4.445   0.726   0.089 -0.3379  0.4485 -0.4401
18375SOL     OW56565   5.235   5.674   5.244  0.2110  0.0906 -0.0750
18375SOL    HW156566   5.199   5.604   5.189  1.4124  0.6560 -1.6558
18375SOL    HW256567   5.209   5.650   5.333 -4.1958  0.5145 -1.0040
18376SOL     OW56568   4.704   4.308   2.517 -0.4190  0.3609  0.1103
18376SOL    HW156569   4.741   4.270   2.597  2.8217  0.5302 -1.1738
18376SOL    HW256570   4.645   4.241   2.483 -0.3845 -0.4766  1.6258
18377SOL     OW56571   7.925   7.030   4.586 -0.1114 -0.2886  0.3066
18377SOL    HW156572   7.957   7.034   4.496  1.1425 -2.5789  0.5699
18377SOL    HW256573   7.996   6.987   4.634  0.4942  3.2997  3.0442
18378SOL     OW56574   1.951   7.863   3.611 -0.0050  0.4707 -0.3425
18378SOL    HW156575   1.915   7.917   3.540  0.5700  0.2333 -0.8292
18378SOL    HW256576   2.010   7.802   3.566 -0.9096 -0.8128  0.1475
18379SOL     OW56577   0.486   2.993   7.501  0.2000 -0.1261  0.0557
18379SOL    HW156578   0.400   2.950   7.507 -0.7000  1.7651  2.6383
18379SOL    HW256579   0.477   3.055   7.429 -0.0605 -0.9866 -0.6719
18380SOL     OW56580   6.830   0.713   8.506  0.3777 -0.3475  0.1322
18380SOL    HW156581   6.755   0.730   8.449 -1.3832 -2.0351  1.8095
18380SOL    HW256582   6.841   0.793   8.557 -0.1124 -0.0008 -0.3003
18381SOL     OW56583   3.446   4.528   2.086  0.2493  0.5802  0.4020
18381SOL    HW156584   3.514   4.588   2.057  1.6645 -0.4768  1.3783
18381SOL    HW256585   3.450   4.455   2.023 -1.3130  1.3455 -0.6537
18382SOL     OW56586   6.677   1.168   9.754  0.1912  0.1504  0.1837
18382SOL    HW156587   6.604   1.107   9.762  0.0612  0.3624  0.7161
18382SOL    HW256588   6.753   1.113   9.736  0.6981 -0.6018  3.7339
18383SOL     OW56589   2.034   2.670   1.559 -0.0852 -0.2358  0.2790
18383SOL    HW156590   1.951   2.622   1.553  0.8473 -1.7226 -2.6609
18383SOL    HW256591   2.019   2.751   1.510  0.4724 -1.0466 -1.2917
18384SOL     OW56592   7.025   7.187   5.301  0.0577  0.0761  0.5941
18384SOL    HW156593   7.014   7.150   5.213 -2.5623 -1.5072  1.4669
18384SOL    HW256594   7.119   7.177   5.319  0.4639 -0.6334 -1.5491
18385SOL     OW56595   3.063   7.612   5.332 -0.3996 -0.8954 -0.0728
18385SOL    HW156596   2.995   7.657   5.382  0.1723 -0.9504  0.7626
18385SOL    HW256597   3.117   7.683   5.296 -0.2334 -0.8793  0.2065
18386SOL     OW56598   7.709   3.893  11.348  0.0916 -0.6479  0.4847
18386SOL    HW156599   7.792   3.937  11.368 -0.3567  0.0835  0.7894
18386SOL    HW256600   7.643   3.963  11.352 -0.4680 -1.1096 -0.3183
18387SOL     OW56601   5.748   6.376   1.822 -0.1469 -0.1270  0.8506
18387SOL    HW156602   5.794   6.414   1.897 -0.6855  2.2969  0.0597
18387SOL    HW256603   5.678   6.438   1.803 -0.0965 -0.6892 -1.5736
18388SOL     OW56604   6.556   1.437   8.409 -0.2455 -0.4127  0.2524
18388SOL    HW156605   6.597   1.371   8.353 -0.2938  0.3002 -0.6465
18388SOL    HW256606   6.495   1.483   8.351 -1.7889 -0.9510  1.3765
18389SOL     OW56607   1.379   4.106   0.555  0.2648 -0.5530 -0.0787
18389SOL    HW156608   1.406   4.122   0.465 -0.3762  3.0705  0.2503
18389SOL    HW256609   1.460   4.083   0.600  1.1975  0.8637 -0.9650
18390SOL     OW56610   4.559   2.210   7.222  0.2928 -0.1374 -0.1220
18390SOL    HW156611   4.471   2.186   7.250  1.0230 -2.4531  0.3899
18390SOL    HW256612   4.546   2.265   7.145 -1.5835  0.2989  0.4622
18391SOL     OW56613   2.911   6.192  10.097 -0.6387  0.5218  0.5518
18391SOL    HW156614   2.883   6.102  10.110 -1.1996  0.3561 -1.4021
18391SOL    HW256615   2.980   6.186  10.030 -1.2296  1.5888 -0.1889
18392SOL     OW56616   0.936   5.460   4.879 -0.1242  0.6314  0.3499
18392SOL    HW156617   1.020   5.490   4.844  0.0808 -0.9865 -0.6452
18392SOL    HW256618   0.882   5.444   4.801 -0.7879  0.1143  0.9067
18393SOL     OW56619   3.329   3.816   3.785  0.3834 -0.2171  0.0470
18393SOL    HW156620   3.262   3.762   3.826 -0.0004 -0.1981 -0.5399
18393SOL    HW256621   3.401   3.818   3.848  1.3270 -3.1827 -0.7500
18394SOL     OW56622   6.292   6.304   1.194  0.2680  0.0751 -0.1847
18394SOL    HW156623   6.250   6.253   1.263 -0.6700 -0.4119 -1.1107
18394SOL    HW256624   6.335   6.376   1.241 -0.5432 -0.1217  0.8871
18395SOL     OW56625   4.798   1.287   2.868  0.3546 -0.0569  0.3108
18395SOL    HW156626   4.749   1.360   2.831 -1.4747 -0.9293  0.8911
18395SOL    HW256627   4.840   1.246   2.793  1.3853  1.5344 -0.0238
18396SOL     OW56628   1.654   6.384  10.939  0.3139 -0.2589 -0.4331
18396SOL    HW156629   1.607   6.398  10.857 -0.8903  1.7375  0.5001
18396SOL    HW256630   1.739   6.349  10.913 -0.1625  0.0029 -2.4997
18397SOL     OW56631   3.568   7.894   6.418 -0.2840  0.4309  0.2611
18397SOL    HW156632   3.593   7.908   6.327  0.0167 -0.6078  0.1689
18397SOL    HW256633   3.505   7.964   6.437  1.0439  1.7891 -0.1662
18398SOL     OW56634   2.929   4.189   8.932  0.5541 -0.4046 -0.2898
18398SOL    HW156635   3.001   4.137   8.895  3.2595  0.9326  2.6734
18398SOL    HW256636   2.894   4.134   9.002  0.7980  0.1387  0.2716
18399SOL     OW56637   0.526   3.463  10.599 -0.1207  0.2111  0.0919
18399SOL    HW156638   0.479   3.505  10.527 -1.2143  0.0629  0.6923
18399SOL    HW256639   0.458   3.443  10.663  0.7215 -0.3571  0.8318
18400SOL     OW56640   7.980   4.843   4.602 -0.6569  0.8216 -0.1054
18400SOL    HW156641   8.037   4.900   4.655  0.8115 -0.0054 -0.7249
18400SOL    HW256642   7.979   4.760   4.649  1.4230 -0.2190 -1.7588
18401SOL     OW56643   4.046   3.425   1.902  0.3396 -0.1061 -0.0851
18401SOL    HW156644   4.022   3.474   1.980 -1.9773 -0.6507 -0.3809
18401SOL    HW256645   4.037   3.487   1.830  1.0117 -0.0053 -0.0891
18402SOL     OW56646   7.838   2.284   5.030 -0.0163  0.3702  0.0339
18402SOL    HW156647   7.922   2.242   5.013 -0.3292  0.1750 -1.1420
18402SOL    HW256648   7.797   2.229   5.097  0.8038  0.5101  0.6727
18403SOL     OW56649   7.054   4.642   0.364  0.0341  0.2592 -0.2959
18403SOL    HW156650   7.023   4.570   0.308 -0.0524 -0.9331  1.2167
18403SOL    HW256651   7.149   4.638   0.358  0.0699 -0.6846  0.5708
18404SOL     OW56652   2.395   1.957   1.311  0.5287  0.7552  0.0595
18404SOL    HW156653   2.418   2.032   1.367  0.7477 -0.0806  1.1161
18404SOL    HW256654   2.459   1.961   1.240  0.0040  2.0645 -0.3620
18405SOL     OW56655   2.640   4.636   7.458  0.4531  0.4555 -0.7123
18405SOL    HW156656   2.713   4.580   7.483 -0.7999 -1.8360 -1.8254
18405SOL    HW256657   2.572   4.618   7.523  0.6643  2.2416  0.0681
18406SOL     OW56658   7.097   1.190   0.915  0.3260 -0.2467  0.1171
18406SOL    HW156659   7.095   1.231   1.001  1.2503 -0.3819  0.2135
18406SOL    HW256660   7.017   1.221   0.872 -1.0296 -1.5138  1.5956
18407SOL     OW56661   2.548   4.410  10.474  0.5516  0.0103  0.1008
18407SOL    HW156662   2.502   4.336  10.512 -1.4844  0.3273 -1.5649
18407SOL    HW256663   2.588   4.455  10.548  0.9570 -2.1128  1.2558
18408SOL     OW56664   7.030   4.610  12.431 -0.0740 -0.3945  0.1846
18408SOL    HW156665   6.944   4.650  12.415 -0.5757 -0.4582  2.3953
18408SOL    HW256666   7.013   4.516  12.434 -0.1156 -0.3610  1.4907
18409SOL     OW56667   0.334   6.768   2.203  0.4375  0.1470  0.0072
18409SOL    HW156668   0.396   6.786   2.274 -1.0442 -0.1077  1.4408
18409SOL    HW256669   0.311   6.855   2.169 -1.6290  0.6570  2.4066
18410SOL     OW56670   3.286   4.640  10.421 -0.2130 -0.2550 -0.8992
18410SOL    HW156671   3.309   4.552  10.450 -0.5864 -0.7347 -2.0349
18410SOL    HW256672   3.361   4.668  10.369  0.0182  0.2189 -0.3325
18411SOL     OW56673   6.142   6.196  10.157 -0.2061 -0.2280  0.0936
18411SOL    HW156674   6.237   6.204  10.166 -0.2512  3.5279 -1.0327
18411SOL    HW256675   6.107   6.236  10.236 -0.7236  2.4491 -1.3847
18412SOL     OW56676   5.396   2.665   1.120 -0.1852 -0.2639  0.4042
18412SOL    HW156677   5.335   2.604   1.080 -0.7648 -0.8358  2.0653
18412SOL    HW256678   5.465   2.678   1.054 -1.3048 -0.7835 -0.9117
18413SOL     OW56679   7.619   2.099  10.509  0.2374  0.5102  0.1888
18413SOL    HW156680   7.575   2.160  10.568  0.4159 -0.7573  1.6852
18413SOL    HW256681   7.589   2.013  10.536 -1.2851 -0.1073 -2.9132
18414SOL     OW56682   4.334   1.067   2.250 -0.0143  0.3019  0.0122
18414SOL    HW156683   4.318   1.108   2.335  0.9098 -0.5117  0.6063
18414SOL    HW256684   4.260   1.094   2.195 -0.6845  0.7476  1.1098
18415SOL     OW56685   4.668   1.234   3.683  0.1830  0.0229 -0.3725
18415SOL    HW156686   4.583   1.232   3.726  0.0592 -0.4612 -0.6280
18415SOL    HW256687   4.697   1.325   3.691  0.3690 -0.1333  1.1335
18416SOL     OW56688   6.880   5.935   4.490  0.8864  0.1276  0.5057
18416SOL    HW156689   6.789   5.944   4.463  0.7147 -1.5549  0.4429
18416SOL    HW256690   6.888   5.991   4.567  0.0271  0.9036  0.0450
18417SOL     OW56691   3.391   7.279   9.445 -0.3218  0.4129 -0.0367
18417SOL    HW156692   3.325   7.216   9.473  0.4442 -1.3892 -2.0082
18417SOL    HW256693   3.474   7.242   9.474  0.2271 -0.0770 -2.0963
18418SOL     OW56694   7.074   0.016   3.459  0.5676 -0.2848 -0.0874
18418SOL    HW156695   7.059   0.063   3.377 -1.1763 -0.5169  0.0761
18418SOL    HW256696   7.135   0.072   3.508  0.3639  0.6396 -0.8741
18419SOL     OW56697   2.346   1.705  10.249  0.2320 -0.4051  0.3140
18419SOL    HW156698   2.410   1.766  10.211 -0.5234  1.3567  1.6919
18419SOL    HW256699   2.399   1.640  10.295  1.1599  1.7633  2.5718
18420SOL     OW56700   0.169   1.646   8.123 -0.3460 -0.1935  0.3056
18420SOL    HW156701   0.090   1.661   8.176 -0.5376 -0.0052 -0.0294
18420SOL    HW256702   0.176   1.725   8.068 -0.4685 -0.6325 -0.3484
18421SOL     OW56703   3.077   6.684   0.260  0.7403  0.8812 -0.0575
18421SOL    HW156704   3.144   6.729   0.208  1.3713 -1.2221 -1.2077
18421SOL    HW256705   3.124   6.650   0.336  0.4682  1.3523  0.3261
18422SOL     OW56706   5.238   6.594  11.944  0.1815 -0.0186 -0.6290
18422SOL    HW156707   5.216   6.568  11.855  0.6516  0.1071 -0.7805
18422SOL    HW256708   5.167   6.653  11.970 -0.7214 -1.1567 -0.4054
18423SOL     OW56709   0.624   1.816   9.632 -0.1672  0.1242 -0.0772
18423SOL    HW156710   0.706   1.833   9.586 -1.0668  2.1603 -1.0831
18423SOL    HW256711   0.629   1.869   9.711 -0.8043  0.8804 -0.5306
18424SOL     OW56712   1.426   2.954  12.037 -0.1700  0.6419 -0.1068
18424SOL    HW156713   1.407   2.946  12.131 -0.2815 -1.9403 -0.2621
18424SOL    HW256714   1.493   3.021  12.032  0.3256  0.3748  1.9104
18425SOL     OW56715   7.228   5.608   8.013  0.1712 -1.2373 -0.2815
18425SOL    HW156716   7.176   5.532   7.986 -1.2401 -0.3556 -0.1673
18425SOL    HW256717   7.184   5.683   7.971  1.1881 -0.4218  0.0666
18426SOL     OW56718   2.382   1.743   2.087 -0.0068 -0.0456 -0.0509
18426SOL    HW156719   2.360   1.687   2.161 -1.4664  0.3596 -0.1525
18426SOL    HW256720   2.309   1.733   2.026 -0.3466  2.0087 -0.0438
18427SOL     OW56721   5.314   3.606   4.833  0.1875 -0.6087 -0.1213
18427SOL    HW156722   5.292   3.688   4.789  0.3792 -0.1832  0.5645
18427SOL    HW256723   5.276   3.614   4.920 -1.7180 -2.1759 -0.7518
18428SOL     OW56724   6.666   6.877  10.522 -0.6580 -0.4480 -0.0867
18428SOL    HW156725   6.627   6.821  10.589  0.8820 -0.5479  0.7632
18428SOL    HW256726   6.747   6.908  10.561  1.4343 -2.2458 -2.6777
18429SOL     OW56727   0.186   4.028   5.059 -0.3586  0.0386  0.3538
18429SOL    HW156728   0.181   3.940   5.022  0.3299  0.1995 -0.1351
18429SOL    HW256729   0.211   4.014   5.151  1.2301 -0.2146 -0.1000
18430SOL     OW56730   5.983   6.180  10.589 -0.4570 -0.3847 -0.5192
18430SOL    HW156731   5.903   6.129  10.583  0.1727 -1.2608 -3.4573
18430SOL    HW256732   6.052   6.115  10.602  0.1483 -0.1639 -2.2971
18431SOL     OW56733   5.519   5.863   7.560 -0.3148 -0.0941  0.3120
18431SOL    HW156734   5.457   5.794   7.583 -2.4476  1.5554 -0.1312
18431SOL    HW256735   5.480   5.905   7.483  1.7181  0.6310 -0.3934
18432SOL     OW56736   1.201   5.030   2.331 -0.0302  0.2832 -0.7600
18432SOL    HW156737   1.150   4.979   2.268 -2.0463  0.0007  0.9860
18432SOL    HW256738   1.135   5.075   2.384  1.6290  1.8846  0.0632
18433SOL     OW56739   3.882   2.871  11.927  0.4809 -0.5121  0.1608
18433SOL    HW156740   3.954   2.834  11.979 -0.0106 -0.4718  0.8843
18433SOL    HW256741   3.884   2.822  11.845  1.4000 -0.4408  0.1247
18434SOL     OW56742   2.521   4.280   3.252 -0.6304  0.1779 -0.1950
18434SOL    HW156743   2.538   4.214   3.184 -1.4218  0.2776 -0.4997
18434SOL    HW256744   2.457   4.339   3.212  0.2781  1.3036 -0.0271
18435SOL     OW56745   7.133   5.254  11.798  0.0176 -0.0437 -0.3225
18435SOL    HW156746   7.068   5.241  11.729  1.3993 -1.0586 -1.5028
18435SOL    HW256747   7.154   5.165  11.828  0.6557  0.2827  0.2205
18436SOL     OW56748   6.663   2.944   2.663  0.2668 -0.3049 -0.8535
18436SOL    HW156749   6.586   2.915   2.712 -0.2372  0.8705 -0.9194
18436SOL    HW256750   6.728   2.876   2.678 -0.2811 -0.5644  0.4647
18437SOL     OW56751   5.077   4.721   9.875  0.3930  0.2691  0.1583
18437SOL    HW156752   5.128   4.669   9.812 -0.9348 -0.4249 -0.3992
18437SOL    HW256753   5.081   4.810   9.840  1.0759  0.2027  0.0402
18438SOL     OW56754   1.231   6.670   7.360 -0.0315  0.3217 -0.0292
18438SOL    HW156755   1.191   6.648   7.444  0.9509 -0.5263  0.2377
18438SOL    HW256756   1.158   6.667   7.298 -0.6353  0.1974  0.6714
18439SOL     OW56757   7.275   3.509   7.651  0.1268 -0.2625 -0.4990
18439SOL    HW156758   7.268   3.469   7.564 -0.1176 -0.3863 -0.4237
18439SOL    HW256759   7.233   3.447   7.710  2.2771 -1.2643  0.0769
18440SOL     OW56760   0.191   0.855   2.087  0.5972  0.0720  0.1325
18440SOL    HW156761   0.167   0.947   2.074 -0.7661  0.0480  2.0957
18440SOL    HW256762   0.131   0.807   2.030  0.8501  0.3424 -0.3742
18441SOL     OW56763   2.758   7.808   2.331  0.2071 -0.5983  0.5851
18441SOL    HW156764   2.667   7.839   2.334  0.7433  1.1345  0.0367
18441SOL    HW256765   2.806   7.878   2.286  1.9532 -1.1238  1.5402
18442SOL     OW56766   4.311   0.468   3.725  0.2328  0.2763  0.0639
18442SOL    HW156767   4.290   0.391   3.672 -0.5487  0.2083  0.4529
18442SOL    HW256768   4.344   0.433   3.807  1.5462  0.3828 -0.3952
18443SOL     OW56769   4.203   0.373   0.525 -0.2279  0.2998  0.3793
18443SOL    HW156770   4.279   0.330   0.564 -0.7002 -0.1549  0.8253
18443SOL    HW256771   4.174   0.436   0.591 -0.7348 -0.1256  0.5773
18444SOL     OW56772   1.241   1.667  12.098  0.4388 -0.5761  0.4606
18444SOL    HW156773   1.265   1.577  12.118  0.4005 -0.1832  2.5226
18444SOL    HW256774   1.253   1.675  12.003  0.3442 -2.7551  0.2115
18445SOL     OW56775   6.701   1.967   2.873  0.1300 -0.9733 -0.3957
18445SOL    HW156776   6.611   1.967   2.905 -0.1115  2.0434 -0.7220
18445SOL    HW256777   6.700   1.910   2.797 -1.7139 -0.4579 -0.8154
18446SOL     OW56778   1.734   0.844   7.229  0.1312 -0.3305  0.2999
18446SOL    HW156779   1.791   0.801   7.166 -0.7383  2.1321 -2.3844
18446SOL    HW256780   1.793   0.881   7.295  1.5553  0.7629 -1.5090
18447SOL     OW56781   0.329   4.385   3.927  0.5601  0.5182 -0.5604
18447SOL    HW156782   0.234   4.378   3.937  0.7353 -0.0255  1.1324
18447SOL    HW256783   0.348   4.343   3.843 -0.4987 -1.3188  0.0590
18448SOL     OW56784   3.654   0.661   7.369 -0.6118 -0.7302  0.2079
18448SOL    HW156785   3.720   0.603   7.331  0.1766  0.9157 -1.1143
18448SOL    HW256786   3.579   0.655   7.310  0.2071  0.9987 -1.1124
18449SOL     OW56787   1.547   5.419   8.815  0.2491  0.0442  0.7179
18449SOL    HW156788   1.594   5.495   8.849 -0.6279  1.2717 -0.6811
18449SOL    HW256789   1.607   5.380   8.751  0.3447  0.0914  0.7785
18450SOL     OW56790   1.935   3.908   6.392  0.3729  0.0266 -0.4390
18450SOL    HW156791   1.947   3.815   6.411 -0.2410 -0.4133 -2.0395
18450SOL    HW256792   1.973   3.953   6.468 -0.8374 -1.5223  1.1749
18451SOL     OW56793   4.600   0.138   3.850 -0.6106  0.7293  0.3388
18451SOL    HW156794   4.659   0.101   3.915 -0.7481  0.6509  0.4198
18451SOL    HW256795   4.542   0.066   3.827 -1.0875  0.9794  0.7327
18452SOL     OW56796   2.570   2.530   6.620  0.0930 -0.2108  1.0775
18452SOL    HW156797   2.576   2.446   6.574  0.5283  1.3358 -1.9687
18452SOL    HW256798   2.657   2.570   6.608 -0.4239  1.1069  1.5438
18453SOL     OW56799   0.946   6.966  10.158 -0.2774 -0.4529  0.1028
18453SOL    HW156800   0.899   6.944  10.239  1.5828 -1.4590  0.9849
18453SOL    HW256801   0.878   6.990  10.096 -1.7453  1.5773  2.3096
18454SOL     OW56802   2.653   3.041   0.337  0.0071  0.0923 -0.1956
18454SOL    HW156803   2.660   3.070   0.428 -0.0568 -1.1772  0.2291
18454SOL    HW256804   2.699   2.957   0.334 -0.0157  0.0935 -1.3307
18455SOL     OW56805   1.146   0.830   3.359 -0.3504 -0.7504  0.1018
18455SOL    HW156806   1.226   0.878   3.341 -0.5357 -0.7296 -0.6881
18455SOL    HW256807   1.169   0.771   3.432  0.4154 -0.8405 -0.2076
18456SOL     OW56808   7.128   5.233   1.246 -0.3597 -0.4637  0.0758
18456SOL    HW156809   7.056   5.251   1.185  1.2187 -1.2441 -2.1581
18456SOL    HW256810   7.147   5.140   1.234  2.3080  0.1163 -1.0047
18457SOL     OW56811   5.156   2.347   8.860 -0.7729  0.0929 -0.4897
18457SOL    HW156812   5.112   2.420   8.817 -1.2547 -0.0784 -0.2982
18457SOL    HW256813   5.094   2.273   8.850  1.1158 -1.2656 -3.7820
18458SOL     OW56814   7.195   4.636   9.023  0.1888  0.3738  0.2746
18458SOL    HW156815   7.154   4.579   9.088  0.0384  0.5214  0.3089
18458SOL    HW256816   7.281   4.596   9.008  1.0705  1.4780  2.0816
18459SOL     OW56817   7.818   7.082  12.404  0.8479  0.1838  0.0260
18459SOL    HW156818   7.890   7.066  12.342 -0.1229  0.2598 -1.1411
18459SOL    HW256819   7.740   7.091  12.350 -0.3928 -1.7515  1.3644
18460SOL     OW56820   1.271   7.588   6.038 -0.1373  0.0069  0.5283
18460SOL    HW156821   1.219   7.509   6.045  0.5208 -0.4398  0.4570
18460SOL    HW256822   1.361   7.557   6.029  0.2943  0.7739  1.9327
18461SOL     OW56823   0.909   5.723  11.132 -0.5444 -0.5241  0.7216
18461SOL    HW156824   0.905   5.660  11.204 -1.8550 -0.4371  0.7597
18461SOL    HW256825   0.999   5.719  11.101 -0.4264 -1.9075  1.1699
18462SOL     OW56826   4.643   1.159   5.899 -0.1110 -0.6505  0.2271
18462SOL    HW156827   4.640   1.167   5.995 -1.7510 -0.3878  0.1748
18462SOL    HW256828   4.661   1.066   5.884 -1.7051 -1.0773  0.8048
18463SOL     OW56829   1.802   0.937  10.045 -0.6893 -0.5740 -0.0679
18463SOL    HW156830   1.823   0.932  10.138  0.1981  3.1726  0.0619
18463SOL    HW256831   1.887   0.934  10.001 -1.0671 -1.6561 -0.7759
18464SOL     OW56832   7.508   4.277   8.291  0.1469 -0.8324  0.4656
18464SOL    HW156833   7.498   4.362   8.333  2.4923 -0.8119  1.1524
18464SOL    HW256834   7.562   4.227   8.353  0.7075 -2.0281 -0.9491
18465SOL     OW56835   2.855   5.677   7.012  0.6183  0.2034 -0.2910
18465SOL    HW156836   2.907   5.661   6.933  1.3321 -0.2607  0.2542
18465SOL    HW256837   2.855   5.772   7.022  0.3046  0.2835 -0.9837
18466SOL     OW56838   1.948   2.159   1.693  0.4651  0.2692  0.5369
18466SOL    HW156839   2.035   2.199   1.685  0.1234  0.8992 -0.1853
18466SOL    HW256840   1.935   2.115   1.608  0.2766 -0.2377  0.8243
18467SOL     OW56841   7.028   7.678   8.623  0.6004 -0.1180 -0.1508
18467SOL    HW156842   7.024   7.621   8.700 -0.8362 -0.4238 -0.4158
18467SOL    HW256843   7.016   7.767   8.657  0.6485 -0.1864  0.0425
18468SOL     OW56844   5.452   2.346   2.431 -0.1699 -0.0966  0.1447
18468SOL    HW156845   5.369   2.327   2.386  1.0160 -0.5222 -2.0253
18468SOL    HW256846   5.517   2.293   2.384  1.3498  0.2194  1.7842
18469SOL     OW56847   3.967   6.233   9.835  0.4309 -0.5908  0.1154
18469SOL    HW156848   4.003   6.317   9.864 -0.7208 -0.2180  0.5002
18469SOL    HW256849   3.956   6.182   9.915 -1.7637  0.0550  0.2969
18470SOL     OW56850   4.860   2.210   0.711 -0.2878  0.2647 -0.2367
18470SOL    HW156851   4.840   2.118   0.726  1.5611 -0.2946 -0.9337
18470SOL    HW256852   4.936   2.209   0.653  1.2579  2.1842  1.5949
18471SOL     OW56853   6.352   3.893   8.356  0.5555 -0.1342  0.0449
18471SOL    HW156854   6.368   3.799   8.364  1.8614 -0.1484 -2.1376
18471SOL    HW256855   6.270   3.899   8.306  0.2521 -0.0817  0.5359
18472SOL     OW56856   7.798   7.044   5.780  0.2310  0.2917 -0.5955
18472SOL    HW156857   7.872   6.990   5.806  0.0445 -0.0268 -0.7142
18472SOL    HW256858   7.741   6.984   5.731  0.1895  0.6782 -1.0333
18473SOL     OW56859   0.589   1.129  11.630 -0.0541 -0.0837  0.0241
18473SOL    HW156860   0.604   1.052  11.685 -0.4504 -0.4436 -0.3602
18473SOL    HW256861   0.581   1.093  11.541  0.5123  0.4800 -0.2656
18474SOL     OW56862   0.131   3.196  12.002 -0.2854 -0.1560  0.0458
18474SOL    HW156863   0.179   3.129  11.952  1.3492 -0.4401  1.8890
18474SOL    HW256864   0.159   3.279  11.962 -0.1800 -0.4365 -0.4814
18475SOL     OW56865   7.690   7.023   0.137  0.4596  0.1604  0.1227
18475SOL    HW156866   7.663   7.113   0.152  1.4714  0.5690 -0.3987
18475SOL    HW256867   7.750   7.028   0.062 -0.3411 -1.0879 -0.6424
18476SOL     OW56868   3.276   3.873   7.009  0.0285 -0.5843 -0.3564
18476SOL    HW156869   3.345   3.860   6.944 -0.3253 -1.7063 -0.5130
18476SOL    HW256870   3.209   3.923   6.963 -0.4125 -1.7466 -1.0061
18477SOL     OW56871   6.220   4.587   0.394  0.0860 -0.3221  0.0408
18477SOL    HW156872   6.221   4.642   0.473 -0.2831 -0.4524  0.1377
18477SOL    HW256873   6.210   4.650   0.322  2.4224  0.0028 -0.0952
18478SOL     OW56874   0.396   2.818   8.434 -0.2937 -0.2147 -0.5831
18478SOL    HW156875   0.484   2.778   8.432 -0.2437 -0.3025  1.3165
18478SOL    HW256876   0.375   2.824   8.527 -2.7207 -1.0850 -0.9996
18479SOL     OW56877   1.615   0.532   7.911 -0.1581  0.2360 -0.1342
18479SOL    HW156878   1.678   0.596   7.879  0.6901 -1.2263 -1.5353
18479SOL    HW256879   1.619   0.461   7.848 -1.7934 -0.7804  0.8291
18480SOL     OW56880   2.610   6.529   6.709  0.8087 -0.2747  0.1286
18480SOL    HW156881   2.587   6.467   6.640  0.1002 -1.3414  1.2877
18480SOL    HW256882   2.526   6.559   6.744  1.1547 -0.0461  0.7841
18481SOL     OW56883   6.777   2.801   9.689  0.2963  0.1440 -0.2406
18481SOL    HW156884   6.814   2.774   9.773 -0.7239 -0.4195  0.0410
18481SOL    HW256885   6.739   2.721   9.652 -0.5923  0.6806 -0.5308
18482SOL     OW56886   5.920   3.780   1.285 -0.3577  0.5946  0.4550
18482SOL    HW156887   6.001   3.730   1.283 -0.7444 -0.0053 -1.1572
18482SOL    HW256888   5.947   3.868   1.312  0.4552 -0.1900  2.3810
18483SOL     OW56889   1.042   5.080   0.828  0.3528  1.0411  0.2315
18483SOL    HW156890   1.082   5.108   0.911 -2.9048  1.4700  1.8177
18483SOL    HW256891   0.962   5.034   0.855  0.0289 -0.3016 -2.6851
18484SOL     OW56892   2.317   5.792   6.546 -0.1152  0.1838  0.0604
18484SOL    HW156893   2.362   5.798   6.630  1.7433  1.2266 -0.9192
18484SOL    HW256894   2.385   5.761   6.485 -2.1647 -3.6538 -0.5750
18485SOL     OW56895   4.613   1.084   2.893  0.4124  0.1728  0.3364
18485SOL    HW156896   4.579   1.098   2.981 -1.7814  1.4136 -0.6056
18485SOL    HW256897   4.685   1.147   2.884  1.1420 -0.4787  1.4507
18486SOL     OW56898   2.010   6.047   2.628 -0.0547 -0.2364 -0.0441
18486SOL    HW156899   1.949   6.025   2.558 -1.4811 -1.8900  1.6157
18486SOL    HW256900   1.955   6.082   2.698  0.6179 -2.8667  1.9664
18487SOL     OW56901   1.767   7.299  12.019 -0.8749  0.1935  0.3464
18487SOL    HW156902   1.788   7.368  11.955 -1.6755  1.9717  1.9006
18487SOL    HW256903   1.735   7.226  11.966 -0.6910  1.2823 -1.3342
18488SOL     OW56904   1.266   3.645   3.944 -0.3002 -0.8520  0.2415
18488SOL    HW156905   1.332   3.612   3.883 -0.9452 -0.8758 -0.4642
18488SOL    HW256906   1.312   3.654   4.027  0.8847  0.2545 -0.5063
18489SOL     OW56907   6.069   7.682   1.857 -0.3523  0.5738  0.0953
18489SOL    HW156908   6.095   7.598   1.819 -1.6420 -0.6878  1.8165
18489SOL    HW256909   6.088   7.673   1.950 -0.3343  2.2946  0.2891
18490SOL     OW56910   6.104   1.855   5.086  0.0656  0.0458  0.0582
18490SOL    HW156911   6.113   1.858   5.181 -0.0371  0.7685  0.0477
18490SOL    HW256912   6.011   1.843   5.071 -0.0661  1.0922  0.0312
18491SOL     OW56913   1.156   0.128   4.125  0.5586  0.1582 -0.2469
18491SOL    HW156914   1.223   0.180   4.079  0.4997  0.5131  0.0653
18491SOL    HW256915   1.140   0.176   4.206  1.9647 -1.3828  1.0173
18492SOL     OW56916   7.110   4.545   2.281 -0.2679 -0.2718 -0.7267
18492SOL    HW156917   7.097   4.601   2.205 -3.1980  1.4335  0.8516
18492SOL    HW256918   7.140   4.461   2.245 -4.1574 -0.5011 -4.1659
18493SOL     OW56919   7.068   3.108   9.174 -0.6825  0.0410  0.2757
18493SOL    HW156920   7.121   3.185   9.196 -1.2402  0.7202 -0.6465
18493SOL    HW256921   7.131   3.046   9.137 -0.4833  0.8321 -0.7981
18494SOL     OW56922   1.815   5.425   8.222 -0.2058 -0.5537 -0.1729
18494SOL    HW156923   1.720   5.410   8.224 -0.1269 -1.1447  1.6566
18494SOL    HW256924   1.850   5.350   8.174 -0.5941 -0.8350 -0.0206
18495SOL     OW56925   4.423   4.366  11.513 -0.1030  0.4777  0.2728
18495SOL    HW156926   4.428   4.321  11.598 -0.5125  1.6235  0.9218
18495SOL    HW256927   4.451   4.456  11.532 -2.6437  1.4601 -0.2494
18496SOL     OW56928   4.502   1.531   8.497 -0.1600 -0.1646  0.4796
18496SOL    HW156929   4.447   1.459   8.528 -1.0821  0.2678 -0.1134
18496SOL    HW256930   4.588   1.514   8.537 -0.6129 -1.0579  1.1175
18497SOL     OW56931   2.720   1.557   7.788 -0.0526  0.2152 -0.7545
18497SOL    HW156932   2.684   1.481   7.833  2.3346 -1.6167 -1.7523
18497SOL    HW256933   2.645   1.595   7.742 -1.6240 -0.5185  1.0580
18498SOL     OW56934   2.514   1.701   0.722  0.0326 -0.1479  0.0353
18498SOL    HW156935   2.492   1.629   0.780 -0.5132  0.8075  1.0540
18498SOL    HW256936   2.486   1.672   0.635  0.2693 -1.3362  0.3398
18499SOL     OW56937   2.905   6.470  11.198 -0.2664 -0.4160  0.2645
18499SOL    HW156938   2.996   6.443  11.186 -0.3283 -0.0643 -1.1809
18499SOL    HW256939   2.853   6.392  11.175 -0.3392 -0.6213  1.1021
18500SOL     OW56940   0.599   5.439   2.750  0.2847 -0.5571  0.0762
18500SOL    HW156941   0.557   5.516   2.711  0.3143 -0.9693 -0.7960
18500SOL    HW256942   0.579   5.368   2.689 -0.0939 -1.3315  1.0816
18501SOL     OW56943   2.316   4.974   7.698 -0.2254  0.0647 -0.4517
18501SOL    HW156944   2.293   5.061   7.665  0.8852 -0.4571 -2.7979
18501SOL    HW256945   2.407   4.983   7.727  0.0152 -0.3835 -1.0487
18502SOL     OW56946   6.287   1.218   0.863 -0.4500  0.1877 -0.3045
18502SOL    HW156947   6.217   1.155   0.879  0.4727 -0.2305  2.6711
18502SOL    HW256948   6.263   1.294   0.915  0.3597  0.8182 -0.8284
18503SOL     OW56949   6.189   2.567   4.014  0.3773  0.2016  0.3833
18503SOL    HW156950   6.135   2.505   3.964 -0.2370  1.1518 -0.1628
18503SOL    HW256951   6.266   2.516   4.040 -0.1352 -0.7997 -0.0123
18504SOL     OW56952   1.980   5.265   5.529  0.2309  0.6054  0.3330
18504SOL    HW156953   1.981   5.198   5.461 -1.4881  0.1537  0.7235
18504SOL    HW256954   2.073   5.283   5.546  0.7066  0.3169 -1.6998
18505SOL     OW56955   7.479   5.082   7.478 -0.3862  0.4262 -0.5144
18505SOL    HW156956   7.424   5.118   7.547 -1.0567 -0.3931 -0.6126
18505SOL    HW256957   7.562   5.130   7.487 -0.7991  1.0354  0.2059
18506SOL     OW56958   6.724   4.345   0.919  0.0412  0.3028  0.1758
18506SOL    HW156959   6.682   4.406   0.859 -0.3098  0.1649  0.2800
18506SOL    HW256960   6.812   4.332   0.883  0.6268  1.9483  0.9073
18507SOL     OW56961   4.840   0.100   2.909 -0.2841 -0.2098  0.1620
18507SOL    HW156962   4.817   0.189   2.881 -0.3432 -1.1108 -3.0834
18507SOL    HW256963   4.928   0.086   2.875 -0.4646 -1.5455  0.1790
18508SOL     OW56964   0.478   2.341   8.851  0.3705 -0.3571  0.3912
18508SOL    HW156965   0.449   2.268   8.906  1.0934 -0.1666  1.0452
18508SOL    HW256966   0.571   2.324   8.836  0.1884 -0.3931 -0.7733
18509SOL     OW56967   7.809   4.764   5.754  0.2923  0.0146 -0.1324
18509SOL    HW156968   7.845   4.694   5.808  0.0872 -0.7080 -0.9126
18509SOL    HW256969   7.872   4.836   5.762 -0.6445  0.6557  2.5602
18510SOL     OW56970   1.107   0.193   2.983 -0.3261  0.2553 -0.1280
18510SOL    HW156971   1.107   0.285   3.007 -0.0102  0.4624 -0.9070
18510SOL    HW256972   1.025   0.159   3.019 -1.1007  1.1542 -1.0150
18511SOL     OW56973   1.967   3.266   2.349 -0.0707 -0.7100  0.4596
18511SOL    HW156974   2.046   3.214   2.335 -0.6227 -1.3541 -0.3300
18511SOL    HW256975   1.962   3.277   2.444  0.5656 -1.3016  0.5661
18512SOL     OW56976   2.972   6.525   1.264  0.1830 -0.0424  0.4966
18512SOL    HW156977   2.934   6.589   1.205  1.3402  0.2971  0.0880
18512SOL    HW256978   2.990   6.449   1.208  1.0654  0.1943  0.4389
18513SOL     OW56979   2.801   7.471   4.701 -0.3935 -0.7091 -0.2501
18513SOL    HW156980   2.872   7.522   4.663 -1.7871 -1.3796 -4.2672
18513SOL    HW256981   2.732   7.535   4.719 -0.4751 -0.5995 -0.9253
18514SOL     OW56982   5.703   7.067   4.479 -0.0585 -0.9559 -0.2000
18514SOL    HW156983   5.783   7.016   4.468  1.2054  0.6572  1.0478
18514SOL    HW256984   5.700   7.123   4.401  0.2537 -0.7410 -0.0604
18515SOL     OW56985   1.798   1.832   4.521  0.1741 -0.1764 -0.7688
18515SOL    HW156986   1.850   1.844   4.441  0.8896  0.3699 -0.2349
18515SOL    HW256987   1.834   1.895   4.583  1.8768 -2.7564  1.0861
18516SOL     OW56988   5.100   1.831   0.430  0.5774 -0.5063 -0.0490
18516SOL    HW156989   5.026   1.770   0.423  0.2510  0.0457 -2.2030
18516SOL    HW256990   5.156   1.807   0.356  1.3199  0.6728  0.1252
18517SOL     OW56991   4.662   1.731   5.854  0.1993  0.0419 -0.8166
18517SOL    HW156992   4.571   1.708   5.875  0.4008 -1.7837 -1.7462
18517SOL    HW256993   4.699   1.762   5.937 -1.1169  0.3443 -0.3181
18518SOL     OW56994   0.891   5.375   5.668  0.1887 -0.3557 -0.4504
18518SOL    HW156995   0.935   5.290   5.657 -0.1240 -0.3837 -1.6980
18518SOL    HW256996   0.818   5.356   5.727  1.9339 -0.2423  1.9032
18519SOL     OW56997   0.262   3.654   6.752 -0.3634  0.5381 -0.1909
18519SOL    HW156998   0.306   3.734   6.723 -0.3690  0.0849 -1.5533
18519SOL    HW256999   0.192   3.641   6.687 -0.8004 -0.1920  0.4173
18520SOL     OW57000   0.611   0.371   4.528  1.0171 -0.5642  0.3886
18520SOL    HW157001   0.625   0.464   4.543 -1.2913  0.0099 -0.5056
18520SOL    HW257002   0.516   0.362   4.518  0.9809 -3.2838  2.0418
18521SOL     OW57003   6.221   0.561  11.644  0.0467 -0.3327 -0.0557
18521SOL    HW157004   6.303   0.530  11.683  0.1291  0.6006  0.5467
18521SOL    HW257005   6.153   0.514  11.690  0.1507  0.6649  1.1539
18522SOL     OW57006   1.095   7.816   0.043  0.6518 -0.1812  0.0772
18522SOL    HW157007   1.172   7.840   0.095 -0.8701  1.7732  1.6104
18522SOL    HW257008   1.051   7.900   0.026 -1.1077 -1.2301 -0.7642
18523SOL     OW57009   4.442   1.939   2.338  0.2266 -0.5180 -0.1271
18523SOL    HW157010   4.352   1.970   2.331  0.2723 -0.7195 -2.0230
18523SOL    HW257011   4.461   1.899   2.253  2.8338  1.4689 -0.6028
18524SOL     OW57012   4.381   7.273   3.703 -0.4982  0.2823  0.2516
18524SOL    HW157013   4.398   7.233   3.618 -0.1422  2.0038 -0.5224
18524SOL    HW257014   4.287   7.264   3.716 -0.3955 -1.0207  0.2385
18525SOL     OW57015   6.562   0.729  10.138  0.0251  0.7504  0.2750
18525SOL    HW157016   6.598   0.817  10.132  0.6962  0.6443  2.0395
18525SOL    HW257017   6.637   0.671  10.120 -0.1507  0.5430  0.2052
18526SOL     OW57018   0.737   0.887   8.147  0.7347  0.0617  0.0736
18526SOL    HW157019   0.788   0.836   8.085  0.1088  0.7719 -1.0518
18526SOL    HW257020   0.762   0.853   8.233  0.7288 -1.7620 -0.6131
18527SOL     OW57021   1.110   6.218   3.121 -0.9806  0.3276  0.1078
18527SOL    HW157022   1.076   6.233   3.209  0.3161 -0.5903  0.7898
18527SOL    HW257023   1.118   6.123   3.113 -0.2895  0.4398 -0.6914
18528SOL     OW57024   2.883   0.676   5.438 -0.1912 -0.0839  0.6081
18528SOL    HW157025   2.946   0.641   5.375 -0.4073 -0.1946  0.4561
18528SOL    HW257026   2.890   0.771   5.429 -0.4204 -0.1047  0.2259
18529SOL     OW57027   5.676   2.681   8.767 -0.1363 -0.4146 -0.3470
18529SOL    HW157028   5.691   2.646   8.679  0.0396 -0.9243 -0.1208
18529SOL    HW257029   5.749   2.646   8.819 -1.4218 -1.9574  0.5027
18530SOL     OW57030   0.533   7.011  11.902 -0.3076  0.0505  0.3350
18530SOL    HW157031   0.537   7.089  11.957  0.0346 -0.0004  0.3890
18530SOL    HW257032   0.461   7.028  11.841  0.5364  0.9567 -0.4650
18531SOL     OW57033   1.180   4.079   5.342  0.1391 -0.4233  0.4673
18531SOL    HW157034   1.211   4.021   5.412 -0.0897 -0.9367  0.1413
18531SOL    HW257035   1.151   4.158   5.389  0.7919 -0.4214  0.8786
18532SOL     OW57036   5.167   3.655   3.226  0.3807  0.1980 -0.4703
18532SOL    HW157037   5.262   3.650   3.218  0.6538  0.3386  1.8818
18532SOL    HW257038   5.135   3.575   3.183  1.6155 -0.2543 -0.5858
18533SOL     OW57039   2.044   2.976  12.410 -0.8012 -0.6143 -0.1858
18533SOL    HW157040   2.009   2.972  12.499  1.1879  0.7624  0.7377
18533SOL    HW257041   2.005   3.055  12.372 -0.3684 -0.2677  0.0808
18534SOL     OW57042   1.492   1.532   7.564 -0.0003  0.0350  0.4688
18534SOL    HW157043   1.407   1.575   7.556 -0.7401 -1.3211  0.8152
18534SOL    HW257044   1.554   1.604   7.574 -0.6001  1.3253 -3.3562
18535SOL     OW57045   4.553   7.187   0.016  0.6817  0.3279 -0.2343
18535SOL    HW157046   4.468   7.208   0.054  0.3758 -0.6059 -0.3791
18535SOL    HW257047   4.613   7.188   0.090 -0.0734 -2.4114  0.5234
18536SOL     OW57048   0.451   3.443   6.060 -0.5285  0.2019 -0.0327
18536SOL    HW157049   0.471   3.408   6.146  0.7290  0.5404 -0.1643
18536SOL    HW257050   0.529   3.494   6.036 -1.3122  1.0550 -0.8775
18537SOL     OW57051   3.380   2.623   5.418 -0.5192 -0.6289 -0.1149
18537SOL    HW157052   3.450   2.595   5.358 -1.6128  0.6520 -2.1055
18537SOL    HW257053   3.303   2.631   5.362 -1.2539  2.0837  1.1481
18538SOL     OW57054   4.136   3.842   2.355 -0.0415 -0.1477  0.1084
18538SOL    HW157055   4.164   3.804   2.438  0.7019 -0.4874 -0.2922
18538SOL    HW257056   4.145   3.771   2.292  2.4618  0.9358 -0.8781
18539SOL     OW57057   3.158   3.617  11.164  0.3237 -0.2443  0.5930
18539SOL    HW157058   3.244   3.581  11.147  0.3356 -0.0732  0.2815
18539SOL    HW257059   3.174   3.687  11.227  0.7994  1.5591 -1.4030
18540SOL     OW57060   7.668   2.371   1.426  0.1533 -0.6766 -0.2789
18540SOL    HW157061   7.577   2.393   1.448  0.1061  0.3212 -1.3539
18540SOL    HW257062   7.701   2.325   1.502 -0.4319  1.2721  1.2299
18541SOL     OW57063   7.706   7.424   5.398 -0.0928  0.0694  0.4812
18541SOL    HW157064   7.657   7.503   5.421 -0.8211 -0.3037  0.2386
18541SOL    HW257065   7.646   7.352   5.417  0.4691 -0.4202  0.4562
18542SOL     OW57066   5.753   3.460   0.255  0.2608  0.0528  0.5208
18542SOL    HW157067   5.722   3.379   0.215 -0.1150  0.5776 -0.2713
18542SOL    HW257068   5.847   3.463   0.236  0.1843  0.0344  0.1489
18543SOL     OW57069   7.689   7.458   1.808  0.4480 -0.0535  1.0259
18543SOL    HW157070   7.732   7.493   1.730 -0.2126 -0.1799  0.6010
18543SOL    HW257071   7.667   7.535   1.860 -0.9571  0.1963  0.1145
18544SOL     OW57072   2.920   0.060   2.152  0.6035  0.5430 -0.0994
18544SOL    HW157073   2.911   0.084   2.060  0.2349 -0.2788 -0.2946
18544SOL    HW257074   2.847   0.104   2.196 -0.6130 -0.8777 -0.6018
18545SOL     OW57075   3.378   7.704   0.885  0.8519  0.3267 -0.1325
18545SOL    HW157076   3.426   7.776   0.844 -0.8267  1.5675 -0.0214
18545SOL    HW257077   3.343   7.741   0.966  0.8972 -0.9680  0.5147
18546SOL     OW57078   5.539   2.065   0.981  0.8090  1.0353 -0.6931
18546SOL    HW157079   5.584   2.010   0.918  0.6979 -0.1386  0.2192
18546SOL    HW257080   5.480   2.119   0.929  1.4642  0.8370 -1.6659
18547SOL     OW57081   5.902   3.639   6.019 -0.1214  0.1755 -0.0652
18547SOL    HW157082   5.971   3.620   6.082 -0.8874 -1.5683  0.3391
18547SOL    HW257083   5.845   3.562   6.023 -1.3987  1.0032 -1.2904
18548SOL     OW57084   2.610   0.522   6.273 -0.3504  0.5178 -0.0679
18548SOL    HW157085   2.577   0.605   6.309 -1.3379 -0.8617  2.4984
18548SOL    HW257086   2.584   0.523   6.181  0.7626  3.5433 -0.4841
18549SOL     OW57087   2.484   4.568   7.692  0.2959 -0.1131  0.3793
18549SOL    HW157088   2.480   4.479   7.727  1.4185  0.6781  2.7252
18549SOL    HW257089   2.417   4.569   7.624  1.4683 -3.2594 -1.0515
18550SOL     OW57090   4.487   7.070   3.169  0.1061 -0.5931  0.4349
18550SOL    HW157091   4.403   7.059   3.124 -0.3044  0.0055  1.0320
18550SOL    HW257092   4.489   7.162   3.193  0.8379 -0.6563  0.6314
18551SOL     OW57093   7.655   4.942   9.768 -0.7269 -0.3767 -0.0885
18551SOL    HW157094   7.704   5.024   9.774 -1.0906 -0.1144 -0.6045
18551SOL    HW257095   7.694   4.897   9.692 -2.3128  0.5586 -1.5352
18552SOL     OW57096   3.153   4.214   9.596 -0.0048  0.3287  0.1172
18552SOL    HW157097   3.147   4.275   9.522 -3.0528 -0.5907 -0.5384
18552SOL    HW257098   3.222   4.153   9.572  0.4795  1.2794 -0.9802
18553SOL     OW57099   7.574   5.682   8.803 -0.1955  0.1154  0.0552
18553SOL    HW157100   7.569   5.729   8.886 -0.5780 -0.1869  0.2093
18553SOL    HW257101   7.619   5.742   8.743 -1.5543  1.0872 -0.0359
18554SOL     OW57102   2.135   4.865   4.185  0.3105 -0.3869 -0.1273
18554SOL    HW157103   2.110   4.816   4.106  0.6411  1.2056 -1.2569
18554SOL    HW257104   2.229   4.881   4.175  0.6663 -1.3663  1.2995
18555SOL     OW57105   1.429   4.370   2.876 -0.0666 -0.0653  0.2893
18555SOL    HW157106   1.452   4.309   2.807 -1.2010  0.4309 -0.5559
18555SOL    HW257107   1.398   4.448   2.830 -2.4052 -0.3126  1.3169
18556SOL     OW57108   3.382   6.334   0.331 -0.4664  0.0694 -0.1870
18556SOL    HW157109   3.442   6.265   0.358 -0.2734 -0.5157 -1.9739
18556SOL    HW257110   3.295   6.294   0.339 -0.4312 -0.0052 -0.1784
18557SOL     OW57111   4.440   7.419  11.490 -0.2570  0.4370 -0.1545
18557SOL    HW157112   4.396   7.502  11.473  0.0354  0.6121 -0.0608
18557SOL    HW257113   4.405   7.360  11.424 -2.0537  0.0483  1.0464
18558SOL     OW57114   6.268   2.170   8.184 -0.4014 -0.2715  1.0437
18558SOL    HW157115   6.185   2.192   8.143  0.4677  0.7663 -0.2264
18558SOL    HW257116   6.263   2.075   8.198 -1.6224 -0.2903  0.6162
18559SOL     OW57117   0.411   5.360   6.238 -0.2010  0.2216 -0.0749
18559SOL    HW157118   0.373   5.407   6.312 -1.2264  0.2858 -0.6321
18559SOL    HW257119   0.433   5.274   6.273  0.2709  0.5854  0.5565
18560SOL     OW57120   7.227   2.441   7.858 -0.3570  0.0318 -0.6744
18560SOL    HW157121   7.182   2.477   7.782  0.7374  0.8084 -0.9859
18560SOL    HW257122   7.166   2.455   7.930 -0.5622  1.2291 -1.0442
18561SOL     OW57123   2.130   0.928   6.986 -0.2429 -0.0649  0.1437
18561SOL    HW157124   2.065   0.867   7.022 -1.3510  0.6044 -0.6788
18561SOL    HW257125   2.176   0.877   6.919  0.3512 -0.6532  0.9796
18562SOL     OW57126   5.273   1.118   3.709  0.1312 -0.2517 -0.4110
18562SOL    HW157127   5.307   1.055   3.773 -1.1272 -1.4765 -0.8927
18562SOL    HW257128   5.214   1.174   3.760 -0.7518 -1.1276 -0.4400
18563SOL     OW57129   5.695   4.835   6.818 -0.5328 -0.3273 -0.4396
18563SOL    HW157130   5.650   4.886   6.886 -1.2777  1.4055 -2.1020
18563SOL    HW257131   5.624   4.806   6.760  0.2280  0.2218 -1.7006
18564SOL     OW57132   3.883   7.021  12.415 -0.6303  0.1057  0.1214
18564SOL    HW157133   3.972   7.007  12.448 -0.7862 -0.2922  0.3730
18564SOL    HW257134   3.854   7.101  12.459 -0.5709 -0.0248  0.3994
18565SOL     OW57135   3.304   7.986   6.159  0.4349  0.3579  0.4043
18565SOL    HW157136   3.224   7.933   6.166  1.5513 -1.2951  1.3011
18565SOL    HW257137   3.374   7.921   6.148  1.7063  1.7539  0.0347
18566SOL     OW57138   2.538   6.577   9.878 -0.5110  0.4379 -0.0045
18566SOL    HW157139   2.531   6.489   9.915  0.6492 -0.4076 -1.7090
18566SOL    HW257140   2.589   6.626   9.943 -1.3858 -0.0330  1.0797
18567SOL     OW57141   5.240   4.731   8.061 -0.3479 -0.4739 -0.0890
18567SOL    HW157142   5.324   4.745   8.106  0.3041 -0.0435 -1.3964
18567SOL    HW257143   5.203   4.654   8.105  0.9973 -1.0398  0.1338
18568SOL     OW57144   5.354   5.698   8.820 -0.1949  0.0961 -0.4671
18568SOL    HW157145   5.440   5.709   8.781  0.6770 -1.1159  0.9700
18568SOL    HW257146   5.334   5.605   8.806 -0.2043 -0.1771  1.1943
18569SOL     OW57147   2.757   1.168  10.289 -0.1817 -0.2179 -0.1524
18569SOL    HW157148   2.760   1.085  10.242  1.1273  0.1402 -0.7591
18569SOL    HW257149   2.718   1.230  10.228  0.7151  0.0494 -0.4771
18570SOL     OW57150   7.390   2.076   5.681 -0.0913  0.3539  0.3930
18570SOL    HW157151   7.355   1.986   5.681  1.0005 -0.0891 -0.3739
18570SOL    HW257152   7.360   2.113   5.598  0.0843  0.4400  0.3682
18571SOL     OW57153   2.570   4.440   0.163  0.0028  0.5664  0.6304
18571SOL    HW157154   2.612   4.474   0.084 -1.2678  1.6351  0.3826
18571SOL    HW257155   2.643   4.414   0.219  0.9344 -0.8167 -1.1119
18572SOL     OW57156   3.858   1.424   7.574 -0.1189  0.3399  0.0252
18572SOL    HW157157   3.768   1.450   7.556 -0.8021 -2.3050 -0.7082
18572SOL    HW257158   3.856   1.389   7.663  0.2495  0.4326  0.0752
18573SOL     OW57159   6.572   0.942   3.390 -0.2934 -0.5479  0.0749
18573SOL    HW157160   6.500   0.982   3.341  0.8497  0.3482 -0.9429
18573SOL    HW257161   6.649   0.953   3.333  0.5328 -2.0677  0.8348
18574SOL     OW57162   2.066   0.767  11.249  0.6696 -0.1386  0.5863
18574SOL    HW157163   2.160   0.782  11.244  0.4075  1.5144 -0.0596
18574SOL    HW257164   2.056   0.700  11.316  2.3801 -1.3231 -0.2570
18575SOL     OW57165   0.950   7.789   3.843 -0.2321 -0.5847  0.4459
18575SOL    HW157166   0.925   7.872   3.802  0.1364 -1.2322 -1.1793
18575SOL    HW257167   0.870   7.736   3.838  0.0318 -0.9370 -0.1963
18576SOL     OW57168   1.197   3.951  12.265  0.1299  0.3188 -0.3455
18576SOL    HW157169   1.175   3.867  12.306  2.5213  0.6657  1.9725
18576SOL    HW257170   1.287   3.938  12.234  0.4196  1.9127 -0.2181
18577SOL     OW57171   6.710   3.756   6.559 -0.6890  0.4306 -0.2810
18577SOL    HW157172   6.753   3.721   6.481 -0.3760  1.7476 -0.7178
18577SOL    HW257173   6.779   3.803   6.605 -0.0737 -2.6674  2.3852
18578SOL     OW57174   5.569   0.471   7.258  0.2691 -0.2797 -0.1482
18578SOL    HW157175   5.581   0.564   7.239  0.2207  0.3008  2.2633
18578SOL    HW257176   5.627   0.426   7.197  1.9946  1.4848  0.0816
18579SOL     OW57177   7.921   4.863  11.008 -0.4847 -0.4822 -0.5435
18579SOL    HW157178   7.863   4.939  11.009 -0.0272 -0.0887  1.8652
18579SOL    HW257179   7.971   4.872  10.927 -1.2689  1.1348 -0.8790
18580SOL     OW57180   1.730   7.894  11.715 -0.0151 -0.2545 -0.2592
18580SOL    HW157181   1.751   7.864  11.627  0.3468  0.2300 -0.3420
18580SOL    HW257182   1.641   7.930  11.708  0.3267  0.5427 -0.6193
18581SOL     OW57183   4.666   7.696  11.584 -0.8916  0.1869 -0.1429
18581SOL    HW157184   4.647   7.672  11.493 -3.2268 -0.8049  0.5371
18581SOL    HW257185   4.740   7.640  11.609 -1.1795 -0.5907 -0.9854
18582SOL     OW57186   1.486   7.084   6.155 -0.4421 -0.0838  0.0565
18582SOL    HW157187   1.455   7.032   6.080 -2.4721  1.1448 -0.0185
18582SOL    HW257188   1.519   7.164   6.115 -2.4161  0.9939  0.4531
18583SOL     OW57189   6.133   3.072   8.671  0.6347 -0.1891  0.3607
18583SOL    HW157190   6.077   3.147   8.651  1.4673 -0.0101 -1.5054
18583SOL    HW257191   6.074   2.997   8.669  0.3471  0.0528 -1.0484
18584SOL     OW57192   2.148   1.434   8.188  0.2422  0.1549  0.2657
18584SOL    HW157193   2.167   1.354   8.140  0.5832  1.2695 -1.5983
18584SOL    HW257194   2.205   1.430   8.265  0.9861 -0.9305 -0.3120
18585SOL     OW57195   1.651   6.196   3.952  0.5444 -0.4275  0.0891
18585SOL    HW157196   1.664   6.269   3.891 -0.3191 -0.3186  0.0254
18585SOL    HW257197   1.723   6.136   3.933  1.4926  0.5813  0.4046
18586SOL     OW57198   2.182   5.604   8.967  0.5487  0.0204  0.3153
18586SOL    HW157199   2.104   5.596   9.021 -0.6260  0.2760 -1.2714
18586SOL    HW257200   2.252   5.568   9.021 -0.5845  0.1173  1.9195
18587SOL     OW57201   6.558   4.250   4.378 -0.3571 -0.2438  0.1150
18587SOL    HW157202   6.537   4.156   4.379 -0.5929 -0.1895  1.2239
18587SOL    HW257203   6.479   4.291   4.342 -0.8782 -0.3360  1.1367
18588SOL     OW57204   2.242   6.353  11.342 -0.4917  0.3099 -0.4486
18588SOL    HW157205   2.201   6.376  11.426  0.0489 -0.8382  0.1560
18588SOL    HW257206   2.310   6.419  11.329  0.4175 -0.3372  0.7864
18589SOL     OW57207   1.249   6.990   6.816  0.3271  0.4578  0.2024
18589SOL    HW157208   1.277   6.962   6.904 -0.6526 -1.5142 -0.0525
18589SOL    HW257209   1.327   6.976   6.761  1.0974  2.1510  0.7885
18590SOL     OW57210   7.841   7.672   4.284  0.2122 -0.1912 -0.6663
18590SOL    HW157211   7.900   7.733   4.240  0.5510 -0.4940 -0.6361
18590SOL    HW257212   7.758   7.719   4.290  0.5624  0.3895 -0.3403
18591SOL     OW57213   3.175   1.879   6.041 -0.3310  0.5984 -0.2843
18591SOL    HW157214   3.198   1.787   6.050 -0.5592  0.5951  0.2358
18591SOL    HW257215   3.258   1.926   6.054 -0.2892  0.4891 -0.1594
18592SOL     OW57216   7.868   3.614   0.735 -0.3757 -0.0904  0.0063
18592SOL    HW157217   7.962   3.621   0.754 -0.6769  2.6811  0.9003
18592SOL    HW257218   7.859   3.648   0.646 -0.5328 -0.3596 -0.0810
18593SOL     OW57219   6.313   4.209   7.737 -0.3750  0.0113  0.2873
18593SOL    HW157220   6.223   4.232   7.761 -0.6483 -1.7053  1.0494
18593SOL    HW257221   6.345   4.157   7.811  1.5312  1.2222  0.3902
18594SOL     OW57222   4.206   2.180  11.094 -0.3845  1.0756 -0.0623
18594SOL    HW157223   4.193   2.101  11.147 -2.0580  1.1524 -0.3041
18594SOL    HW257224   4.180   2.252  11.151  1.6177  1.5313  0.3291
18595SOL     OW57225   6.947   2.703   4.169 -0.2600  0.1376 -0.2661
18595SOL    HW157226   6.977   2.613   4.158  1.0417  0.5832 -0.5498
18595SOL    HW257227   6.873   2.712   4.109 -1.3503 -1.1461  0.8287
18596SOL     OW57228   1.829   0.496   1.874 -0.0630 -0.4073 -0.7961
18596SOL    HW157229   1.870   0.560   1.817  0.2575 -0.7598 -0.9654
18596SOL    HW257230   1.895   0.427   1.885  0.0436 -0.1459  0.3342
18597SOL     OW57231   5.181   3.336   7.638  0.8479 -0.4144  0.2634
18597SOL    HW157232   5.220   3.384   7.711 -0.7642  0.9379  0.2856
18597SOL    HW257233   5.087   3.345   7.651  0.5220 -0.5455 -1.7326
18598SOL     OW57234   7.176   0.865   2.586  0.1612  0.0231  0.3830
18598SOL    HW157235   7.255   0.919   2.587  0.8898 -1.0266  1.0754
18598SOL    HW257236   7.202   0.783   2.628 -1.1008 -0.6262 -0.0505
18599SOL     OW57237   4.403   0.485  10.911 -0.2014  0.1907 -0.4238
18599SOL    HW157238   4.345   0.424  10.865  0.9127 -0.8377 -0.5129
18599SOL    HW257239   4.467   0.512  10.845 -0.6719  1.4979 -0.3904
18600SOL     OW57240   7.976   6.501   5.088 -0.5252 -0.0657 -0.0311
18600SOL    HW157241   7.946   6.415   5.060  0.6609 -0.4325 -0.2223
18600SOL    HW257242   8.064   6.486   5.122 -1.3780  0.5441  2.7905
18601SOL     OW57243   6.357   3.809   1.146 -0.3077  0.2987  0.2447
18601SOL    HW157244   6.286   3.781   1.204  0.8252 -1.4470  0.8544
18601SOL    HW257245   6.336   3.769   1.062 -0.7720  0.9816  0.0230
18602SOL     OW57246   3.229   4.698   5.116  0.5187  0.5867 -0.3846
18602SOL    HW157247   3.260   4.609   5.099  0.9726  0.5231  0.7182
18602SOL    HW257248   3.160   4.687   5.182  1.0752  1.1032  0.3024
18603SOL     OW57249   1.033   3.992  10.719 -0.1337  0.2509  0.0246
18603SOL    HW157250   0.976   3.985  10.642  0.2879  2.7297 -0.5991
18603SOL    HW257251   1.121   4.002  10.683  0.1890  0.5031  0.8631
18604SOL     OW57252   2.358   2.309  10.261 -0.3288 -0.1005  0.5220
18604SOL    HW157253   2.379   2.316  10.354 -0.3469  1.3857  0.4404
18604SOL    HW257254   2.432   2.351  10.216 -0.8757  0.2669 -0.0545
18605SOL     OW57255   0.641   6.425  11.952  0.7263 -0.2428 -0.0274
18605SOL    HW157256   0.599   6.486  11.891  0.2853 -1.1281 -0.6369
18605SOL    HW257257   0.734   6.445  11.946  0.5611  0.5266 -0.0392
18606SOL     OW57258   7.036   0.279   8.384  0.2981  0.2094  0.1064
18606SOL    HW157259   7.110   0.229   8.349  1.2797  0.0847  2.1974
18606SOL    HW257260   7.065   0.370   8.380 -0.2128  0.3323 -0.8188
18607SOL     OW57261   3.227   3.390   0.040 -0.4913  0.2372 -0.4512
18607SOL    HW157262   3.246   3.307  -0.003 -1.1878 -0.2432  0.1443
18607SOL    HW257263   3.220   3.453  -0.032  2.7551  0.3902 -0.7703
18608SOL     OW57264   5.268   0.571   6.428 -0.3967 -0.1683  0.1097
18608SOL    HW157265   5.263   0.657   6.387  1.1310 -0.2646 -0.3216
18608SOL    HW257266   5.301   0.588   6.517 -0.9981 -0.2308  0.3507
18609SOL     OW57267   1.107   2.333   9.030  0.4896 -0.2823 -0.2568
18609SOL    HW157268   1.200   2.313   9.043  0.5337 -0.3793 -0.7155
18609SOL    HW257269   1.107   2.421   8.993  0.4051 -0.3348 -0.3815
18610SOL     OW57270   2.890   6.472   6.336 -0.4556 -0.3681 -0.0331
18610SOL    HW157271   2.823   6.509   6.279  1.6767  2.9276 -0.6749
18610SOL    HW257272   2.943   6.416   6.279 -2.0480 -2.3078  0.2960
18611SOL     OW57273   0.305   0.355   6.750 -0.1820  0.2709 -0.4619
18611SOL    HW157274   0.346   0.437   6.723  1.2118 -0.0406  0.5684
18611SOL    HW257275   0.284   0.368   6.842 -1.4662  0.0420 -0.7148
18612SOL     OW57276   5.174   3.025  10.787 -0.0349  0.3054 -0.8429
18612SOL    HW157277   5.152   3.117  10.801 -0.6955 -0.0483  0.6281
18612SOL    HW257278   5.134   2.979  10.861  1.6938 -0.9569 -0.6294
18613SOL     OW57279   6.812   2.129  10.658 -0.7129 -0.0728 -0.4010
18613SOL    HW157280   6.740   2.129  10.721 -0.0795  0.9099  0.3603
18613SOL    HW257281   6.778   2.176  10.582 -0.9117  0.2976 -0.0854
18614SOL     OW57282   2.653   6.528   9.044  0.2749  0.2003  0.1501
18614SOL    HW157283   2.722   6.579   9.001  0.1492 -0.6115 -1.0725
18614SOL    HW257284   2.642   6.570   9.129  1.0557  1.4210 -0.3152
18615SOL     OW57285   7.365   0.540   3.501 -0.6479 -0.3642  1.0212
18615SOL    HW157286   7.431   0.489   3.548  0.8037 -0.8218 -1.3208
18615SOL    HW257287   7.382   0.631   3.527  3.3157 -0.0042 -1.8956
18616SOL     OW57288   4.689   1.736   7.063 -0.0351 -0.1700 -0.5630
18616SOL    HW157289   4.758   1.771   7.120 -0.6052 -1.3507  0.9302
18616SOL    HW257290   4.724   1.653   7.031  0.0521  0.2211 -1.4883
18617SOL     OW57291   0.508   2.484   9.927 -0.3843  0.1705  0.3568
18617SOL    HW157292   0.468   2.476  10.014  0.1836 -1.4710  0.5032
18617SOL    HW257293   0.469   2.412   9.876  1.8078 -1.0681  0.3036
18618SOL     OW57294   7.448   5.979   9.240 -0.1943 -0.0019 -0.2930
18618SOL    HW157295   7.354   5.998   9.241 -0.0145  1.0106  1.4581
18618SOL    HW257296   7.484   6.034   9.309  1.6474 -0.6709 -0.6685
18619SOL     OW57297   4.085   7.804   4.738 -0.0570  0.0538 -1.0338
18619SOL    HW157298   4.101   7.767   4.825 -1.7762 -0.7307 -1.0063
18619SOL    HW257299   4.099   7.898   4.748 -0.8644  0.0527  0.2704
18620SOL     OW57300   4.446   0.568   9.236  0.6715  0.3409 -0.4668
18620SOL    HW157301   4.384   0.572   9.309  2.0592  0.3233  0.7626
18620SOL    HW257302   4.391   0.563   9.158 -0.8799  1.6794  0.4809
18621SOL     OW57303   3.741   5.139   0.489 -1.0534 -0.0219  0.2566
18621SOL    HW157304   3.683   5.155   0.564 -0.0604  0.9782  0.8454
18621SOL    HW257305   3.715   5.204   0.424 -0.8805  0.1486  0.3563
18622SOL     OW57306   0.453   2.210   0.543  0.3954  0.8679  0.2805
18622SOL    HW157307   0.427   2.255   0.463  0.1621  0.7693  0.2983
18622SOL    HW257308   0.375   2.214   0.599 -0.9731 -2.6187 -1.0514
18623SOL     OW57309   6.766   6.283   3.963  0.4942  0.0878  0.2020
18623SOL    HW157310   6.736   6.207   3.912  0.3648 -0.0659  0.5007
18623SOL    HW257311   6.688   6.311   4.011  0.6019  0.2605  0.2755
18624SOL     OW57312   3.309   2.721   9.326  0.1957  0.0519  0.6065
18624SOL    HW157313   3.317   2.793   9.263  0.7699 -0.2708  0.2920
18624SOL    HW257314   3.265   2.651   9.277 -0.4941  0.2342  0.9545
18625SOL     OW57315   1.507   2.218  10.864 -0.7349 -0.0812  0.0671
18625SOL    HW157316   1.541   2.268  10.790 -0.4912 -1.5703 -0.8730
18625SOL    HW257317   1.585   2.182  10.907 -0.7438  2.0365  2.0780
18626SOL     OW57318   4.105   5.194  11.687 -0.1941 -0.0959  0.0176
18626SOL    HW157319   4.122   5.100  11.677  1.3999  0.1499  0.1532
18626SOL    HW257320   4.080   5.204  11.779  1.3795 -0.1924  0.4978
18627SOL     OW57321   2.882   1.751   0.075 -0.4320 -0.4522  0.5457
18627SOL    HW157322   2.824   1.692   0.027 -0.3099 -0.1787  0.0590
18627SOL    HW257323   2.947   1.693   0.115  1.1901 -0.5065 -1.9550
18628SOL     OW57324   3.206   7.871  11.258 -0.1045  1.0287 -0.0443
18628SOL    HW157325   3.137   7.818  11.298 -1.6629  1.4730 -1.9602
18628SOL    HW257326   3.232   7.932  11.326 -2.4578  1.5985  0.4454
18629SOL     OW57327   4.885   2.469   7.404 -0.0140 -0.0138 -0.5286
18629SOL    HW157328   4.854   2.448   7.492 -1.3376 -2.2079 -1.4428
18629SOL    HW257329   4.892   2.565   7.403 -2.1692  0.2270  1.2623
18630SOL     OW57330   4.995   0.147   9.324 -0.4384 -0.3879 -0.2546
18630SOL    HW157331   5.009   0.062   9.283 -1.0707 -1.6352  1.9484
18630SOL    HW257332   5.030   0.210   9.261  0.1469 -2.2611 -1.9084
18631SOL     OW57333   4.442   1.355  10.650 -0.8147 -0.3956 -0.2181
18631SOL    HW157334   4.426   1.339  10.557 -0.6553 -0.2788 -0.2670
18631SOL    HW257335   4.537   1.345  10.660 -0.7323  0.3606 -0.2217
18632SOL     OW57336   2.372   4.140  11.725 -0.2752 -0.8024 -0.2555
18632SOL    HW157337   2.298   4.098  11.680 -1.2877 -1.6483  2.0264
18632SOL    HW257338   2.412   4.068  11.775  0.2684  0.2164  0.8099
18633SOL     OW57339   3.675   1.656   1.319 -0.4434 -0.2082 -0.5541
18633SOL    HW157340   3.591   1.688   1.351 -0.8147  0.2652 -1.9539
18633SOL    HW257341   3.673   1.670   1.225  0.8046 -1.1303 -0.7564
18634SOL     OW57342   1.287   6.141   4.722  0.3878 -0.4410 -0.1896
18634SOL    HW157343   1.276   6.213   4.661  1.4887 -0.0094  0.0983
18634SOL    HW257344   1.364   6.165   4.774  0.2161 -1.3843  0.5249
18635SOL     OW57345   4.519   2.400   7.628 -0.3707 -0.0348 -0.0279
18635SOL    HW157346   4.439   2.348   7.622  1.2118 -2.6935  0.4171
18635SOL    HW257347   4.527   2.442   7.543 -1.3415 -1.1202 -0.6787
18636SOL     OW57348   0.546   1.005   4.372 -0.2050 -0.6581 -0.2234
18636SOL    HW157349   0.561   0.938   4.304  0.3961 -1.3237  0.5414
18636SOL    HW257350   0.623   1.000   4.428 -0.1509  0.6997 -0.1428
18637SOL     OW57351   1.670   7.375   1.257  0.1366  0.3378  0.2715
18637SOL    HW157352   1.641   7.420   1.336  1.1021  0.7088  0.4289
18637SOL    HW257353   1.695   7.446   1.197  2.6592  0.0651  0.8990
18638SOL     OW57354   0.330   0.128   4.765  0.2314 -0.2101  0.2176
18638SOL    HW157355   0.342   0.139   4.671  2.0830 -0.4457  0.4014
18638SOL    HW257356   0.247   0.081   4.773  0.8477 -1.6563 -1.3780
18639SOL     OW57357   4.327   0.141   8.713 -0.5490 -0.1672  0.0428
18639SOL    HW157358   4.253   0.192   8.681 -2.1646 -1.4600  1.5261
18639SOL    HW257359   4.322   0.058   8.664 -1.4619 -1.1188  1.6582
18640SOL     OW57360   1.214   7.501   3.927  0.0690  0.2947  0.2315
18640SOL    HW157361   1.222   7.591   3.897 -0.0662  0.0438 -0.5589
18640SOL    HW257362   1.130   7.471   3.893  1.2842 -0.9940 -1.8713
18641SOL     OW57363   5.301   1.466   8.467 -0.7782 -0.4061  0.3676
18641SOL    HW157364   5.360   1.456   8.393  0.5209 -0.0000  1.3144
18641SOL    HW257365   5.298   1.379   8.507  0.7870 -0.0080  1.4556
18642SOL     OW57366   0.460   4.182   4.749  0.2373  0.1549  0.0011
18642SOL    HW157367   0.488   4.095   4.778  0.0579  0.1377  0.1248
18642SOL    HW257368   0.409   4.217   4.823  0.0071  0.2208 -0.1866
18643SOL     OW57369   3.897   5.692   7.142  0.3499 -0.3456 -0.6349
18643SOL    HW157370   3.855   5.691   7.227  1.2338 -0.5648 -0.1846
18643SOL    HW257371   3.948   5.611   7.139 -0.2757 -0.7145 -1.6879
18644SOL     OW57372   5.995   2.717   3.107  0.3108  0.6278 -0.7996
18644SOL    HW157373   5.920   2.775   3.120  0.7711  0.9619  0.4775
18644SOL    HW257374   5.959   2.629   3.119  0.1809  0.8036  0.2221
18645SOL     OW57375   0.290   2.836   8.686  0.1842 -0.1440  0.0342
18645SOL    HW157376   0.212   2.780   8.675  0.6288 -0.7918  0.1213
18645SOL    HW257377   0.343   2.790   8.751  0.4857  0.4708  0.2262
18646SOL     OW57378   0.707   5.051   6.999 -1.7057 -0.3616  0.1508
18646SOL    HW157379   0.701   4.961   7.032 -1.1830  0.1332  1.6831
18646SOL    HW257380   0.726   5.042   6.906  0.2195 -1.8571  0.6374
18647SOL     OW57381   1.711   7.903   3.226 -0.0637 -0.4475  0.6339
18647SOL    HW157382   1.723   7.863   3.140 -0.8868 -0.2735  0.4253
18647SOL    HW257383   1.709   7.830   3.287  0.1565 -0.5959  0.4651
18648SOL     OW57384   3.058   4.278  11.832 -0.0249 -0.5152  0.6336
18648SOL    HW157385   2.969   4.310  11.818  0.1293 -0.1668  0.4300
18648SOL    HW257386   3.081   4.235  11.750  0.0505 -0.4659  0.6290
18649SOL     OW57387   3.925   6.498   4.202  0.7792  0.3524  0.1700
18649SOL    HW157388   3.943   6.490   4.109 -0.6654  0.4393 -0.1500
18649SOL    HW257389   3.930   6.408   4.235 -0.6453  0.0243 -0.4166
18650SOL     OW57390   3.226   5.319   6.955  0.5580  0.3904  0.0180
18650SOL    HW157391   3.300   5.375   6.933 -0.3630  1.2909 -0.9202
18650SOL    HW257392   3.201   5.345   7.043  0.5166  1.0351 -0.1820
18651SOL     OW57393   5.349   2.901  11.214 -0.2686 -0.2983 -0.1286
18651SOL    HW157394   5.268   2.873  11.172 -0.7482  1.0273 -0.1350
18651SOL    HW257395   5.352   2.996  11.200 -0.3807  0.2094  2.6975
18652SOL     OW57396   4.203   6.151   7.093 -0.2390 -0.0601  0.1247
18652SOL    HW157397   4.267   6.098   7.046 -1.0666  0.0198 -1.1279
18652SOL    HW257398   4.127   6.094   7.103 -1.0050  0.7240 -0.9236
18653SOL     OW57399   2.905   7.650   6.210 -0.1259 -0.2946 -0.1590
18653SOL    HW157400   2.961   7.604   6.147  0.3587  0.9236 -0.6401
18653SOL    HW257401   2.817   7.642   6.174 -0.4300 -2.7228  0.8926
18654SOL     OW57402   4.532   6.112   5.945  0.1822  0.3214  0.5542
18654SOL    HW157403   4.481   6.124   5.865 -1.8613 -0.9652  1.5823
18654SOL    HW257404   4.588   6.036   5.927 -0.1123  0.1710  0.2740
18655SOL     OW57405   0.543   2.853   1.209  0.3395  0.1835  0.1129
18655SOL    HW157406   0.468   2.805   1.176  0.3491  0.1781  0.0990
18655SOL    HW257407   0.542   2.836   1.303  0.6651 -0.2960  0.0334
18656SOL     OW57408   4.297   4.488   3.226 -0.9914 -0.2215 -0.0922
18656SOL    HW157409   4.240   4.417   3.256 -0.9813 -0.0828  0.2582
18656SOL    HW257410   4.386   4.457   3.246 -0.9910 -0.0803  0.1259
18657SOL     OW57411   1.669   4.744   1.400 -0.1040  0.2830 -0.3849
18657SOL    HW157412   1.762   4.724   1.390 -0.0526 -0.9267  1.8976
18657SOL    HW257413   1.663   4.838   1.387  0.9979  0.0710 -3.0692
18658SOL     OW57414   2.782   7.741  11.457  0.2269 -0.1173 -0.1593
18658SOL    HW157415   2.782   7.691  11.539 -1.2783  0.5090  0.2577
18658SOL    HW257416   2.753   7.678  11.391 -0.0732 -0.2298  0.0739
18659SOL     OW57417   0.080   5.653  11.364 -0.1791 -0.5057  0.2014
18659SOL    HW157418   0.110   5.563  11.379  1.2802 -0.3190 -1.2209
18659SOL    HW257419   0.001   5.644  11.311 -0.9147 -0.9545  1.3346
18660SOL     OW57420   1.259   1.024   1.380  0.3415 -0.0290  0.8379
18660SOL    HW157421   1.309   1.105   1.389 -1.2812  1.1201  0.0592
18660SOL    HW257422   1.257   0.986   1.468 -0.7341  1.9517  1.7257
18661SOL     OW57423   7.490   7.714   1.597 -0.7732  0.1148  0.3071
18661SOL    HW157424   7.522   7.758   1.676  0.3846  0.9430 -0.5853
18661SOL    HW257425   7.566   7.671   1.560 -1.3789 -0.5662 -0.1758
18662SOL     OW57426   5.934   6.729  11.700  0.1597  0.1393  0.4335
18662SOL    HW157427   6.012   6.713  11.753 -0.0396  0.6678  0.8935
18662SOL    HW257428   5.874   6.775  11.759 -0.7347 -0.7714  0.2664
18663SOL     OW57429   7.164   0.174   2.857  0.2748 -0.5124 -0.2548
18663SOL    HW157430   7.072   0.199   2.863 -0.2343 -1.5853 -2.4424
18663SOL    HW257431   7.184   0.134   2.942 -1.2125 -0.0891  0.3197
18664SOL     OW57432   4.338   7.887   7.065  0.3931 -0.0576  0.7556
18664SOL    HW157433   4.275   7.956   7.088  0.7636  0.9478 -1.0424
18664SOL    HW257434   4.424   7.929   7.072  0.7109 -0.6989  0.8094
18665SOL     OW57435   0.929   0.145   9.538 -0.0173  0.7632  0.2579
18665SOL    HW157436   1.002   0.183   9.489 -0.3203  0.0163 -0.8087
18665SOL    HW257437   0.967   0.070   9.583  0.0421  0.8407  0.3365
18666SOL     OW57438   2.100   4.922  11.818 -0.3049  0.3096  0.6518
18666SOL    HW157439   2.059   4.840  11.791 -0.4228  0.2177  1.1037
18666SOL    HW257440   2.027   4.976  11.850 -0.1052  0.2290  1.2526
18667SOL     OW57441   1.663   3.238   4.381  0.1016  0.0334 -0.6263
18667SOL    HW157442   1.741   3.278   4.342 -0.7294  1.7682 -0.6046
18667SOL    HW257443   1.648   3.289   4.461  0.2051 -1.7243  0.5735
18668SOL     OW57444   1.437   0.336   8.509 -0.2371 -0.0763 -0.4822
18668SOL    HW157445   1.349   0.339   8.546 -0.2487  0.1470 -0.5286
18668SOL    HW257446   1.481   0.414   8.544  0.3229 -0.8182  0.5017
18669SOL     OW57447   1.019   1.220   8.335 -0.7200  0.2336 -0.4336
18669SOL    HW157448   0.978   1.156   8.393 -4.3290  2.0873 -0.7026
18669SOL    HW257449   0.990   1.305   8.367 -0.5044  1.4824 -3.2392
18670SOL     OW57450   6.855   1.963   4.324  0.5054  0.7377  0.5017
18670SOL    HW157451   6.915   1.907   4.374 -0.6847 -0.6839  0.3957
18670SOL    HW257452   6.834   1.911   4.246 -1.4504  0.8488  0.9047
18671SOL     OW57453   0.835   4.155   8.975 -0.1149  0.1650 -0.1346
18671SOL    HW157454   0.765   4.152   8.910  0.0144 -2.8274 -0.3006
18671SOL    HW257455   0.912   4.124   8.928  0.1365 -1.3960  1.2023
18672SOL     OW57456   4.805   2.319   1.986 -0.2184  0.0992 -0.1214
18672SOL    HW157457   4.712   2.304   1.971 -0.9159  1.2567  2.5460
18672SOL    HW257458   4.837   2.236   2.023 -0.5881  0.2338  0.5080
18673SOL     OW57459   7.351   0.602  11.136  0.0396  0.2250  0.6395
18673SOL    HW157460   7.260   0.628  11.150  0.2012  0.8431  0.5683
18673SOL    HW257461   7.345   0.521  11.085 -0.4665  0.4588  0.3145
18674SOL     OW57462   6.860   0.020  11.100  0.2412  0.0836  0.6033
18674SOL    HW157463   6.900   0.099  11.062  0.6546 -0.7943 -0.8289
18674SOL    HW257464   6.933  -0.040  11.113 -0.2762 -0.6266  0.2802
18675SOL     OW57465   1.603   3.731   8.912  0.1440 -0.4141  0.2505
18675SOL    HW157466   1.620   3.771   8.998  0.3074 -1.3952  0.6899
18675SOL    HW257467   1.624   3.800   8.849  0.9002  0.0356  0.9657
18676SOL     OW57468   4.693   1.120   8.067  0.0103 -0.2030  0.1326
18676SOL    HW157469   4.677   1.193   8.007  0.8669  0.7076  0.9733
18676SOL    HW257470   4.692   1.160   8.154  0.6131 -1.1721  0.6048
18677SOL     OW57471   2.938   3.395   0.005 -0.3516 -0.2076 -0.0469
18677SOL    HW157472   2.892   3.322  -0.036  0.1589 -0.3377 -0.4033
18677SOL    HW257473   3.028   3.364   0.016 -0.5295 -0.2699  1.4401
18678SOL     OW57474   1.270   4.017   0.932  0.1271 -0.0298 -0.0001
18678SOL    HW157475   1.249   3.925   0.949 -0.8599  0.1797 -0.0313
18678SOL    HW257476   1.306   4.017   0.843  1.5589 -0.5745  0.5427
18679SOL     OW57477   6.386   1.434   3.014 -0.1870  0.2602 -0.3512
18679SOL    HW157478   6.296   1.461   3.033  0.4508  0.4027  3.0599
18679SOL    HW257479   6.407   1.371   3.083  3.1457  2.1629  0.5886
18680SOL     OW57480   5.357   2.331   3.680 -0.2105 -0.0983 -0.0915
18680SOL    HW157481   5.303   2.259   3.648 -0.2055  0.5668 -1.7175
18680SOL    HW257482   5.318   2.409   3.641  1.4172  0.4934 -0.6284
18681SOL     OW57483   6.643   7.361   9.848 -0.2469  0.3360 -0.4675
18681SOL    HW157484   6.652   7.272   9.880  1.0714  0.8839  0.7968
18681SOL    HW257485   6.603   7.409   9.921  1.5808  1.3220 -0.0498
18682SOL     OW57486   1.623   6.176   0.977 -0.1709 -0.3126  0.3944
18682SOL    HW157487   1.702   6.134   0.942  2.0365  2.4325  1.6420
18682SOL    HW257488   1.603   6.126   1.056  0.1357 -1.2166 -0.0821
18683SOL     OW57489   5.972   6.671   5.603  0.0874 -0.4202 -0.7513
18683SOL    HW157490   5.880   6.656   5.628  0.7406 -3.2048  0.3355
18683SOL    HW257491   6.012   6.584   5.605  2.3819  0.4576 -2.9544
18684SOL     OW57492   6.006   4.508   6.148 -0.0318 -0.2703  0.3291
18684SOL    HW157493   6.016   4.432   6.206 -1.2857 -0.8670 -0.2001
18684SOL    HW257494   5.973   4.577   6.206  0.7664 -0.2150  0.7379
18685SOL     OW57495   2.826   4.534   4.130 -0.2086  0.4496  0.2144
18685SOL    HW157496   2.893   4.547   4.063 -2.4671  0.1860 -2.2754
18685SOL    HW257497   2.872   4.490   4.201  2.2091  0.1767 -1.3794
18686SOL     OW57498   0.185   3.436   6.413  0.1033 -0.1705  0.4175
18686SOL    HW157499   0.166   3.345   6.435  0.4937 -0.0907  1.1049
18686SOL    HW257500   0.154   3.446   6.323 -0.9998 -0.6693  0.7263
18687SOL     OW57501   2.592   1.685   8.543  0.0543 -0.4903 -0.3902
18687SOL    HW157502   2.664   1.739   8.576 -1.2795  1.1237  0.0704
18687SOL    HW257503   2.598   1.692   8.448  0.2570  0.0247 -0.3453
18688SOL     OW57504   2.215   4.900   2.959  0.1878  0.5549  0.0494
18688SOL    HW157505   2.123   4.875   2.950  0.6357 -0.7915 -1.2878
18688SOL    HW257506   2.222   4.935   3.048 -1.5981  0.6666  0.1841
18689SOL     OW57507   6.704   6.048   8.217 -0.3187 -0.0719  0.1186
18689SOL    HW157508   6.756   6.122   8.248 -0.4217  0.2670 -0.4943
18689SOL    HW257509   6.738   5.973   8.265 -2.7902  0.8665  3.7545
18690SOL     OW57510   4.715   3.362   4.962 -0.0647 -0.1565 -0.1235
18690SOL    HW157511   4.762   3.362   4.878  0.1657 -2.0512 -0.0206
18690SOL    HW257512   4.639   3.306   4.947  0.4083 -1.1728  1.1427
18691SOL     OW57513   3.952   7.296   6.494  0.7408 -0.0390  0.1892
18691SOL    HW157514   3.862   7.326   6.507  0.5718 -0.6445  0.4471
18691SOL    HW257515   3.961   7.287   6.400  1.1207  1.7775  0.0042
18692SOL     OW57516   5.701   1.585   6.824  0.0231  0.3714 -0.3234
18692SOL    HW157517   5.624   1.567   6.771  1.1696 -1.3768 -1.4994
18692SOL    HW257518   5.679   1.551   6.911 -0.4050 -0.3941 -0.7281
18693SOL     OW57519   6.855   0.726   4.337  0.1136 -0.0827  0.1363
18693SOL    HW157520   6.860   0.793   4.405  1.4467  0.6177 -0.6060
18693SOL    HW257521   6.778   0.750   4.285 -1.4887 -1.1676  1.8918
18694SOL     OW57522   0.430   7.255   2.248  0.1615  0.0945  0.5870
18694SOL    HW157523   0.491   7.311   2.200  0.7128 -1.4144 -0.5595
18694SOL    HW257524   0.486   7.190   2.291 -0.4534  0.4674  2.0242
18695SOL     OW57525   4.825   5.999   7.856  0.2360 -0.1285 -0.6523
18695SOL    HW157526   4.818   6.077   7.912  1.3805 -0.3507 -0.1733
18695SOL    HW257527   4.893   6.022   7.792 -0.6562 -0.0955 -1.6154
18696SOL     OW57528   2.178   2.418   9.302  0.0929  0.5952  0.1034
18696SOL    HW157529   2.269   2.417   9.332 -0.2808  0.6192  1.2884
18696SOL    HW257530   2.160   2.327   9.277  0.5145  0.6423 -0.3826
18697SOL     OW57531   6.537   1.576   0.238 -0.4524 -0.8801  0.6005
18697SOL    HW157532   6.514   1.648   0.297 -0.3258  1.0781 -1.5523
18697SOL    HW257533   6.598   1.522   0.288  1.5683  1.9884  1.5274
18698SOL     OW57534   1.826   7.597  10.477 -0.0381  0.4535  0.3411
18698SOL    HW157535   1.832   7.505  10.454  0.5219  0.4102  0.6281
18698SOL    HW257536   1.739   7.608  10.515 -0.5181  0.2776 -0.6742
18699SOL     OW57537   2.633   1.027   7.371 -0.3330  0.2190 -0.3591
18699SOL    HW157538   2.593   1.088   7.310 -2.5408 -0.9438 -0.1487
18699SOL    HW257539   2.682   1.083   7.432 -0.2206  1.5656 -1.6352
18700SOL     OW57540   7.589   5.589   9.826 -0.0985  0.1001  0.1839
18700SOL    HW157541   7.613   5.513   9.773 -0.0149  0.8270 -0.8593
18700SOL    HW257542   7.636   5.578   9.908 -0.5477 -1.2700  0.2840
18701SOL     OW57543   5.411   6.244   9.771  0.5747  0.2415 -0.6105
18701SOL    HW157544   5.344   6.302   9.808  1.3007  0.6867  0.0260
18701SOL    HW257545   5.494   6.279   9.803  1.0569 -0.9091 -0.5466
18702SOL     OW57546   4.600   0.137   8.754 -0.1427  0.7555 -0.2263
18702SOL    HW157547   4.505   0.141   8.771  0.0774  2.4960  0.7552
18702SOL    HW257548   4.616   0.205   8.690  0.3292 -0.2577 -1.2244
18703SOL     OW57549   4.041   7.078  10.190  0.2799 -0.0938 -0.0088
18703SOL    HW157550   4.114   7.018  10.204  1.3281  0.9207 -0.8760
18703SOL    HW257551   4.071   7.161  10.228 -0.2393  0.4435 -0.7426
18704SOL     OW57552   7.690   0.971  11.768 -0.2656 -0.8986  0.4102
18704SOL    HW157553   7.766   1.028  11.776 -0.9188  0.2380 -1.1429
18704SOL    HW257554   7.623   1.014  11.821 -0.3056 -1.0619  0.4935
18705SOL     OW57555   5.250   2.661   2.343  0.7059  0.7806 -0.7977
18705SOL    HW157556   5.216   2.614   2.267  1.6825  1.7556 -1.8599
18705SOL    HW257557   5.177   2.660   2.405  0.1704 -0.7429 -1.3952
18706SOL     OW57558   2.550   3.878   9.128  0.4658  0.4170  0.3050
18706SOL    HW157559   2.581   3.821   9.198  0.9161  0.6815  0.3279
18706SOL    HW257560   2.507   3.951   9.173 -0.4963 -0.1168  0.2631
18707SOL     OW57561   4.395   5.545   2.087  0.0176 -0.2167 -0.3064
18707SOL    HW157562   4.490   5.551   2.091  0.0696 -1.3387  0.2967
18707SOL    HW257563   4.373   5.467   2.137 -1.3184  0.6719  0.5608
18708SOL     OW57564   6.286   4.619   2.088  0.0661 -0.0703  0.1781
18708SOL    HW157565   6.377   4.596   2.107  0.0428  0.5807  1.1458
18708SOL    HW257566   6.270   4.698   2.139 -0.8271  0.2482 -0.5602
18709SOL     OW57567   3.381   0.097   6.410 -0.0863 -0.6848  0.1655
18709SOL    HW157568   3.397   0.102   6.315 -0.8704  0.2186  0.0640
18709SOL    HW257569   3.301   0.045   6.418 -1.3153  1.0827  0.1433
18710SOL     OW57570   2.842   4.336   0.798  0.3419  0.3696 -0.2509
18710SOL    HW157571   2.886   4.408   0.753 -1.3833  0.9597 -1.0780
18710SOL    HW257572   2.911   4.271   0.813  1.5599  1.4210 -1.0894
18711SOL     OW57573   3.303   5.721   0.415 -0.7607 -0.2799 -0.0779
18711SOL    HW157574   3.394   5.695   0.403 -0.9652 -0.5008 -1.2299
18711SOL    HW257575   3.276   5.677   0.496  0.1488 -0.1887  0.2906
18712SOL     OW57576   4.589   3.881   2.643 -0.4411 -0.6500 -0.5076
18712SOL    HW157577   4.615   3.841   2.725 -1.4493 -0.3804 -0.0439
18712SOL    HW257578   4.672   3.898   2.598  0.1367 -0.6404  0.5216
18713SOL     OW57579   0.445   3.417  11.756 -0.0996 -0.7486  0.0419
18713SOL    HW157580   0.437   3.327  11.785 -2.7886 -0.2070  1.3075
18713SOL    HW257581   0.507   3.457  11.816 -2.5356 -0.6673  2.7351
18714SOL     OW57582   5.365   7.880   8.687 -0.0619 -0.2556 -0.2899
18714SOL    HW157583   5.357   7.835   8.771  0.5652  0.2544  0.0518
18714SOL    HW257584   5.459   7.889   8.673 -0.1510 -0.5808 -1.1859
18715SOL     OW57585   3.999   5.286   6.778 -0.5449 -0.1764 -0.6843
18715SOL    HW157586   3.951   5.246   6.850  0.4604 -0.6014 -0.2385
18715SOL    HW257587   4.034   5.212   6.728 -0.0743  0.1216 -0.8068
18716SOL     OW57588   0.754   0.471   3.649 -0.5270  0.1636  0.0633
18716SOL    HW157589   0.675   0.486   3.702 -0.8621 -0.7602 -0.1555
18716SOL    HW257590   0.823   0.517   3.696 -1.2616  1.2897  0.0685
18717SOL     OW57591   5.106   5.891   0.281  0.1346  0.3300 -0.6948
18717SOL    HW157592   5.051   5.847   0.217  2.2271 -0.3979 -2.0824
18717SOL    HW257593   5.082   5.852   0.365  0.4570 -1.9963 -1.6225
18718SOL     OW57594   1.763   5.160   3.523 -0.5237 -0.6403  0.5046
18718SOL    HW157595   1.759   5.252   3.549  0.3645 -0.5421  0.3243
18718SOL    HW257596   1.776   5.112   3.605  1.0017 -0.4317  0.4177
18719SOL     OW57597   4.994   5.015   9.909 -0.3878  0.2271 -0.1166
18719SOL    HW157598   4.913   5.032   9.957 -0.0378 -0.7703  0.8858
18719SOL    HW257599   4.968   5.013   9.817 -1.5046 -0.0707  0.1884
18720SOL     OW57600   4.827   7.676   6.711  0.5159  0.0276 -0.9862
18720SOL    HW157601   4.775   7.610   6.755 -1.3988  1.5535 -0.8190
18720SOL    HW257602   4.890   7.706   6.777  0.9638 -1.1252 -0.8731
18721SOL     OW57603   3.763   7.679   4.305 -0.4991 -0.3467  0.5555
18721SOL    HW157604   3.797   7.600   4.261 -0.7841  0.2186 -0.7357
18721SOL    HW257605   3.834   7.707   4.362  0.1372 -0.7659 -0.0102
18722SOL     OW57606   1.960   5.108   7.436  0.1511 -0.5743  0.0561
18722SOL    HW157607   1.935   5.068   7.519 -0.7983 -0.9292 -0.3796
18722SOL    HW257608   1.918   5.053   7.370 -2.2834  1.8117 -0.5623
18723SOL     OW57609   1.995   5.117   0.692  0.1588 -0.0500 -0.3910
18723SOL    HW157610   2.067   5.122   0.629 -0.4994  0.9299 -1.1106
18723SOL    HW257611   2.031   5.070   0.767  1.7699  1.0194 -0.4385
18724SOL     OW57612   2.300   2.050   5.242  0.3634  0.8149  0.1176
18724SOL    HW157613   2.221   2.047   5.187  0.7083  0.6634 -0.3831
18724SOL    HW257614   2.340   2.134   5.222 -0.3262  1.4510  1.3243
18725SOL     OW57615   5.470   4.772  11.757  0.2691  0.0551  0.1578
18725SOL    HW157616   5.438   4.861  11.761 -1.7333 -0.5850 -0.5663
18725SOL    HW257617   5.484   4.746  11.848  0.9560  1.0937  0.3665
18726SOL     OW57618   0.060   4.499   5.258 -0.7215  0.0241 -0.3247
18726SOL    HW157619   0.058   4.584   5.301  0.7153  0.5832 -1.3222
18726SOL    HW257620   0.016   4.513   5.174 -0.9223 -0.3545 -0.2864
18727SOL     OW57621   1.613   6.480   1.396 -0.0019 -0.0475 -0.0476
18727SOL    HW157622   1.632   6.534   1.320 -1.3569  1.4873  0.6517
18727SOL    HW257623   1.563   6.406   1.361  2.4983 -1.3631 -1.1195
18728SOL     OW57624   7.722   2.597   0.431  0.4287 -0.1586 -0.0391
18728SOL    HW157625   7.743   2.516   0.477 -0.7164 -0.0957  0.6178
18728SOL    HW257626   7.637   2.623   0.465  0.0403  0.4731 -1.4162
18729SOL     OW57627   1.286   7.973   8.655  0.7528  0.3306 -0.1894
18729SOL    HW157628   1.198   8.012   8.657  0.3807 -0.0620 -3.2569
18729SOL    HW257629   1.288   7.926   8.572  4.0504  0.7519 -0.4512
18730SOL     OW57630   0.547   0.063   9.466  0.2734  0.2211 -0.2710
18730SOL    HW157631   0.534  -0.031   9.469 -1.0112  0.3407 -1.4289
18730SOL    HW257632   0.459   0.100   9.460  0.7805  1.4746 -0.3838
18731SOL     OW57633   1.136   4.539   3.030 -0.1162  0.2072 -0.4805
18731SOL    HW157634   1.101   4.454   3.003 -1.4466  0.3650  0.6935
18731SOL    HW257635   1.214   4.550   2.975 -0.7507 -1.0775 -1.7230
18732SOL     OW57636   4.050   0.754   0.929  0.1108  0.3943 -0.1126
18732SOL    HW157637   3.984   0.725   0.991  2.4728 -0.7269  2.0575
18732SOL    HW257638   4.077   0.840   0.961 -0.7539  1.1844 -1.4249
18733SOL     OW57639   1.068   5.636   8.521  0.3283 -0.3240 -0.8483
18733SOL    HW157640   1.072   5.724   8.485 -0.1616  0.1572  0.2457
18733SOL    HW257641   1.000   5.640   8.588  1.3031 -1.1611  0.2321
18734SOL     OW57642   5.823   7.361   9.380  0.1422 -0.4172 -0.5532
18734SOL    HW157643   5.782   7.363   9.466 -1.8708  1.3967 -1.4706
18734SOL    HW257644   5.818   7.269   9.353 -2.1167 -0.4992 -0.0303
18735SOL     OW57645   1.009   4.465   3.304 -0.2605  0.8771 -0.3855
18735SOL    HW157646   0.953   4.483   3.229  0.1908  0.4362 -0.8345
18735SOL    HW257647   0.982   4.530   3.370 -0.6268  1.3006 -0.9397
18736SOL     OW57648   7.682   5.772   3.377 -0.0409  0.1894 -0.3587
18736SOL    HW157649   7.754   5.715   3.350 -0.6071 -1.3631  1.1991
18736SOL    HW257650   7.663   5.826   3.301  1.8872 -0.2875 -1.2230
18737SOL     OW57651   7.731   5.408   3.452 -0.1481 -0.0643 -0.0068
18737SOL    HW157652   7.762   5.490   3.413 -0.9711  1.0637  1.5500
18737SOL    HW257653   7.736   5.424   3.546 -0.5203 -1.7570  0.3231
18738SOL     OW57654   5.166   4.774   9.290  0.1760  0.5022 -0.2783
18738SOL    HW157655   5.151   4.867   9.272 -0.2413  0.5533  0.3205
18738SOL    HW257656   5.079   4.737   9.298  0.3446  0.2743  0.5768
18739SOL     OW57657   0.253   0.421   1.299 -0.1688  0.4250 -0.3838
18739SOL    HW157658   0.309   0.380   1.233 -0.8664 -0.1229 -0.6546
18739SOL    HW257659   0.190   0.472   1.247 -0.4096  0.3986 -0.1179
18740SOL     OW57660   4.953   6.287   6.546  0.0728  0.5721 -0.0905
18740SOL    HW157661   4.899   6.362   6.569 -1.3233 -0.3387 -0.2945
18740SOL    HW257662   5.040   6.324   6.529 -0.2499  1.9541  1.1063
18741SOL     OW57663   7.371   3.176   4.686 -0.5030 -0.1962 -0.4767
18741SOL    HW157664   7.331   3.191   4.772 -1.6352 -0.1984 -0.9762
18741SOL    HW257665   7.441   3.113   4.702  0.9002  1.5731  0.8326
18742SOL     OW57666   3.795   3.438  11.401 -0.0686  0.3565  0.5108
18742SOL    HW157667   3.889   3.458  11.396  0.7555 -3.0847 -1.9231
18742SOL    HW257668   3.788   3.375  11.472 -0.5666  0.7024  0.7665
18743SOL     OW57669   5.127   0.831   6.812 -0.1111  0.0296  0.3688
18743SOL    HW157670   5.103   0.746   6.849 -0.4210 -0.8899 -1.7585
18743SOL    HW257671   5.052   0.854   6.756  0.1181  1.5506  0.6539
18744SOL     OW57672   3.135   4.315   4.027  0.2880 -0.1841  0.3583
18744SOL    HW157673   3.184   4.281   4.102 -0.6809 -0.9861  0.6605
18744SOL    HW257674   3.101   4.237   3.983 -0.6186  0.3345  0.1052
18745SOL     OW57675   3.533   3.578  10.106 -0.1249  0.7922 -0.1470
18745SOL    HW157676   3.622   3.546  10.116 -0.6868 -0.6389  0.4514
18745SOL    HW257677   3.513   3.565  10.014  0.0587  0.5259 -0.1495
18746SOL     OW57678   5.372   2.590   7.210  0.4397  0.1474  0.2827
18746SOL    HW157679   5.390   2.684   7.213 -0.6478  0.3501  0.9849
18746SOL    HW257680   5.317   2.574   7.287 -1.3557 -0.6402 -1.0979
18747SOL     OW57681   2.004   7.786   8.491  0.5004  0.1951 -0.7600
18747SOL    HW157682   2.023   7.805   8.399 -0.4354  1.9831 -0.6340
18747SOL    HW257683   1.909   7.797   8.498  0.6151  0.4809  0.5018
18748SOL     OW57684   0.526   2.940   6.891 -0.5365  1.0598  0.0982
18748SOL    HW157685   0.480   2.920   6.973 -1.3721  0.3428 -0.5283
18748SOL    HW257686   0.618   2.946   6.916 -0.4392 -1.7174  0.6696
18749SOL     OW57687   7.667   1.357   0.223 -0.0553  0.0195 -0.0865
18749SOL    HW157688   7.615   1.284   0.256  1.0316 -0.5898  0.3261
18749SOL    HW257689   7.734   1.316   0.168  0.3301  0.7316 -0.1604
18750SOL     OW57690   4.277   4.024   7.809  0.0881 -0.8219  0.2066
18750SOL    HW157691   4.266   4.105   7.860  2.5087 -1.1626  1.3979
18750SOL    HW257692   4.364   4.032   7.769 -0.5061 -1.9299 -1.4215
18751SOL     OW57693   5.344   4.693   8.941  0.1048 -0.0544  0.2217
18751SOL    HW157694   5.321   4.786   8.935 -1.4606 -0.2950  1.7384
18751SOL    HW257695   5.307   4.654   8.862  0.8658  0.6037 -0.4813
18752SOL     OW57696   3.534   2.183   4.237 -0.6626  0.5244  0.1664
18752SOL    HW157697   3.477   2.198   4.312 -2.8361 -0.8297 -1.1020
18752SOL    HW257698   3.509   2.250   4.173 -0.6353  0.1218 -0.2758
18753SOL     OW57699   5.050   3.278   6.699  0.0512  0.5351 -0.4936
18753SOL    HW157700   5.137   3.314   6.684 -0.5431  2.0587 -0.5196
18753SOL    HW257701   5.058   3.185   6.681  1.5681  0.7264 -0.8991
18754SOL     OW57702   0.372   4.158   0.400  0.5059 -0.0110  0.0507
18754SOL    HW157703   0.373   4.100   0.476 -1.7820  0.6032  0.6345
18754SOL    HW257704   0.324   4.109   0.333  0.6784  0.2755 -0.2904
18755SOL     OW57705   7.704   4.085   1.052 -1.0110 -0.0994  0.1996
18755SOL    HW157706   7.720   4.150   0.984 -2.1832  0.3084  0.3001
18755SOL    HW257707   7.676   4.136   1.128 -0.5645 -0.6178  0.7240
18756SOL     OW57708   1.371   4.910   6.804 -0.4560  0.3572  0.0172
18756SOL    HW157709   1.340   4.988   6.757  0.4527  1.8388  1.7595
18756SOL    HW257710   1.354   4.928   6.896  0.9378 -0.9572  0.5888
18757SOL     OW57711   0.920   3.771   1.597 -0.2720  0.1827 -0.1207
18757SOL    HW157712   0.848   3.758   1.536 -0.3958 -0.5720  0.1759
18757SOL    HW257713   0.889   3.734   1.679  0.9461 -1.4439 -0.3286
18758SOL     OW57714   6.764   7.676  11.739  0.1293  0.3041 -0.3497
18758SOL    HW157715   6.791   7.683  11.831 -0.5224  0.1311 -0.1444
18758SOL    HW257716   6.677   7.714  11.736 -0.7316 -1.5797 -0.4875
18759SOL     OW57717   5.717   3.665   3.076 -0.1078  0.9903 -0.1904
18759SOL    HW157718   5.775   3.612   3.130 -0.8739  0.9340  0.5932
18759SOL    HW257719   5.666   3.602   3.026 -1.1833  0.9550  0.9134
18760SOL     OW57720   3.485   1.654   1.107 -0.9208 -0.2034 -0.1416
18760SOL    HW157721   3.510   1.716   1.038  2.6702 -0.7456  0.4731
18760SOL    HW257722   3.443   1.582   1.061  0.0144  0.1529 -1.6270
18761SOL     OW57723   7.136   0.709  10.926  0.2156  0.3631 -0.2603
18761SOL    HW157724   7.045   0.710  10.954 -0.0014 -0.4678 -0.9182
18761SOL    HW257725   7.137   0.660  10.844  1.2649  0.2655 -0.2152
18762SOL     OW57726   6.280   2.485   4.788  0.1071  0.3840  0.2889
18762SOL    HW157727   6.224   2.524   4.721  2.0248  3.8644  0.4726
18762SOL    HW257728   6.366   2.477   4.746  0.4881 -0.8959  1.2410
18763SOL     OW57729   2.386   2.288   2.088 -0.0425 -0.1366 -0.1522
18763SOL    HW157730   2.299   2.298   2.126 -0.7127 -0.1726 -1.6318
18763SOL    HW257731   2.374   2.228   2.015  1.4789 -1.1767  0.4082
18764SOL     OW57732   6.050   5.614   9.082 -0.1387  0.3116  0.0102
18764SOL    HW157733   6.052   5.701   9.122 -2.4923  0.4957 -0.1524
18764SOL    HW257734   6.050   5.631   8.988  1.9895 -0.0188 -0.1119
18765SOL     OW57735   1.782   7.114   4.439  0.8328 -0.0463  0.0126
18765SOL    HW157736   1.803   7.172   4.512 -0.6086  0.5859 -0.0262
18765SOL    HW257737   1.843   7.140   4.369 -0.0064  1.7089 -0.1225
18766SOL     OW57738   2.500   1.604   7.059 -0.6618 -0.1232 -0.1489
18766SOL    HW157739   2.497   1.521   7.107 -0.9511  0.2253  0.4455
18766SOL    HW257740   2.583   1.600   7.010  0.6893  0.3651  1.9555
18767SOL     OW57741   1.751   0.466   9.220  0.6211  0.0350 -0.4610
18767SOL    HW157742   1.805   0.446   9.296  1.3134  2.5274 -0.2346
18767SOL    HW257743   1.728   0.558   9.229 -2.1429 -0.4269 -1.5516
18768SOL     OW57744   2.941   5.600   6.758 -0.2599 -0.2524  0.3435
18768SOL    HW157745   3.026   5.567   6.726 -0.8205 -2.0533  0.5604
18768SOL    HW257746   2.886   5.522   6.761 -1.8682  0.8528  0.4321
18769SOL     OW57747   7.680   6.578   5.627 -0.6672 -0.7216 -0.0160
18769SOL    HW157748   7.602   6.581   5.682 -0.3697 -0.7082  0.4084
18769SOL    HW257749   7.675   6.657   5.573 -0.2238  0.0252  1.0131
18770SOL     OW57750   5.178   4.025   3.083 -0.2498  0.6086  0.3833
18770SOL    HW157751   5.083   4.028   3.071 -0.0854  0.9136 -0.9990
18770SOL    HW257752   5.202   3.936   3.057 -0.1615  0.4927  0.8492
18771SOL     OW57753   3.465   5.275   7.406  0.1738 -0.2357  0.1005
18771SOL    HW157754   3.521   5.349   7.380 -1.2709  0.5461 -0.9329
18771SOL    HW257755   3.434   5.238   7.324 -2.1017  0.3816  0.5952
18772SOL     OW57756   1.982   2.868   3.166 -0.2741  0.5661  0.2768
18772SOL    HW157757   1.930   2.804   3.213 -0.0124  0.7798  0.8632
18772SOL    HW257758   1.920   2.910   3.107 -0.6265  0.3712  0.5029
18773SOL     OW57759   5.075   7.953   8.227 -0.0806 -0.0416 -0.6621
18773SOL    HW157760   5.071   7.861   8.251 -0.0042 -0.1727 -1.1347
18773SOL    HW257761   5.027   7.958   8.144  0.2303  0.2803 -0.8226
18774SOL     OW57762   7.546   3.087   8.884 -0.0315  0.1354 -0.1024
18774SOL    HW157763   7.451   3.098   8.888  0.0851  0.8229  2.6513
18774SOL    HW257764   7.558   2.992   8.884 -0.7284  0.0178  1.3698
18775SOL     OW57765   2.444   6.551  11.308 -0.4154  0.6801 -0.1484
18775SOL    HW157766   2.433   6.537  11.402 -0.1488  0.9064 -0.0846
18775SOL    HW257767   2.467   6.643  11.300 -1.3761  0.8974 -0.5129
18776SOL     OW57768   1.949   2.527   9.193 -0.4855  0.1600 -0.7879
18776SOL    HW157769   2.021   2.484   9.240 -0.3021  0.4156 -0.8372
18776SOL    HW257770   1.912   2.588   9.256 -0.5875  0.1086 -0.7986
18777SOL     OW57771   0.165   5.174   8.055  0.4782 -0.0801 -0.1307
18777SOL    HW157772   0.125   5.119   7.987 -0.4049  0.7528 -0.3120
18777SOL    HW257773   0.250   5.134   8.072  0.4034 -0.7244 -1.2026
18778SOL     OW57774   4.386   0.050  11.359  0.0690 -0.2774  0.3673
18778SOL    HW157775   4.420   0.015  11.441  0.4577  2.6665  1.6035
18778SOL    HW257776   4.379   0.145  11.375 -0.7272  0.2825 -2.7012
18779SOL     OW57777   2.866   4.347   2.284 -0.0520 -0.1527 -0.3645
18779SOL    HW157778   2.917   4.418   2.321 -1.9563  1.3965 -0.5453
18779SOL    HW257779   2.904   4.267   2.320  0.8513  1.0656  1.4677
18780SOL     OW57780   6.270   5.140   3.054  0.4043  0.0569  0.3264
18780SOL    HW157781   6.218   5.085   3.113 -1.4097  1.2591 -0.0576
18780SOL    HW257782   6.360   5.134   3.087 -0.1862 -1.0909  1.8085
18781SOL     OW57783   4.647   4.810   0.447 -0.2561  0.5291  0.5055
18781SOL    HW157784   4.568   4.756   0.439 -0.3352  0.7551 -0.2687
18781SOL    HW257785   4.631   4.886   0.391  0.9156  0.0955 -0.4601
18782SOL     OW57786   3.785   6.314   7.224  0.1045 -0.0626 -0.3912
18782SOL    HW157787   3.786   6.337   7.317 -1.4948  0.3716 -0.4517
18782SOL    HW257788   3.712   6.253   7.215  0.1659 -0.0066 -1.3760
18783SOL     OW57789   5.922   4.404   0.022 -0.1730 -0.5755  0.1174
18783SOL    HW157790   5.975   4.466  -0.028  0.6100 -1.0096  0.3956
18783SOL    HW257791   5.832   4.431   0.005  0.1514  0.6788  0.2693
18784SOL     OW57792   2.134   1.182  10.975 -0.7517  0.0817 -0.1554
18784SOL    HW157793   2.109   1.165  10.884 -1.1832 -1.4637  0.2184
18784SOL    HW257794   2.163   1.097  11.008 -2.5770  0.1100  1.7428
18785SOL     OW57795   5.580   4.804   1.001  0.0745  0.1710  0.2049
18785SOL    HW157796   5.574   4.710   0.983  0.9863  0.0465  0.5404
18785SOL    HW257797   5.504   4.823   1.056 -1.0676 -0.0282 -1.2228
18786SOL     OW57798   7.701   0.587   2.870  0.1350 -0.5790 -0.1838
18786SOL    HW157799   7.773   0.645   2.895 -0.1783  0.4279 -1.4733
18786SOL    HW257800   7.727   0.551   2.785 -1.1296  0.3708 -1.0344
18787SOL     OW57801   6.408   6.303   5.810  0.5758 -0.4443 -0.2553
18787SOL    HW157802   6.439   6.265   5.728  0.3671  0.7304 -0.8964
18787SOL    HW257803   6.342   6.367   5.784  0.7855  0.2286  0.8079
18788SOL     OW57804   5.035   7.330   4.436  0.0968  0.1179 -0.1824
18788SOL    HW157805   5.128   7.336   4.416  0.1545 -1.0004 -0.3003
18788SOL    HW257806   4.994   7.304   4.354 -0.4693  1.5769 -0.3954
18789SOL     OW57807   3.404   2.212   8.969 -0.4936  0.0066  0.4478
18789SOL    HW157808   3.486   2.181   9.006 -1.0010  1.4855  3.0339
18789SOL    HW257809   3.421   2.303   8.945 -0.5997 -0.5066 -1.7661
18790SOL     OW57810   3.133   4.426   9.746 -0.5567  0.0450  0.2735
18790SOL    HW157811   3.130   4.343   9.699  1.7337 -0.3128  0.6872
18790SOL    HW257812   3.121   4.492   9.677 -1.1015 -0.5610 -0.2309
18791SOL     OW57813   7.149   2.172   5.796 -0.3512  0.4025 -0.0065
18791SOL    HW157814   7.221   2.215   5.750 -1.4596  4.1540  1.3321
18791SOL    HW257815   7.074   2.182   5.736 -0.8415  1.3210  0.7388
18792SOL     OW57816   4.519   7.323   1.545  0.6884 -0.6311  0.0806
18792SOL    HW157817   4.583   7.293   1.609  1.6998  0.3883 -0.4229
18792SOL    HW257818   4.494   7.245   1.496 -0.4792 -1.5407  1.9915
18793SOL     OW57819   1.401   4.723  11.822  0.0523  0.0140 -0.8411
18793SOL    HW157820   1.434   4.638  11.849  1.1769  0.2686 -1.3198
18793SOL    HW257821   1.319   4.705  11.777 -0.7417 -0.6116  0.7942
18794SOL     OW57822   7.623   1.645   8.041 -0.0517  0.1012  0.4738
18794SOL    HW157823   7.617   1.673   7.950  0.3646 -2.2838 -0.3770
18794SOL    HW257824   7.642   1.725   8.090 -1.3095  1.6208 -1.3760
18795SOL     OW57825   5.155   0.201   7.166  1.1089  0.0034  0.4365
18795SOL    HW157826   5.076   0.255   7.164  0.8021 -0.4005 -2.2441
18795SOL    HW257827   5.227   0.263   7.166  0.7625  0.5005 -2.1389
18796SOL     OW57828   1.106   0.889   3.859  0.2693  0.1481  0.1611
18796SOL    HW157829   1.157   0.891   3.941 -1.5476 -2.1270  1.4727
18796SOL    HW257830   1.058   0.806   3.863 -2.9503  1.7680 -1.3362
18797SOL     OW57831   4.509   7.127   6.100 -0.3204  0.7631  0.3404
18797SOL    HW157832   4.525   7.111   6.193  1.0924 -0.2696 -0.0363
18797SOL    HW257833   4.587   7.093   6.057 -1.2243  0.6535 -1.2808
18798SOL     OW57834   7.551   3.698   2.702  0.0571  0.1413 -0.6449
18798SOL    HW157835   7.643   3.697   2.730 -0.2030  2.8018  0.6768
18798SOL    HW257836   7.553   3.728   2.612  0.4906  0.3968 -0.5533
18799SOL     OW57837   1.112   0.947   4.983  0.3924 -0.0222  0.1703
18799SOL    HW157838   1.133   0.968   4.892  0.2384  1.1137  0.3721
18799SOL    HW257839   1.021   0.976   4.994 -0.1974 -1.7850  0.2141
18800SOL     OW57840   5.258   5.263   3.039 -0.1697  0.0013 -0.0276
18800SOL    HW157841   5.273   5.229   3.128  1.5594  2.0142  0.5336
18800SOL    HW257842   5.341   5.302   3.015 -1.4651  2.0853 -1.3745
18801SOL     OW57843   0.040   7.731   5.511  0.0050 -0.5155 -0.3476
18801SOL    HW157844   0.112   7.677   5.476  3.5405  3.8653 -0.7114
18801SOL    HW257845   0.006   7.777   5.434 -0.9347 -0.0921  0.3103
18802SOL     OW57846   1.316   5.108   8.722  0.3556  0.5155 -0.1521
18802SOL    HW157847   1.246   5.069   8.669 -0.6803 -1.1854  2.2628
18802SOL    HW257848   1.389   5.121   8.660 -0.7464 -1.3167 -1.9638
18803SOL     OW57849   6.455   4.816   9.398 -0.4214 -0.3373  0.2103
18803SOL    HW157850   6.413   4.784   9.318  0.3658  0.0760 -0.3869
18803SOL    HW257851   6.549   4.802   9.383 -0.2215  0.2838  0.8192
18804SOL     OW57852   2.855   6.893   0.448 -0.4963 -0.1861 -0.2163
18804SOL    HW157853   2.950   6.894   0.464 -0.2446  0.9851 -1.6454
18804SOL    HW257854   2.839   6.809   0.405 -0.0584 -0.2652 -0.2329
18805SOL     OW57855   7.004   1.239   2.517 -0.0911  0.1594  0.5640
18805SOL    HW157856   6.998   1.181   2.593 -2.2572 -0.4104  0.0284
18805SOL    HW257857   7.095   1.267   2.516  0.4911 -1.4478  2.1619
18806SOL     OW57858   5.527   5.411   9.753  0.2196  0.1307 -0.2081
18806SOL    HW157859   5.577   5.346   9.804 -1.3043  0.5546  1.9933
18806SOL    HW257860   5.496   5.363   9.677  2.4965 -0.5893 -0.7770
18807SOL     OW57861   0.225   5.195   0.823  0.0800 -0.3663 -0.3596
18807SOL    HW157862   0.219   5.290   0.814  1.1530 -0.2121  0.4006
18807SOL    HW257863   0.249   5.164   0.736  0.7556  0.1643 -0.3671
18808SOL     OW57864   6.157   3.179   1.722  0.1153 -0.1334 -0.7923
18808SOL    HW157865   6.194   3.241   1.659  0.9495  0.2679  0.0651
18808SOL    HW257866   6.209   3.192   1.801 -0.8951 -0.6460 -0.0253
18809SOL     OW57867   7.206   0.975   5.448 -0.0845  0.0314  0.3716
18809SOL    HW157868   7.207   0.899   5.506  0.1952 -2.0718 -2.2225
18809SOL    HW257869   7.296   0.981   5.416 -0.3834  0.7302 -0.3455
18810SOL     OW57870   4.761   3.933   8.995  0.2441  0.1479 -0.3410
18810SOL    HW157871   4.800   3.892   8.917  1.2991  2.8537 -1.3540
18810SOL    HW257872   4.831   3.934   9.059 -0.0323 -0.3309 -0.0256
18811SOL     OW57873   3.541   4.034   2.595 -0.4039  0.1865 -0.1686
18811SOL    HW157874   3.573   4.082   2.672  1.2283  0.9998 -1.2920
18811SOL    HW257875   3.465   3.985   2.627  0.8999 -0.4257  2.2275
18812SOL     OW57876   4.913   0.416   4.035  0.2885  0.0452 -0.1641
18812SOL    HW157877   4.849   0.481   4.008  0.9751  0.1861 -1.5305
18812SOL    HW257878   4.909   0.348   3.968 -1.1374 -1.8995  1.7401
18813SOL     OW57879   5.911   5.381   4.374 -0.0319 -0.1548  0.2616
18813SOL    HW157880   5.919   5.465   4.420  0.4242  0.8499 -1.5814
18813SOL    HW257881   6.000   5.363   4.342 -0.2887 -0.9628 -0.0246
18814SOL     OW57882   5.648   7.708  10.622  0.6180 -0.2869  0.1119
18814SOL    HW157883   5.556   7.725  10.646  0.1894  2.3418 -2.7128
18814SOL    HW257884   5.698   7.764  10.682  0.4108 -1.4715  1.4414
18815SOL     OW57885   3.252   7.513   3.592  0.4140  0.1673  0.3678
18815SOL    HW157886   3.335   7.469   3.572 -0.6860 -2.1189  0.4576
18815SOL    HW257887   3.271   7.566   3.669  1.5675 -1.1470  1.0443
18816SOL     OW57888   2.118   0.536   6.516  0.0669  0.0086  0.3391
18816SOL    HW157889   2.104   0.467   6.451  0.0093  0.1388  0.2139
18816SOL    HW257890   2.082   0.615   6.476  0.0724  0.0983  0.5107
18817SOL     OW57891   7.088   1.013   4.459  0.0395  0.2786 -0.0935
18817SOL    HW157892   7.005   1.047   4.425  0.8753  0.8478 -1.6533
18817SOL    HW257893   7.102   1.062   4.540 -1.7743 -0.7703  0.9331
18818SOL     OW57894   4.856   5.054   7.562 -0.1619 -0.1810 -0.3286
18818SOL    HW157895   4.781   5.090   7.514 -1.0448  1.2128  1.9232
18818SOL    HW257896   4.818   4.994   7.626  0.6163  0.3288  0.6583
18819SOL     OW57897   5.773   2.477   1.845  0.0232 -0.5622  0.1484
18819SOL    HW157898   5.752   2.534   1.771 -0.4113 -3.1168 -1.8223
18819SOL    HW257899   5.868   2.480   1.851 -0.0111  0.8792  0.6028
18820SOL     OW57900   1.126   1.176  12.036  0.1224 -0.4806  0.7742
18820SOL    HW157901   1.189   1.241  12.003  0.3067 -0.8822  0.3231
18820SOL    HW257902   1.175   1.094  12.035 -0.4480 -0.8163  0.3132
18821SOL     OW57903   5.998   1.230   2.253  0.1799  0.5003 -0.5101
18821SOL    HW157904   5.997   1.325   2.262 -0.4458  0.4495 -0.0169
18821SOL    HW257905   6.058   1.213   2.180  1.9686  1.1650  0.7471
18822SOL     OW57906   0.281   0.215   1.000  0.1640 -0.4686  0.4633
18822SOL    HW157907   0.359   0.161   1.013 -0.0383 -0.7373  0.5694
18822SOL    HW257908   0.315   0.298   0.966  0.4724 -0.6788  0.2507
18823SOL     OW57909   5.674   4.284   7.465 -0.0197  0.1844 -0.5031
18823SOL    HW157910   5.585   4.286   7.500  0.2171  1.7043  0.0893
18823SOL    HW257911   5.665   4.314   7.374 -0.1684 -0.1422 -0.5977
18824SOL     OW57912   1.621   3.899   6.875 -0.4187 -0.1553  0.1669
18824SOL    HW157913   1.617   3.897   6.971 -0.1551 -0.5414  0.1738
18824SOL    HW257914   1.533   3.873   6.847 -0.0934 -1.5317  0.3164
18825SOL     OW57915   5.620   3.292   0.804  0.1458  0.0660  0.5617
18825SOL    HW157916   5.564   3.354   0.851  0.2181  0.3891  0.2272
18825SOL    HW257917   5.677   3.347   0.751 -0.2902 -0.2968 -0.3103
18826SOL     OW57918   7.815   7.148   8.674 -0.2845 -0.0596 -0.3797
18826SOL    HW157919   7.728   7.185   8.659 -0.1297  0.5252  0.1394
18826SOL    HW257920   7.811   7.061   8.633 -1.0999 -0.0287 -0.3884
18827SOL     OW57921   5.799   2.505   1.416  0.1846  0.2112  0.1348
18827SOL    HW157922   5.852   2.440   1.461  0.4435 -0.0884 -0.5902
18827SOL    HW257923   5.861   2.555   1.363 -0.3177 -0.6296 -1.3097
18828SOL     OW57924   2.580   0.373   8.509 -0.0277 -0.4190  0.3175
18828SOL    HW157925   2.599   0.363   8.602 -0.2119 -1.6408  0.2355
18828SOL    HW257926   2.524   0.299   8.488  0.8385 -0.7412 -0.9848
18829SOL     OW57927   2.977   3.087  10.988  0.4423 -0.2436 -0.2573
18829SOL    HW157928   3.029   3.065  10.910 -0.9652  0.8689 -1.5921
18829SOL    HW257929   3.003   3.176  11.010  0.4957 -0.3863  0.2725
18830SOL     OW57930   6.569   3.944   0.489  0.0484 -0.7675 -0.6382
18830SOL    HW157931   6.533   3.911   0.406  2.2832 -2.1396 -1.1431
18830SOL    HW257932   6.539   4.035   0.493 -1.7384 -1.2215 -1.9547
18831SOL     OW57933   4.232   0.948   4.762 -0.1593  0.0949  0.0318
18831SOL    HW157934   4.168   1.011   4.729  1.7056  1.5933 -0.8770
18831SOL    HW257935   4.188   0.907   4.837 -2.1643  1.0399 -0.5541
18832SOL     OW57936   5.984   5.972  12.202  0.7297 -0.3181 -0.0623
18832SOL    HW157937   5.933   5.926  12.135  0.1944  0.3637 -0.1379
18832SOL    HW257938   5.942   6.058  12.209  0.2519 -0.6597  1.7545
18833SOL     OW57939   0.874   1.745   4.206  0.1113 -0.4262  0.0408
18833SOL    HW157940   0.818   1.715   4.277 -0.5542 -0.5925 -0.5417
18833SOL    HW257941   0.831   1.713   4.126 -0.3160  1.5309 -0.5795
18834SOL     OW57942   4.280   3.010   1.678  0.0519  0.9169 -0.2582
18834SOL    HW157943   4.188   3.034   1.668 -0.5298 -0.2072  1.7898
18834SOL    HW257944   4.302   3.036   1.767  0.9518 -1.1254  0.1622
18835SOL     OW57945   2.852   4.090   7.512 -0.5837 -0.2604 -0.3265
18835SOL    HW157946   2.813   4.068   7.428  0.5206 -2.0440 -0.4128
18835SOL    HW257947   2.920   4.155   7.491 -0.7975 -0.1542 -0.6994
18836SOL     OW57948   5.607   4.719   3.436  0.2794 -0.6886  0.4657
18836SOL    HW157949   5.526   4.740   3.390  1.1226 -0.0458 -0.7784
18836SOL    HW257950   5.579   4.689   3.522 -1.2846 -0.6957 -0.0217
18837SOL     OW57951   0.706   3.618   5.562 -0.2679 -0.9880  0.0476
18837SOL    HW157952   0.676   3.547   5.618 -2.2177 -0.5317 -0.3440
18837SOL    HW257953   0.742   3.683   5.622 -0.3868 -1.4211  0.5893
18838SOL     OW57954   1.001   0.093   5.526  0.3547  0.2489 -0.1540
18838SOL    HW157955   1.049   0.167   5.563  1.6791 -1.1762  1.1621
18838SOL    HW257956   0.985   0.117   5.435 -1.1955  3.0409  0.7345
18839SOL     OW57957   5.862   4.988   0.204  0.0890 -0.2172  0.0463
18839SOL    HW157958   5.930   5.000   0.270  0.4530  0.8161 -0.5090
18839SOL    HW257959   5.801   5.061   0.218 -1.6855 -1.8415  1.4163
18840SOL     OW57960   4.333   6.006   6.240  0.5449 -0.0981  0.5013
18840SOL    HW157961   4.403   5.955   6.199  1.1568  1.5039 -0.5758
18840SOL    HW257962   4.279   6.036   6.167 -1.2435 -1.2011  1.3115
18841SOL     OW57963   4.218   7.916   3.484  0.0953  0.3239  0.5614
18841SOL    HW157964   4.166   7.951   3.556 -2.4956  1.3210 -1.6433
18841SOL    HW257965   4.231   7.991   3.425  0.9110 -0.7618 -0.6921
18842SOL     OW57966   3.980   5.512  10.319 -0.4201  0.2420 -0.2674
18842SOL    HW157967   4.008   5.450  10.253 -1.6864  0.5884 -1.1592
18842SOL    HW257968   4.042   5.585  10.311  2.4752 -1.6576  2.2501
18843SOL     OW57969   6.195   3.144   5.132 -0.4190 -0.3013  0.3142
18843SOL    HW157970   6.225   3.069   5.183 -2.6012 -0.1779  1.9131
18843SOL    HW257971   6.101   3.151   5.152 -0.4849  2.2649 -0.5269
18844SOL     OW57972   5.346   7.501   3.707 -0.5006 -0.4185 -0.3531
18844SOL    HW157973   5.334   7.535   3.618 -1.9553 -1.2542 -0.4950
18844SOL    HW257974   5.371   7.410   3.695  2.0791  0.1539  0.0661
18845SOL     OW57975   3.702   5.682   6.407 -0.5621 -0.0249 -0.0053
18845SOL    HW157976   3.735   5.610   6.354  1.9197  1.0770 -0.1303
18845SOL    HW257977   3.735   5.664   6.495  0.4963  1.1212 -0.1345
18846SOL     OW57978   1.046   0.428   0.728 -0.2815 -0.0169 -0.1170
18846SOL    HW157979   0.987   0.413   0.654 -0.0313  0.5883 -0.4455
18846SOL    HW257980   1.128   0.458   0.687 -0.5813  1.6996  0.4525
18847SOL     OW57981   2.554   0.141   1.046  0.2127  0.5051  0.2154
18847SOL    HW157982   2.577   0.153   0.954  0.6815 -1.1094  0.0894
18847SOL    HW257983   2.484   0.076   1.045  0.1608  0.5386  1.0088
18848SOL     OW57984   7.077   6.972   8.028 -0.7713  0.4321 -0.1832
18848SOL    HW157985   6.999   6.936   7.985 -1.2716  0.9795  0.2423
18848SOL    HW257986   7.044   7.045   8.080 -0.0530  0.3130  0.4582
18849SOL     OW57987   0.993   3.744   6.161  0.1198 -0.2860  0.4067
18849SOL    HW157988   0.944   3.681   6.214 -1.7885  0.8426  0.0739
18849SOL    HW257989   1.038   3.800   6.225  1.0712 -1.3678  0.7138
18850SOL     OW57990   3.213   1.967   2.357 -0.0888 -0.4071 -0.4875
18850SOL    HW157991   3.181   1.919   2.281 -1.3721 -0.1815 -0.1080
18850SOL    HW257992   3.138   2.019   2.387  0.4209 -0.3864  0.8479
18851SOL     OW57993   0.880   7.084  11.330 -0.2462 -0.1569  0.1610
18851SOL    HW157994   0.787   7.103  11.314 -0.5045 -0.5721  1.0817
18851SOL    HW257995   0.888   6.991  11.309  0.0641 -0.0256 -0.3176
18852SOL     OW57996   5.655   2.659   9.150 -0.2294  0.0652  0.4493
18852SOL    HW157997   5.645   2.723   9.079  1.1240  0.8707  0.9457
18852SOL    HW257998   5.696   2.709   9.221  0.5477 -1.2673  0.9705
18853SOL     OW57999   7.901   1.143   4.551  0.4195 -0.2563  0.1466
18853SOL    HW158000   7.946   1.102   4.478 -0.5713  0.3864 -0.8648
18853SOL    HW258001   7.965   1.203   4.589  0.5115  0.4980 -1.1395
18854SOL     OW58002   7.751   2.705   9.654  0.1054 -0.4571 -0.1818
18854SOL    HW158003   7.684   2.699   9.723 -0.1457  1.4830 -0.2078
18854SOL    HW258004   7.830   2.669   9.694 -0.0853  0.4665  1.0822
18855SOL     OW58005   6.173   5.705  12.473  0.3486  0.2486  0.1425
18855SOL    HW158006   6.134   5.706  12.561 -1.9326  0.0474 -0.7877
18855SOL    HW258007   6.161   5.795  12.442  0.1007  0.0457 -0.3612
18856SOL     OW58008   4.308   1.731  12.259 -0.0276 -0.1500 -0.3853
18856SOL    HW158009   4.260   1.811  12.277  0.4738 -0.3072  1.9457
18856SOL    HW258010   4.275   1.668  12.324 -0.0866 -1.7183 -1.8655
18857SOL     OW58011   0.650   2.731   8.458 -0.1092 -0.2598 -0.8375
18857SOL    HW158012   0.676   2.775   8.377  0.1707 -0.1954 -0.7134
18857SOL    HW258013   0.709   2.656   8.465 -0.2389 -0.3575 -0.7752
18858SOL     OW58014   3.400   0.783   1.360 -0.6023  0.9674  0.5156
18858SOL    HW158015   3.417   0.696   1.396 -0.6677  0.9110  0.4107
18858SOL    HW258016   3.305   0.791   1.360 -0.5970  1.0294  0.5019
18859SOL     OW58017   7.737   3.335  12.323 -0.3645  0.1894  0.2280
18859SOL    HW158018   7.791   3.316  12.400 -0.2891 -1.9626 -0.2895
18859SOL    HW258019   7.792   3.310  12.249 -0.0050  3.2818 -0.6792
18860SOL     OW58020   1.798   6.740   1.614  0.3944 -0.0278  0.1137
18860SOL    HW158021   1.857   6.815   1.608  0.1885  0.0527 -1.0971
18860SOL    HW258022   1.715   6.770   1.578  1.0088 -1.4872 -2.8858
18861SOL     OW58023   4.647   4.960   3.196 -0.1138  0.0863  1.3381
18861SOL    HW158024   4.726   4.940   3.146 -1.1263  1.8890 -1.1241
18861SOL    HW258025   4.588   4.887   3.178 -0.8820  1.2285 -1.1569
18862SOL     OW58026   2.310   6.722   9.864  0.1168  0.0494  0.4576
18862SOL    HW158027   2.312   6.762   9.777 -1.6809 -0.5061  0.1166
18862SOL    HW258028   2.396   6.682   9.874  0.1581 -0.3765 -1.3183
18863SOL     OW58029   3.022   2.429   8.450 -0.1448  0.1437 -0.0294
18863SOL    HW158030   3.115   2.451   8.448 -0.3333  1.0260  0.4646
18863SOL    HW258031   3.009   2.386   8.534 -0.3473  0.8392  0.3059
18864SOL     OW58032   7.918   1.819   2.435 -0.1757 -0.5122 -0.6361
18864SOL    HW158033   7.882   1.867   2.361 -0.2096 -0.6531 -0.7118
18864SOL    HW258034   7.863   1.844   2.509 -0.4482 -0.7463 -0.7554
18865SOL     OW58035   1.765   1.256   3.909  0.3320 -0.2025  0.1945
18865SOL    HW158036   1.742   1.218   3.994 -1.2681 -0.6201 -0.3780
18865SOL    HW258037   1.823   1.191   3.869 -0.2075 -0.7875  0.3278
18866SOL     OW58038   1.674   5.960   1.158 -0.6553 -0.2570 -0.1542
18866SOL    HW158039   1.761   5.963   1.120 -1.0380  1.5543 -0.9825
18866SOL    HW258040   1.688   5.934   1.249  0.5165 -2.0341 -0.7953
18867SOL     OW58041   3.470   0.684   9.083  0.2698  0.3991  0.8345
18867SOL    HW158042   3.434   0.624   9.018  1.1055  1.0383 -0.2765
18867SOL    HW258043   3.394   0.722   9.126 -0.2866 -0.6261  0.7871
18868SOL     OW58044   4.625   7.744   0.098  0.3440  0.2848  0.1025
18868SOL    HW158045   4.585   7.659   0.120  2.4746 -0.6953  0.4591
18868SOL    HW258046   4.574   7.775   0.022 -1.3304 -0.6392  0.7861
18869SOL     OW58047   7.425   2.754   2.222 -0.6578  0.1666 -0.4434
18869SOL    HW158048   7.476   2.676   2.201 -1.7251 -0.2316 -1.6376
18869SOL    HW258049   7.393   2.786   2.138  1.1485  2.9482 -0.2346
18870SOL     OW58050   2.976   3.288   1.131  0.2383  0.1877 -0.4910
18870SOL    HW158051   2.959   3.228   1.203 -0.7487  1.0935  0.0606
18870SOL    HW258052   3.068   3.314   1.142 -0.0139  0.6575  0.7288
18871SOL     OW58053   5.916   0.306   1.942 -0.3506 -0.0486 -0.6356
18871SOL    HW158054   5.907   0.334   1.851 -0.0412 -0.3991 -0.7813
18871SOL    HW258055   5.940   0.213   1.935  0.1473  0.0452 -0.2132
18872SOL     OW58056   0.376   0.175   4.499  0.0024  0.3297 -0.0095
18872SOL    HW158057   0.323   0.112   4.451  2.4981 -0.7458 -1.5901
18872SOL    HW258058   0.421   0.225   4.430  1.4415  0.7779  1.2078
18873SOL     OW58059   0.939   6.011   5.221  0.0526  0.3634 -0.0230
18873SOL    HW158060   1.014   6.054   5.179  1.2841 -1.5268  0.1241
18873SOL    HW258061   0.875   6.000   5.151  0.4790  0.7689 -0.4838
18874SOL     OW58062   7.291   1.948   7.138 -0.2489 -0.0611 -0.8044
18874SOL    HW158063   7.254   1.984   7.057  1.0182  1.4428 -0.7550
18874SOL    HW258064   7.366   1.897   7.109 -1.4045 -1.8693 -0.7714
18875SOL     OW58065   7.235   7.528   1.055 -0.3020 -0.2798 -0.7033
18875SOL    HW158066   7.269   7.448   1.095  1.6346  0.7742 -0.0932
18875SOL    HW258067   7.283   7.536   0.972  0.0339  0.5736 -0.4434
18876SOL     OW58068   5.320   5.708   1.598 -0.3685 -0.6406  0.0994
18876SOL    HW158069   5.313   5.725   1.505  1.7004  0.2019  0.0436
18876SOL    HW258070   5.405   5.665   1.608  0.7282  1.7069  1.8434
18877SOL     OW58071   2.302   5.435   7.654 -0.3681 -0.7679 -0.2362
18877SOL    HW158072   2.273   5.371   7.590  0.7912 -1.0330 -0.5179
18877SOL    HW258073   2.391   5.458   7.627 -0.8623  1.2307 -0.3478
18878SOL     OW58074   4.662   7.612   4.449 -0.3062 -0.2458  0.1662
18878SOL    HW158075   4.754   7.625   4.475 -0.4606  2.1867 -0.2493
18878SOL    HW258076   4.613   7.620   4.531 -0.1931 -0.9711  0.3069
18879SOL     OW58077   7.160   0.952  10.134  0.4315 -0.7606 -0.5831
18879SOL    HW158078   7.252   0.981  10.130  0.9320 -2.3590 -1.7442
18879SOL    HW258079   7.140   0.948  10.227  1.4264 -0.0308 -0.3237
18880SOL     OW58080   5.322   3.458   1.129 -0.7708 -0.5665  0.2498
18880SOL    HW158081   5.236   3.493   1.105 -0.3347 -0.6144 -1.5761
18880SOL    HW258082   5.353   3.415   1.049  3.4205  4.3400 -1.3611
18881SOL     OW58083   5.123   3.472   3.025 -0.7237  0.1034  0.4000
18881SOL    HW158084   5.072   3.391   3.023 -0.5045 -0.0520  1.1122
18881SOL    HW258085   5.092   3.521   2.948 -0.0260 -1.1403 -0.7080
18882SOL     OW58086   4.221   7.608  12.416 -0.0484 -0.1819 -0.2594
18882SOL    HW158087   4.236   7.693  12.456 -0.0884 -0.4805  0.3930
18882SOL    HW258088   4.300   7.592  12.364 -0.4219  0.6555 -1.1287
18883SOL     OW58089   7.075   0.867  10.417  0.4903  0.1507 -0.0020
18883SOL    HW158090   7.086   0.956  10.450  2.2215  0.4157 -1.1493
18883SOL    HW258091   7.054   0.815  10.494 -1.2992  1.6436  0.5948
18884SOL     OW58092   0.251   0.637   8.872  0.5834  0.3198  0.2209
18884SOL    HW158093   0.198   0.560   8.889  1.6459 -0.2473  1.1217
18884SOL    HW258094   0.267   0.676   8.958  3.3729 -0.7618  0.3007
18885SOL     OW58095   2.911   5.718   0.285  0.4258  0.1128  0.2010
18885SOL    HW158096   2.918   5.635   0.237 -0.9664  0.2459 -0.2848
18885SOL    HW258097   2.878   5.780   0.220  2.1033  1.2475  0.3682
18886SOL     OW58098   2.942   5.895   3.310  0.1348  0.1551  0.4164
18886SOL    HW158099   2.898   5.827   3.360  0.2714 -0.8158 -0.7443
18886SOL    HW258100   2.875   5.961   3.293  0.2910  0.9409  2.5835
18887SOL     OW58101   6.195   5.931   1.569  0.5486 -0.2123 -0.4817
18887SOL    HW158102   6.220   5.868   1.637  0.0213  1.5532  1.4489
18887SOL    HW258103   6.134   5.883   1.513 -1.1556 -0.9860  1.8789
18888SOL     OW58104   1.666   7.819   8.049  0.1914 -0.2579  0.1053
18888SOL    HW158105   1.578   7.842   8.020  0.3765  0.9434  0.4677
18888SOL    HW258106   1.675   7.726   8.027 -0.4617  0.0769 -1.6651
18889SOL     OW58107   2.667   7.427   1.010  0.7846 -0.1854 -0.3977
18889SOL    HW158108   2.619   7.449   0.930  1.4320 -1.3127 -1.1322
18889SOL    HW258109   2.753   7.466   0.998  0.8045 -0.1534 -0.1481
18890SOL     OW58110   6.804   2.245   6.203  0.2238 -1.0092  0.0766
18890SOL    HW158111   6.722   2.259   6.156  0.4999 -2.5702 -0.9825
18890SOL    HW258112   6.866   2.217   6.135  1.4043 -0.6893  0.9803
18891SOL     OW58113   2.477   5.824  10.458 -0.3588  0.8711  0.1032
18891SOL    HW158114   2.554   5.768  10.468 -0.0892  0.9077 -1.5063
18891SOL    HW258115   2.417   5.795  10.527 -0.3419 -1.5918 -0.8255
18892SOL     OW58116   5.692   7.040   4.771 -0.4989  0.2338  0.0430
18892SOL    HW158117   5.725   7.000   4.690  0.1605 -0.0779  0.4645
18892SOL    HW258118   5.615   6.987   4.793  1.3547 -1.9850  1.5490
18893SOL     OW58119   0.374   3.354  11.444  0.9075 -0.5551 -0.5655
18893SOL    HW158120   0.409   3.343  11.533 -0.4507 -1.9503 -0.1562
18893SOL    HW258121   0.371   3.449  11.432  1.8119 -0.3463  0.5777
18894SOL     OW58122   0.758   1.739  11.255  0.1593 -0.6792 -0.1317
18894SOL    HW158123   0.788   1.796  11.326  1.8265 -0.1692 -1.1771
18894SOL    HW258124   0.831   1.738  11.193 -0.1103 -3.4191 -0.5083
18895SOL     OW58125   3.757   4.368   0.239  0.8719  0.2174 -0.7139
18895SOL    HW158126   3.687   4.310   0.209  1.2319 -0.3617 -0.4411
18895SOL    HW258127   3.738   4.382   0.332  0.5998  0.8114 -0.8523
18896SOL     OW58128   4.311   4.746  10.683  0.1927  0.2487  0.2602
18896SOL    HW158129   4.338   4.800  10.609  0.5920 -1.0902 -0.6026
18896SOL    HW258130   4.238   4.693  10.650  2.2728 -2.5843 -0.2434
18897SOL     OW58131   6.293   1.713  10.939  0.2852  0.4018 -0.3583
18897SOL    HW158132   6.349   1.715  10.862  0.8636 -2.2194 -0.0965
18897SOL    HW258133   6.353   1.726  11.013  0.3106 -0.7386 -0.1682
18898SOL     OW58134   0.759   7.097   6.808  0.0119  0.1631 -0.1142
18898SOL    HW158135   0.786   7.159   6.875 -0.4434 -0.4131  0.6265
18898SOL    HW258136   0.841   7.065   6.770  0.2996  0.0739  0.5679
18899SOL     OW58137   1.723   3.526   9.533 -0.6842 -0.5183 -0.2717
18899SOL    HW158138   1.814   3.497   9.544 -1.3932 -2.1787  1.7160
18899SOL    HW258139   1.716   3.604   9.589 -0.5182 -0.4192 -0.3861
18900SOL     OW58140   4.220   4.016   8.632 -0.7101 -0.6287  0.4352
18900SOL    HW158141   4.254   3.926   8.628 -0.4527 -0.4847 -1.5182
18900SOL    HW258142   4.263   4.061   8.560 -2.4838  0.4679 -0.0013
18901SOL     OW58143   7.034   7.380  10.831  0.1275  0.0218  0.1786
18901SOL    HW158144   7.015   7.457  10.779 -0.5821 -1.2852 -1.6036
18901SOL    HW258145   7.077   7.414  10.910 -0.5480  2.2340 -0.3314
18902SOL     OW58146   4.126   2.403   3.989  0.3062  0.0125  0.0561
18902SOL    HW158147   4.078   2.361   4.060  1.1459 -0.5369  0.3131
18902SOL    HW258148   4.205   2.439   4.030  0.2216  0.7310 -0.3901
18903SOL     OW58149   5.528   0.329   5.495  0.0470 -0.0690  0.7058
18903SOL    HW158150   5.540   0.412   5.448  1.2448 -1.3150 -1.3520
18903SOL    HW258151   5.436   0.308   5.483  0.3242 -0.3463 -1.1408
18904SOL     OW58152   1.678   3.522   5.818  0.0463  0.2289  0.4311
18904SOL    HW158153   1.737   3.546   5.747  0.4471  1.2961  1.0955
18904SOL    HW258154   1.734   3.480   5.883  0.1649  1.4701  1.1732
18905SOL     OW58155   7.776   4.592   3.001  0.3776  0.1503 -0.3379
18905SOL    HW158156   7.852   4.547   3.039  0.1557  0.9191  1.0799
18905SOL    HW258157   7.810   4.634   2.922  0.6263 -2.3543 -1.6637
18906SOL     OW58158   5.734   1.283   2.555 -0.3407 -0.5583  0.1304
18906SOL    HW158159   5.705   1.235   2.633 -1.6468 -0.7949 -0.4747
18906SOL    HW258160   5.757   1.215   2.492 -1.6042 -0.4333 -0.5098
18907SOL     OW58161   6.279   0.951   4.391 -0.0085  0.2317  0.5961
18907SOL    HW158162   6.239   0.865   4.377 -0.6859  0.2761  2.0490
18907SOL    HW258163   6.371   0.938   4.368 -0.5566 -0.2005 -1.6050
18908SOL     OW58164   7.815   2.645   8.989 -0.7918  0.4063  0.2767
18908SOL    HW158165   7.802   2.564   8.939 -0.8972 -0.1812  1.2378
18908SOL    HW258166   7.910   2.652   8.997 -0.8103 -0.5676  1.6697
18909SOL     OW58167   1.719   5.238   0.087  0.0273 -0.7314  0.6335
18909SOL    HW158168   1.623   5.233   0.078  0.2016 -1.3630 -1.3356
18909SOL    HW258169   1.735   5.328   0.113 -1.1249 -0.6863  1.2674
18910SOL     OW58170   6.110   7.544  11.928  0.3960 -0.0272  0.0207
18910SOL    HW158171   6.152   7.458  11.939  0.4971  0.0777  0.4991
18910SOL    HW258172   6.104   7.556  11.833  0.2495 -0.6269 -0.0531
18911SOL     OW58173   4.942   6.196  12.342  0.1237 -0.0842 -0.0909
18911SOL    HW158174   5.009   6.131  12.365  1.8547  1.7714  0.4439
18911SOL    HW258175   4.944   6.258  12.415 -1.9851  0.2180 -0.2404
18912SOL     OW58176   3.629   2.112   0.275  0.1664  0.5455  0.4647
18912SOL    HW158177   3.646   2.048   0.344 -2.3146  1.5785  2.1528
18912SOL    HW258178   3.612   2.059   0.197 -0.2146 -0.8019  1.4318
18913SOL     OW58179   0.071   4.963  10.315 -0.0196 -0.4948  0.2782
18913SOL    HW158180   0.103   4.915  10.392  0.7584 -0.3767  0.0433
18913SOL    HW258181   0.110   4.917  10.241 -1.6043 -1.2464 -0.1215
18914SOL     OW58182   6.916   6.888  11.825  0.1330 -0.4813  0.2072
18914SOL    HW158183   6.940   6.839  11.904  0.1514 -0.5472  0.1613
18914SOL    HW258184   6.964   6.843  11.755 -0.6403 -1.0224  0.0117
18915SOL     OW58185   6.502   4.710   1.689  0.1006  0.3009 -0.0621
18915SOL    HW158186   6.550   4.645   1.638 -2.5278 -1.9327  0.0857
18915SOL    HW258187   6.459   4.765   1.624 -1.7283 -1.3640 -0.3404
18916SOL     OW58188   0.630   1.390  11.568 -0.6969 -0.0200 -0.1267
18916SOL    HW158189   0.598   1.448  11.638 -1.9804 -1.0842  0.2106
18916SOL    HW258190   0.622   1.302  11.604  1.7729 -0.4402 -0.4186
18917SOL     OW58191   0.164   1.957  10.476  0.5436  0.2410 -0.2579
18917SOL    HW158192   0.233   1.966  10.411 -1.6483  0.7106 -2.7269
18917SOL    HW258193   0.148   1.862  10.480  1.8061  0.0463  0.9608
18918SOL     OW58194   6.827   4.113   3.642 -0.5315  0.0997  0.1279
18918SOL    HW158195   6.851   4.081   3.729 -1.8610 -0.2108  0.4034
18918SOL    HW258196   6.817   4.034   3.589 -2.0137  0.1322  0.3231
18919SOL     OW58197   0.501   1.999   9.279 -0.1320 -0.1400  0.2425
18919SOL    HW158198   0.417   1.962   9.307  0.3587 -0.4340  1.3867
18919SOL    HW258199   0.518   1.957   9.194 -0.6627 -0.8476  0.4731
18920SOL     OW58200   7.836   0.397   9.589  0.0936 -0.1478  0.8493
18920SOL    HW158201   7.827   0.304   9.611 -0.4476 -0.4199 -0.4489
18920SOL    HW258202   7.859   0.399   9.496  1.4149  0.9940  1.1572
18921SOL     OW58203   2.982   5.814   0.533 -0.4081 -0.8077 -0.3197
18921SOL    HW158204   2.927   5.886   0.562  1.6963  1.2071 -1.0474
18921SOL    HW258205   2.950   5.793   0.445 -0.3042  0.0493 -0.5701
18922SOL     OW58206   6.924   0.316   4.590 -0.1353  0.0330 -0.3533
18922SOL    HW158207   6.901   0.397   4.636 -1.5908 -0.0276 -0.9219
18922SOL    HW258208   7.019   0.320   4.581 -0.0855  1.2288  0.4471
18923SOL     OW58209   5.888   4.777   3.962  0.2107  0.4029 -0.3904
18923SOL    HW158210   5.958   4.712   3.961  0.8359  1.0412 -2.0096
18923SOL    HW258211   5.880   4.805   3.871 -2.0252  0.5170 -0.2268
18924SOL     OW58212   0.844   0.648   7.537 -0.3325  0.3079  0.1521
18924SOL    HW158213   0.906   0.607   7.597 -0.1645 -0.0913 -0.2890
18924SOL    HW258214   0.878   0.628   7.450  0.1652  1.9962 -0.0734
18925SOL     OW58215   3.795   7.341  10.239 -0.6010 -0.0928  0.4393
18925SOL    HW158216   3.830   7.361  10.152 -2.9382  1.7388 -0.1793
18925SOL    HW258217   3.873   7.335  10.295  0.9577 -1.2639 -1.7220
18926SOL     OW58218   2.253   0.006  10.376  0.6173 -0.5563 -0.0972
18926SOL    HW158219   2.275  -0.016  10.467 -0.7134 -0.3984  0.2769
18926SOL    HW258220   2.239  -0.079  10.334 -0.7498 -0.5941  0.3797
18927SOL     OW58221   3.872   5.256   1.697 -0.7662  0.3435 -0.0003
18927SOL    HW158222   3.833   5.221   1.777  2.2424 -1.4045  0.8817
18927SOL    HW258223   3.863   5.185   1.634 -0.3202  0.4667 -0.2062
18928SOL     OW58224   1.143   4.229  11.134  0.2558  0.8217 -0.2054
18928SOL    HW158225   1.066   4.181  11.101 -0.9379  1.9191  0.8634
18928SOL    HW258226   1.182   4.267  11.056  0.2517 -0.4846 -0.8791
18929SOL     OW58227   1.230   0.240   6.112  1.0241 -0.1113  1.0044
18929SOL    HW158228   1.279   0.196   6.181  0.2310  0.9151  2.2917
18929SOL    HW258229   1.138   0.219   6.131  0.6492  1.7704  1.4940
18930SOL     OW58230   2.800   6.169   5.111  1.0637 -0.2448  0.2310
18930SOL    HW158231   2.826   6.149   5.201 -1.2056  0.4268  1.1030
18930SOL    HW258232   2.835   6.256   5.094 -0.1103  0.4540  1.2150
18931SOL     OW58233   5.046   2.729   3.582 -0.1859 -0.1573  0.7254
18931SOL    HW158234   5.000   2.716   3.665  0.7665  1.3075  1.5297
18931SOL    HW258235   5.060   2.824   3.578 -0.0903 -0.2169 -1.0616
18932SOL     OW58236   5.795   5.997   3.185 -0.1552 -0.3925 -0.2232
18932SOL    HW158237   5.788   5.912   3.229  2.7408 -0.0237  1.1638
18932SOL    HW258238   5.861   5.984   3.117 -0.9652  0.3503 -1.1947
18933SOL     OW58239   3.603   6.942  11.870  0.1635 -0.5962  0.2545
18933SOL    HW158240   3.688   6.973  11.902  0.8611 -0.9595 -1.1739
18933SOL    HW258241   3.551   7.022  11.860  1.1951 -0.0830 -1.2707
18934SOL     OW58242   5.820   6.249   4.890 -0.5313  0.3897 -0.4430
18934SOL    HW158243   5.735   6.221   4.854 -0.0938  0.1026 -1.2718
18934SOL    HW258244   5.877   6.174   4.878 -0.5496 -0.0056  1.5861
18935SOL     OW58245   5.758   5.074   9.610 -0.3042 -0.1742  0.1769
18935SOL    HW158246   5.801   5.075   9.524 -0.9110  1.8765 -0.1569
18935SOL    HW258247   5.825   5.041   9.670  0.5152 -0.5120 -0.8847
18936SOL     OW58248   6.960   6.164   0.988  0.1543 -0.4270 -0.1362
18936SOL    HW158249   6.940   6.073   1.009  0.6336 -0.5840 -0.3493
18936SOL    HW258250   6.879   6.212   1.006 -0.2085 -0.9504 -0.3666
18937SOL     OW58251   3.616   3.668  11.432  0.0791  0.3768  0.2136
18937SOL    HW158252   3.693   3.663  11.489  0.7930  0.9372 -0.6779
18937SOL    HW258253   3.606   3.579  11.399 -0.1763  0.1089  0.9750
18938SOL     OW58254   1.939   5.812   0.050  0.2617  0.6438 -0.2690
18938SOL    HW158255   1.907   5.825   0.139  0.9250 -0.5723  0.1632
18938SOL    HW258256   2.034   5.809   0.058  0.3060 -0.1449 -0.9043
18939SOL     OW58257   2.413   7.625   1.438  0.2997 -0.7246  0.3772
18939SOL    HW158258   2.476   7.606   1.369 -1.0581 -1.4038 -0.7379
18939SOL    HW258259   2.424   7.555   1.502 -0.5181 -1.8876 -0.7079
18940SOL     OW58260   4.060   1.404   8.930 -0.1438 -0.1083  0.0367
18940SOL    HW158261   4.007   1.461   8.985  1.0580  0.1205  1.0142
18940SOL    HW258262   4.141   1.453   8.915  0.1892 -0.8268 -0.6195
18941SOL     OW58263   6.297   7.653  10.036 -0.0329 -0.2573 -0.1781
18941SOL    HW158264   6.238   7.718  10.075 -1.0648 -0.4001 -1.4294
18941SOL    HW258265   6.297   7.674   9.942  0.4097 -1.4409 -0.4641
18942SOL     OW58266   0.894   2.198   8.287  0.0651 -0.1844 -0.3732
18942SOL    HW158267   0.944   2.214   8.367  0.7383 -0.4779 -0.7237
18942SOL    HW258268   0.950   2.139   8.235 -0.2266  0.2349 -1.1814
18943SOL     OW58269   1.407   3.338   3.965 -0.2286 -0.0656 -0.0085
18943SOL    HW158270   1.379   3.253   3.931 -2.3743  0.6874 -0.3006
18943SOL    HW258271   1.457   3.376   3.893 -0.3686 -0.5673 -0.3817
18944SOL     OW58272   1.533   6.179   1.684 -0.2128  0.7825 -0.0568
18944SOL    HW158273   1.446   6.218   1.685 -0.1253  1.1757 -2.1677
18944SOL    HW258274   1.593   6.253   1.695 -0.1123  0.6327  0.4454
18945SOL     OW58275   4.586   1.981  10.206 -0.2159  0.1278 -0.0805
18945SOL    HW158276   4.509   2.003  10.257  0.8547  0.0718  1.6316
18945SOL    HW258277   4.660   2.012  10.259  0.9149  1.7171 -2.4014
18946SOL     OW58278   1.794   5.434  10.043 -0.3339 -0.1107 -0.1984
18946SOL    HW158279   1.735   5.410  10.114 -1.1608 -1.0667 -1.1799
18946SOL    HW258280   1.875   5.460  10.087 -1.0832  0.0656  1.1182
18947SOL     OW58281   2.450   3.689   2.046  0.1131  0.0136  0.4714
18947SOL    HW158282   2.429   3.767   1.994  1.0980 -1.4760 -2.3347
18947SOL    HW258283   2.384   3.625   2.020 -0.3060 -0.3656  2.2933
18948SOL     OW58284   4.656   2.966   6.355  0.4406 -0.1151  0.0586
18948SOL    HW158285   4.611   2.899   6.406 -2.3492  0.7545 -1.0987
18948SOL    HW258286   4.631   3.049   6.396 -2.4681  0.6724 -2.9081
18949SOL     OW58287   6.091   2.222   6.664 -0.1801  0.3790 -0.2367
18949SOL    HW158288   6.062   2.155   6.602 -1.1353 -0.2016  0.8082
18949SOL    HW258289   6.065   2.305   6.623  0.3900  0.0927 -1.2152
18950SOL     OW58290   2.161   7.151   2.699 -0.6543  0.6400  0.7104
18950SOL    HW158291   2.082   7.154   2.752 -1.6464  1.0369 -0.7449
18950SOL    HW258292   2.195   7.062   2.712 -2.1632 -0.0485  0.2333
18951SOL     OW58293   6.037   2.830   9.319 -0.4996  0.3854 -0.2912
18951SOL    HW158294   6.024   2.825   9.414 -0.4388 -1.8999 -0.3358
18951SOL    HW258295   6.114   2.885   9.308 -0.2876  0.3855  1.0238
18952SOL     OW58296   1.214   7.400  12.296  0.0867 -0.4449  0.2528
18952SOL    HW158297   1.163   7.358  12.227  1.4470  0.7091 -1.5423
18952SOL    HW258298   1.154   7.464  12.334 -0.3198 -0.2124 -0.7436
18953SOL     OW58299   6.934   3.943   2.440  0.5532 -0.1712  0.5675
18953SOL    HW158300   6.966   3.970   2.526 -0.4350 -0.2230  0.9626
18953SOL    HW258301   6.940   4.021   2.386  0.9390 -0.0724  0.7473
18954SOL     OW58302   0.637   5.555   7.078 -0.2539 -0.0617 -0.1499
18954SOL    HW158303   0.614   5.568   6.986 -0.0109  0.1357 -0.1832
18954SOL    HW258304   0.700   5.483   7.078  1.4820  1.3848 -0.3802
18955SOL     OW58305   3.963   3.952   8.038  0.0797 -0.2734  0.2437
18955SOL    HW158306   3.962   3.883   8.104  0.5013  0.2025  0.7632
18955SOL    HW258307   3.900   4.017   8.070 -1.5461 -1.1399 -1.0672
18956SOL     OW58308   7.470   3.506   3.211  0.5276 -0.2664  0.4590
18956SOL    HW158309   7.481   3.418   3.176 -3.0380 -0.3854 -0.8302
18956SOL    HW258310   7.491   3.498   3.304  1.8913 -2.0407  0.0427
18957SOL     OW58311   0.367   6.588   0.333  0.5098  0.0567  0.2803
18957SOL    HW158312   0.381   6.519   0.398  0.3650 -0.7853 -0.5619
18957SOL    HW258313   0.416   6.559   0.256 -0.6762  0.2035 -0.5525
18958SOL     OW58314   6.625   1.944  12.016  0.2239  0.2102  0.2622
18958SOL    HW158315   6.638   1.944  11.922 -2.4043 -1.3455 -0.2259
18958SOL    HW258316   6.661   1.860  12.046  1.6089  0.9641  0.7877
18959SOL     OW58317   1.032   5.334   9.516 -0.0390  0.8546 -0.0459
18959SOL    HW158318   1.072   5.299   9.596 -1.6268 -1.5812 -0.2304
18959SOL    HW258319   1.103   5.333   9.452  0.5011 -0.0717  0.5379
18960SOL     OW58320   7.713   1.371   2.712 -0.4716  0.1277 -0.1142
18960SOL    HW158321   7.799   1.341   2.682 -0.2975 -0.0328  0.5432
18960SOL    HW258322   7.663   1.382   2.631  0.3401  0.7705 -0.5435
18961SOL     OW58323   2.773   0.484  10.996  0.6174  0.6162  0.2269
18961SOL    HW158324   2.685   0.522  10.996 -0.3644 -1.4892 -0.9384
18961SOL    HW258325   2.800   0.486  10.905  0.6592 -1.0957  0.1662
18962SOL     OW58326   0.402   2.652   8.156  0.1777  0.1610 -0.1473
18962SOL    HW158327   0.326   2.680   8.106  0.4593  1.2656  0.0323
18962SOL    HW258328   0.370   2.647   8.247  0.5873  1.7507  0.1095
18963SOL     OW58329   6.141   5.542   6.683  0.2927 -0.3633 -0.6478
18963SOL    HW158330   6.099   5.456   6.681  2.0662 -1.2968  0.0040
18963SOL    HW258331   6.082   5.596   6.737  0.4089 -1.9263  1.1546
18964SOL     OW58332   5.970   4.777   6.596  0.3860 -0.0581  0.0493
18964SOL    HW158333   6.023   4.790   6.675  0.7111 -0.6566 -0.0621
18964SOL    HW258334   5.953   4.682   6.595  1.4143 -0.2419 -1.2591
18965SOL     OW58335   1.580   5.092   7.151 -0.7908  0.0811 -0.7836
18965SOL    HW158336   1.569   5.008   7.107  0.0430  0.2360 -1.2968
18965SOL    HW258337   1.660   5.083   7.202 -0.1967  0.8486 -1.5434
18966SOL     OW58338   5.708   1.840  10.379 -0.4718 -0.3257  0.3891
18966SOL    HW158339   5.650   1.908  10.415 -0.0224 -0.0344  0.5671
18966SOL    HW258340   5.760   1.810  10.454 -0.0947 -0.2859  0.1453
18967SOL     OW58341   0.091   5.375   2.862 -0.0042  0.0171  0.0549
18967SOL    HW158342   0.126   5.288   2.845  1.2154  0.6778 -0.9706
18967SOL    HW258343   0.156   5.435   2.825 -1.8830  1.3200 -1.3489
18968SOL     OW58344   7.790   5.133   3.609  0.1044 -0.1021 -0.1103
18968SOL    HW158345   7.734   5.134   3.686  1.8149  4.0795  1.3434
18968SOL    HW258346   7.729   5.125   3.535 -2.2028  1.5441  1.4647
18969SOL     OW58347   4.334   4.153  11.193  0.2869  0.2437  0.3672
18969SOL    HW158348   4.338   4.060  11.169  1.0262  0.3237  0.1408
18969SOL    HW258349   4.297   4.196  11.116  1.0538  0.2803  0.0076
18970SOL     OW58350   5.643   7.237   8.311  0.7810 -0.0395  0.3518
18970SOL    HW158351   5.712   7.300   8.292 -0.9781  1.3626 -2.0326
18970SOL    HW258352   5.568   7.269   8.261 -1.4541 -1.7752  2.3787
18971SOL     OW58353   7.294   2.496   1.937 -0.4581 -0.5409 -0.3438
18971SOL    HW158354   7.377   2.493   1.890 -0.6310  1.7700 -0.9505
18971SOL    HW258355   7.314   2.467   2.025  0.8704 -0.5556 -0.6358
18972SOL     OW58356   1.278   7.107   9.280  0.4165 -0.1535  0.1408
18972SOL    HW158357   1.361   7.060   9.284 -0.4861 -1.7819  0.4567
18972SOL    HW258358   1.283   7.170   9.352  1.2840 -0.3802  0.2968
18973SOL     OW58359   4.309   6.902   1.975 -0.1347 -0.4691 -0.1965
18973SOL    HW158360   4.319   6.859   2.060  0.4342  1.0844  0.5591
18973SOL    HW258361   4.261   6.982   1.994  0.3060  0.0749 -1.2900
18974SOL     OW58362   5.393   6.469   8.841  0.0059 -0.0019  0.2365
18974SOL    HW158363   5.394   6.487   8.935  1.7070 -1.0882  0.4672
18974SOL    HW258364   5.402   6.555   8.801  2.6306  0.2800  1.1906
18975SOL     OW58365   4.798   7.235   3.297 -0.2195  0.0668 -0.2016
18975SOL    HW158366   4.791   7.319   3.343 -0.9136  0.3535 -0.8257
18975SOL    HW258367   4.832   7.174   3.363  0.7897  0.9511  0.1160
18976SOL     OW58368   1.531   4.589   7.788  0.2551  1.1035  0.2384
18976SOL    HW158369   1.481   4.663   7.754  0.3848  0.4619 -1.4375
18976SOL    HW258370   1.479   4.512   7.765  0.6616  0.5973  0.9607
18977SOL     OW58371   0.799   3.391   9.029 -0.1158  0.6734 -0.2673
18977SOL    HW158372   0.817   3.339   8.951  0.6862 -1.0574  1.0077
18977SOL    HW258373   0.885   3.418   9.060 -0.0630 -1.4918  1.8034
18978SOL     OW58374   4.606   1.856   7.394 -0.3711 -0.6167 -0.3074
18978SOL    HW158375   4.631   1.764   7.392  1.0859 -0.2358 -2.0285
18978SOL    HW258376   4.678   1.900   7.438 -1.2142 -0.2900  0.8136
18979SOL     OW58377   4.019   0.378   2.431 -0.4058  0.0968  0.2087
18979SOL    HW158378   4.045   0.440   2.363  0.4513 -0.4032  0.0584
18979SOL    HW258379   4.070   0.405   2.508  1.8564 -1.8207 -0.5050
18980SOL     OW58380   0.999   2.199  10.180  0.9981 -0.4870 -0.0220
18980SOL    HW158381   0.914   2.224  10.217  0.8621  1.3772 -1.4373
18980SOL    HW258382   1.057   2.193  10.255  0.0125 -0.0438  0.7968
18981SOL     OW58383   5.929   3.522  11.453  0.0286 -0.3188 -0.4823
18981SOL    HW158384   5.991   3.475  11.396  0.2473  0.1892 -0.6664
18981SOL    HW258385   5.866   3.561  11.392 -0.1124 -0.3178 -0.3342
18982SOL     OW58386   6.312   2.510  10.739  0.4034 -0.1145 -0.6959
18982SOL    HW158387   6.222   2.476  10.733  0.6712 -0.7696 -1.0927
18982SOL    HW258388   6.364   2.448  10.689  0.9771  0.6481 -1.0575
18983SOL     OW58389   0.398   0.316   7.201 -0.5842  0.1876  0.3690
18983SOL    HW158390   0.450   0.393   7.178  0.3292 -0.3141  0.6983
18983SOL    HW258391   0.430   0.290   7.287 -0.4706 -0.9011  0.0194
18984SOL     OW58392   6.267   3.452   1.287 -0.1051 -0.2200  0.1031
18984SOL    HW158393   6.258   3.364   1.323  0.7728 -0.3129  0.1250
18984SOL    HW258394   6.351   3.450   1.241 -0.5248  0.3339 -0.6997
18985SOL     OW58395   7.707   7.271   1.992  0.1575  0.2523 -0.0395
18985SOL    HW158396   7.698   7.343   1.929 -0.6109 -0.8581 -1.2571
18985SOL    HW258397   7.797   7.241   1.981 -0.0478 -0.1126 -0.8500
18986SOL     OW58398   4.105   2.240   0.705  0.3030  0.2482 -0.2844
18986SOL    HW158399   4.177   2.219   0.764 -1.2440 -1.1159  1.2052
18986SOL    HW258400   4.046   2.164   0.710 -2.1451  2.0294 -0.0056
18987SOL     OW58401   1.499   3.012   6.022 -0.0555 -0.3756 -0.1383
18987SOL    HW158402   1.549   2.973   5.950 -0.0295 -2.7390  1.0712
18987SOL    HW258403   1.564   3.054   6.077  0.0914  0.1647 -0.7128
18988SOL     OW58404   0.183   6.005   2.058  0.3479  0.9243  0.2187
18988SOL    HW158405   0.144   5.942   2.118  1.8973  1.4443  1.8633
18988SOL    HW258406   0.145   5.984   1.972  0.9045 -2.3016  0.6472
18989SOL     OW58407   4.283   0.753   4.552 -0.1896  0.1319  0.1456
18989SOL    HW158408   4.193   0.720   4.556 -0.1497 -0.0317 -0.3045
18989SOL    HW258409   4.279   0.836   4.599 -0.7595  0.5258 -0.5767
18990SOL     OW58410   6.502   6.819   9.999 -0.0652 -0.1408 -0.4349
18990SOL    HW158411   6.415   6.792  10.030  1.0948 -1.2848  2.1033
18990SOL    HW258412   6.503   6.792   9.907 -2.4425  0.1067 -0.6137
18991SOL     OW58413   2.259   2.569   7.891  0.3190 -0.3714 -0.0037
18991SOL    HW158414   2.201   2.611   7.954 -0.1832 -0.3306 -0.4820
18991SOL    HW258415   2.200   2.518   7.834  0.6971  0.0537 -0.7936
18992SOL     OW58416   2.346   3.172   7.408  0.5711  0.0438 -0.2984
18992SOL    HW158417   2.380   3.103   7.464  1.8224  0.6247 -0.3015
18992SOL    HW258418   2.389   3.252   7.440  0.5443  0.5353 -1.4523
18993SOL     OW58419   1.001   2.962  10.363  0.3618  0.4137 -0.7070
18993SOL    HW158420   1.074   2.959  10.424 -0.5057  0.8721  0.3865
18993SOL    HW258421   0.958   2.878  10.373 -0.5276  0.9686  0.2815
18994SOL     OW58422   4.658   5.321   6.014  0.8166  0.1157 -0.2312
18994SOL    HW158423   4.647   5.229   5.990 -0.5013  0.6416 -1.8201
18994SOL    HW258424   4.605   5.333   6.092 -0.3547 -0.1322 -0.9609
18995SOL     OW58425   4.887   5.759   9.968 -0.3505  0.2536 -0.1623
18995SOL    HW158426   4.953   5.743  10.036 -1.9093 -3.3386  0.7493
18995SOL    HW258427   4.904   5.692   9.902 -0.0103  2.5334 -2.5658
18996SOL     OW58428   4.580   6.399   7.202  0.2725 -0.5165 -0.3837
18996SOL    HW158429   4.607   6.452   7.128 -0.0492 -0.2128 -0.2872
18996SOL    HW258430   4.485   6.393   7.194  0.3147 -1.2025 -0.4743
18997SOL     OW58431   4.685   2.349   4.702 -0.5487 -0.5598 -0.3949
18997SOL    HW158432   4.681   2.254   4.694  1.5303 -0.8306  1.1177
18997SOL    HW258433   4.724   2.378   4.619  1.8609 -1.3840  0.3626
18998SOL     OW58434   5.506   7.722  11.442  0.2906  0.0490  0.2143
18998SOL    HW158435   5.467   7.758  11.363 -0.8590 -0.2384  0.6223
18998SOL    HW258436   5.577   7.782  11.465 -0.2888  0.9145 -0.2367
18999SOL     OW58437   6.340   1.933   3.279  0.2680 -0.2397  0.0694
18999SOL    HW158438   6.338   1.989   3.201  0.5997  0.6282  0.6623
18999SOL    HW258439   6.388   1.855   3.251 -1.3048 -0.8065 -1.1247
19000SOL     OW58440   2.378   7.051   4.289  0.0670 -0.0792 -0.3965
19000SOL    HW158441   2.358   6.959   4.303 -2.4644  0.2642 -1.1257
19000SOL    HW258442   2.435   7.075   4.362 -0.0511 -1.9723  0.3648
19001SOL     OW58443   5.517   7.161   7.782  0.1730 -0.1045 -0.2839
19001SOL    HW158444   5.528   7.103   7.858  1.7784  2.4402  1.5718
19001SOL    HW258445   5.594   7.144   7.728  1.1238  0.8583  0.7189
19002SOL     OW58446   4.044   2.067   0.126  0.2859 -0.2748 -0.2243
19002SOL    HW158447   4.120   2.012   0.108  0.6664  0.1227  0.1544
19002SOL    HW258448   4.072   2.125   0.197 -0.0038  0.6244 -0.8243
19003SOL     OW58449   6.037   4.515   3.142  0.8901  0.4972  0.1369
19003SOL    HW158450   5.988   4.549   3.217  0.5031  0.4283 -0.0809
19003SOL    HW258451   6.008   4.570   3.069 -1.3503 -1.6037 -0.6638
19004SOL     OW58452   0.486   2.830   9.985  0.3089 -0.1046  0.1438
19004SOL    HW158453   0.460   2.838  10.076 -1.4070  1.6457 -0.4315
19004SOL    HW258454   0.443   2.750   9.954 -0.2138  0.0138  0.5491
19005SOL     OW58455   6.930   0.074   9.101 -0.2881  0.1804  0.2087
19005SOL    HW158456   6.992   0.002   9.092 -0.7306 -0.1090 -0.6464
19005SOL    HW258457   6.913   0.102   9.011 -0.1495  1.3347  0.5258
19006SOL     OW58458   6.482   7.463   3.942 -0.8519  0.6619 -0.4225
19006SOL    HW158459   6.463   7.485   4.033 -0.6742 -0.4582 -0.0998
19006SOL    HW258460   6.438   7.380   3.928  1.4801 -0.6626 -0.4563
19007SOL     OW58461   5.006   4.424  10.749  0.4658 -0.0953  0.0228
19007SOL    HW158462   4.912   4.424  10.731  0.0893  5.1489  0.3856
19007SOL    HW258463   5.014   4.444  10.842  2.0072 -1.1725  0.1719
19008SOL     OW58464   0.573   3.032  11.510 -0.7147  0.4188 -0.3940
19008SOL    HW158465   0.575   2.936  11.510  0.5476  0.3682  1.7085
19008SOL    HW258466   0.653   3.057  11.464  0.3191  0.3460  1.2574
19009SOL     OW58467   7.746   6.851   9.882  0.0359 -0.1251 -0.2467
19009SOL    HW158468   7.669   6.794   9.886  0.1330 -0.2757 -0.5251
19009SOL    HW258469   7.719   6.923   9.826 -0.7342  1.0991  1.6069
19010SOL     OW58470   3.249   7.345   8.780 -0.3665 -0.1774 -0.6404
19010SOL    HW158471   3.165   7.390   8.770 -1.9310 -2.8634 -0.7580
19010SOL    HW258472   3.231   7.274   8.842  1.9941 -0.5018 -0.2182
19011SOL     OW58473   1.359   0.075   2.136  0.1627 -0.4466  0.2056
19011SOL    HW158474   1.299   0.148   2.123  0.0841 -0.4509  0.5395
19011SOL    HW258475   1.441   0.116   2.164  1.1151 -0.2193 -2.5946
19012SOL     OW58476   0.816   1.894   0.128 -0.3388  0.7313  0.2847
19012SOL    HW158477   0.909   1.916   0.133 -0.1927  0.1338  0.3869
19012SOL    HW258478   0.779   1.954   0.064  0.7574 -1.1046 -2.1947
19013SOL     OW58479   6.808   7.398   5.192 -0.0819  0.4487 -0.4296
19013SOL    HW158480   6.801   7.385   5.287 -0.9845  0.4889 -0.4835
19013SOL    HW258481   6.720   7.381   5.159 -0.0893  1.6834 -1.1019
19014SOL     OW58482   4.420   3.867   2.275 -0.0219  0.1656  0.5831
19014SOL    HW158483   4.436   3.805   2.346  3.4770 -1.0926 -1.0363
19014SOL    HW258484   4.466   3.946   2.302  0.1388  0.1534  0.3516
19015SOL     OW58485   0.085   2.236   7.652  0.2652  0.4766 -0.2292
19015SOL    HW158486   0.032   2.166   7.613  0.3491 -0.0470  0.5765
19015SOL    HW258487   0.023   2.287   7.704  0.8667 -1.4952  2.6067
19016SOL     OW58488   6.333   5.350   7.808  0.2250  0.2129  0.2020
19016SOL    HW158489   6.384   5.418   7.850 -0.1452 -0.0678  1.1241
19016SOL    HW258490   6.259   5.335   7.867 -0.1964 -0.3381 -0.4431
19017SOL     OW58491   5.755   2.718   2.271  0.4277  0.2672  0.3747
19017SOL    HW158492   5.698   2.660   2.322  0.7266 -0.8278 -0.4988
19017SOL    HW258493   5.713   2.804   2.275 -1.9117 -0.7184 -1.1712
19018SOL     OW58494   2.289   6.859   5.942 -0.5001  0.1186  0.6896
19018SOL    HW158495   2.252   6.786   5.891 -1.9979  2.6829 -2.2179
19018SOL    HW258496   2.215   6.918   5.957  1.0273  1.9995  1.1950
19019SOL     OW58497   1.451   1.066   5.055 -0.6671  0.1999 -0.1481
19019SOL    HW158498   1.408   0.998   5.107  0.9291 -1.4897 -0.9266
19019SOL    HW258499   1.450   1.032   4.966  1.2691  0.5688 -0.3556
19020SOL     OW58500   0.556   6.388  12.314  0.3016  1.0828  0.4048
19020SOL    HW158501   0.497   6.444  12.264 -1.2646 -0.8926 -0.1290
19020SOL    HW258502   0.621   6.357  12.251  0.0078  0.8064  0.2339
19021SOL     OW58503   0.190   4.277   1.818  0.5298 -0.4525 -0.4841
19021SOL    HW158504   0.188   4.366   1.784  1.4915 -0.0527  0.4446
19021SOL    HW258505   0.126   4.277   1.890  0.0381 -0.7115 -0.9126
19022SOL     OW58506   5.437   0.706  11.068 -0.3315  0.1843  0.2049
19022SOL    HW158507   5.502   0.773  11.089 -0.4963  0.2245  0.5884
19022SOL    HW258508   5.448   0.639  11.135  1.0613 -1.0687 -1.2150
19023SOL     OW58509   0.278   7.637   7.759 -0.2131  0.2979  0.0125
19023SOL    HW158510   0.338   7.648   7.686  0.4396 -1.9243  0.1430
19023SOL    HW258511   0.250   7.545   7.754 -2.2590  0.8142  0.9824
19024SOL     OW58512   3.775   1.235   4.982 -0.4070  0.1124  0.0861
19024SOL    HW158513   3.850   1.178   4.963 -0.5540  0.1868 -0.7527
19024SOL    HW258514   3.722   1.186   5.044  0.5003  0.1940  0.9571
19025SOL     OW58515   5.432   6.272   9.128 -0.1388 -0.5108 -0.3999
19025SOL    HW158516   5.361   6.320   9.170 -0.1122 -1.2805  0.5723
19025SOL    HW258517   5.405   6.180   9.132  0.7888 -0.7884 -0.2379
19026SOL     OW58518   2.634   3.693   7.691 -0.3429 -0.0349  0.3490
19026SOL    HW158519   2.700   3.711   7.624  0.6107  0.6725  1.4366
19026SOL    HW258520   2.571   3.764   7.683 -0.5831 -0.3014 -0.1983
19027SOL     OW58521   7.110   4.122   5.847  0.1698 -0.6009  0.3218
19027SOL    HW158522   7.086   4.215   5.852 -0.7718 -0.5991 -2.3445
19027SOL    HW258523   7.171   4.117   5.773 -0.8176 -2.2365 -0.4353
19028SOL     OW58524   1.232   4.986   9.927 -0.4734  0.3589 -0.1802
19028SOL    HW158525   1.265   4.960   9.841  1.5805  1.1721  0.2929
19028SOL    HW258526   1.299   5.045   9.962 -2.2819  1.7785  1.1061
19029SOL     OW58527   5.460   4.734   5.975 -0.0784  0.5294 -0.8118
19029SOL    HW158528   5.375   4.777   5.969  0.3204  1.1073 -3.1860
19029SOL    HW258529   5.458   4.668   5.905  0.7439 -0.7797  0.3445
19030SOL     OW58530   0.701   5.172   6.113  0.0069 -0.2565 -0.5485
19030SOL    HW158531   0.705   5.156   6.207 -2.7675  0.1730 -0.2569
19030SOL    HW258532   0.698   5.268   6.106  1.9480 -0.2118 -1.2409
19031SOL     OW58533   1.080   3.886   1.271  0.3997  0.2500  0.3873
19031SOL    HW158534   1.089   3.978   1.245  1.0818  0.1254  0.1502
19031SOL    HW258535   1.166   3.848   1.253 -0.1549 -0.6696 -0.4398
19032SOL     OW58536   1.936   0.369   0.358  0.2055 -0.4474 -0.2341
19032SOL    HW158537   1.911   0.433   0.424  0.7674 -1.1087  0.6578
19032SOL    HW258538   2.016   0.404   0.320 -0.4567  0.2438 -1.0327
19033SOL     OW58539   7.542   2.200   2.628 -0.2621 -0.6533 -0.3072
19033SOL    HW158540   7.614   2.259   2.649  0.8377 -1.2509 -2.1555
19033SOL    HW258541   7.548   2.130   2.693  1.0364 -0.8443 -0.5988
19034SOL     OW58542   2.559   2.169   1.433 -0.3882  0.4734  0.1933
19034SOL    HW158543   2.484   2.193   1.487 -0.9766 -1.9409  0.5511
19034SOL    HW258544   2.625   2.138   1.496 -0.4292 -0.7100 -0.3146
19035SOL     OW58545   7.465   4.303   1.785  0.1022  0.4485 -0.0305
19035SOL    HW158546   7.369   4.311   1.778  0.1059  0.8039  0.3006
19035SOL    HW258547   7.482   4.304   1.879  0.1807 -2.6287  0.0883
19036SOL     OW58548   2.905   7.105   5.947  0.2442 -0.2655  0.0724
19036SOL    HW158549   2.894   7.070   6.036 -1.0112  1.0693  0.4789
19036SOL    HW258550   2.859   7.189   5.949  1.2305  0.3448 -1.5116
19037SOL     OW58551   6.465   2.840   5.067  0.2268  0.4098  0.5303
19037SOL    HW158552   6.508   2.782   5.004  0.6517  0.3338  0.8805
19037SOL    HW258553   6.452   2.922   5.020 -0.6818 -0.0697 -0.0765
19038SOL     OW58554   0.624   6.732   4.637 -0.2385  0.2584 -0.2737
19038SOL    HW158555   0.720   6.726   4.636 -0.2500 -1.0641  1.4645
19038SOL    HW258556   0.597   6.688   4.556  0.5797 -2.5459  0.8553
19039SOL     OW58557   4.634   6.926   7.643  0.7575  0.5936  0.4032
19039SOL    HW158558   4.643   7.013   7.681  0.4592  0.2438  1.2952
19039SOL    HW258559   4.562   6.886   7.691 -0.8624  0.7607 -1.7554
19040SOL     OW58560   5.132   1.112  12.202  0.0138 -0.1037  0.2119
19040SOL    HW158561   5.199   1.079  12.141 -0.5008  0.0574 -0.4572
19040SOL    HW258562   5.113   1.201  12.171  0.4300  0.3297  1.1956
19041SOL     OW58563   1.484   3.608   1.119 -0.4094 -0.0599  0.2910
19041SOL    HW158564   1.561   3.637   1.169 -0.7631  1.0716  0.1947
19041SOL    HW258565   1.513   3.527   1.076  0.0636 -0.7985  1.9130
19042SOL     OW58566   0.093   6.298   1.822 -0.4943  0.0875  0.5931
19042SOL    HW158567   0.064   6.354   1.894 -1.6381  0.5928 -0.2279
19042SOL    HW258568   0.063   6.211   1.846 -1.0001  0.2788  0.6671
19043SOL     OW58569   2.482   2.460   4.165 -0.4112  0.2503  0.1489
19043SOL    HW158570   2.481   2.366   4.148 -0.6940  0.0255  1.3505
19043SOL    HW258571   2.574   2.480   4.183 -0.0950  0.5001 -1.5094
19044SOL     OW58572   5.833   3.257   0.031 -0.0591 -0.3685 -0.0062
19044SOL    HW158573   5.775   3.331   0.015 -0.9109 -0.2916  2.8679
19044SOL    HW258574   5.777   3.191   0.073  1.2262 -1.6459 -0.2177
19045SOL     OW58575   4.263   6.465  10.474  0.1429  0.3808  0.2138
19045SOL    HW158576   4.255   6.409  10.396 -0.9599  1.1901 -0.2830
19045SOL    HW258577   4.239   6.408  10.547  0.5085 -0.2002 -0.1076
19046SOL     OW58578   1.227   2.872   4.082  0.2235 -0.8952  0.1576
19046SOL    HW158579   1.320   2.891   4.075  0.6051 -1.5672  2.3704
19046SOL    HW258580   1.217   2.785   4.044  0.3693 -0.5881 -0.6045
19047SOL     OW58581   2.820   3.941   8.082  0.0074 -0.2018 -0.6146
19047SOL    HW158582   2.748   4.003   8.069 -1.5757 -1.9415 -0.6579
19047SOL    HW258583   2.814   3.881   8.008  2.4976  0.4444 -1.4213
19048SOL     OW58584   6.054   5.859   9.246 -0.4237  0.1420  0.0502
19048SOL    HW158585   5.965   5.888   9.269 -0.8121 -1.6525  0.9741
19048SOL    HW258586   6.085   5.812   9.323  1.1507  0.3133 -0.4494
19049SOL     OW58587   7.251   4.006   9.289 -0.3861 -0.0295 -0.9004
19049SOL    HW158588   7.321   3.979   9.349 -0.3649 -0.8165 -1.2662
19049SOL    HW258589   7.178   3.948   9.309 -1.3997  1.5806  0.3278
19050SOL     OW58590   2.079   6.612   2.624  0.0278  0.6485 -0.4784
19050SOL    HW158591   2.122   6.597   2.540  1.2275 -0.1505  0.2463
19050SOL    HW258592   2.057   6.524   2.657 -2.1745  1.0154 -0.7905
19051SOL     OW58593   0.394   2.430  12.177  0.6533  0.0459 -0.5976
19051SOL    HW158594   0.376   2.513  12.221 -0.0354  0.1245 -1.0153
19051SOL    HW258595   0.473   2.398  12.219 -0.0844  0.0238  0.8436
19052SOL     OW58596   2.160   6.716   1.667 -0.0537  0.2231  0.0323
19052SOL    HW158597   2.192   6.752   1.584  0.1497 -0.0124  0.0104
19052SOL    HW258598   2.077   6.762   1.682  0.2033  0.7037  0.0030
19053SOL     OW58599   3.777   4.772  12.370  0.7845 -0.0790  0.3091
19053SOL    HW158600   3.780   4.834  12.297  0.5524 -0.3355  0.0808
19053SOL    HW258601   3.733   4.695  12.334  2.7487 -1.1176  0.0528
19054SOL     OW58602   5.644   0.595   5.864  0.4458 -0.4397  0.0085
19054SOL    HW158603   5.624   0.504   5.842  0.9901 -1.0211  1.7210
19054SOL    HW258604   5.716   0.618   5.806  0.2989 -1.1027 -0.4475
19055SOL     OW58605   3.191   5.663   6.991  0.1386 -0.2223 -0.2252
19055SOL    HW158606   3.157   5.702   7.071 -0.6619 -0.1948 -0.5787
19055SOL    HW258607   3.183   5.731   6.925 -0.0407 -0.5423 -0.5371
19056SOL     OW58608   5.635   1.630  11.214  0.0697 -0.7284 -0.1992
19056SOL    HW158609   5.584   1.654  11.136 -2.5660  1.2693  1.9651
19056SOL    HW258610   5.579   1.570  11.262  2.0046 -2.5710 -0.1243
19057SOL     OW58611   3.751   5.630   9.535  0.2095 -0.3288 -0.1533
19057SOL    HW158612   3.783   5.664   9.451 -1.9733  2.5458  0.0370
19057SOL    HW258613   3.816   5.564   9.560  1.0515 -1.1830 -3.9678
19058SOL     OW58614   0.939   1.127   1.817  0.1280 -0.1516  0.0881
19058SOL    HW158615   0.948   1.049   1.763 -0.3369  0.9202 -1.6238
19058SOL    HW258616   0.878   1.102   1.887  0.8648 -1.6143  0.2314
19059SOL     OW58617   1.042   7.546  12.468 -0.3425  0.3588 -0.2341
19059SOL    HW158618   1.051   7.640  12.481  0.0232  0.4171 -0.8912
19059SOL    HW258619   0.999   7.515  12.548  0.3921  0.9460  0.4028
19060SOL     OW58620   4.626   0.472   4.732 -0.2730  0.2743  0.2458
19060SOL    HW158621   4.617   0.567   4.741  1.1169  0.5456 -0.8526
19060SOL    HW258622   4.589   0.453   4.646 -0.3541 -0.1542  0.3754
19061SOL     OW58623   3.290   7.451   9.269 -0.6143 -0.2484 -0.2453
19061SOL    HW158624   3.338   7.397   9.331  0.9084  3.4577  2.2040
19061SOL    HW258625   3.345   7.455   9.191  0.6912  0.0537  0.6727
19062SOL     OW58626   6.050   1.889   7.181 -0.0717 -1.0751 -0.5753
19062SOL    HW158627   5.969   1.861   7.224  0.9275 -0.8855  1.5420
19062SOL    HW258628   6.082   1.810   7.138 -1.2071 -1.2256 -1.1816
19063SOL     OW58629   0.810   4.394   3.663  0.0961 -0.4889  0.0527
19063SOL    HW158630   0.859   4.364   3.739  1.4020 -0.9098 -0.9223
19063SOL    HW258631   0.788   4.313   3.615 -0.8397 -0.2439  0.0425
19064SOL     OW58632   4.748   7.420   0.415  0.1156  0.3724 -0.2794
19064SOL    HW158633   4.762   7.369   0.495 -0.6684  2.1771  1.0708
19064SOL    HW258634   4.657   7.450   0.421  0.7910  2.6721 -0.5261
19065SOL     OW58635   0.512   5.258   9.731 -0.0676 -0.1015  0.7134
19065SOL    HW158636   0.555   5.177   9.760  0.0438 -0.3408 -0.0951
19065SOL    HW258637   0.547   5.273   9.643 -0.2071  0.7444  0.7953
19066SOL     OW58638   5.346   5.256   4.440 -0.5072 -0.2648 -0.2751
19066SOL    HW158639   5.350   5.340   4.393 -0.5522 -1.3788 -2.3921
19066SOL    HW258640   5.413   5.203   4.398 -1.8932 -1.9760 -0.4200
19067SOL     OW58641   1.104   4.844   6.327  0.1088 -0.0633  0.1877
19067SOL    HW158642   1.075   4.783   6.258  1.3831  0.9836 -1.3383
19067SOL    HW258643   1.199   4.835   6.328  0.1696  0.5734  1.2440
19068SOL     OW58644   0.927   2.784   7.739  0.3677  0.2598 -0.6754
19068SOL    HW158645   0.985   2.731   7.794  0.3740  1.0623  0.1263
19068SOL    HW258646   0.839   2.753   7.760  0.2083  1.7244  1.2002
19069SOL     OW58647   4.203   4.642   3.514  0.0192 -0.6621  0.7449
19069SOL    HW158648   4.168   4.553   3.524 -0.6217 -0.6811 -1.1924
19069SOL    HW258649   4.169   4.690   3.590 -1.4037 -1.5636  0.7161
19070SOL     OW58650   3.234   6.042   9.445  0.3824 -0.0859 -0.1623
19070SOL    HW158651   3.153   6.069   9.402 -0.2461  0.6343  1.4065
19070SOL    HW258652   3.217   5.952   9.475 -0.2252  0.3887  0.9937
19071SOL     OW58653   6.941   3.372   1.161  0.0768  0.3649  0.2057
19071SOL    HW158654   6.856   3.397   1.126 -0.8107 -0.4848  1.6269
19071SOL    HW258655   6.979   3.314   1.095 -0.2062  1.1421 -0.6609
19072SOL     OW58656   3.120   2.105  11.530  0.1111  0.0847 -0.4029
19072SOL    HW158657   3.208   2.126  11.499 -0.2417 -1.0418 -2.3676
19072SOL    HW258658   3.062   2.153  11.470 -0.6236 -0.2101  0.0618
19073SOL     OW58659   7.528   5.815   9.035  0.3777 -0.0890 -0.1940
19073SOL    HW158660   7.478   5.850   9.108  0.3983 -1.1313  0.3419
19073SOL    HW258661   7.604   5.872   9.028  0.8412 -0.5025  1.1909
19074SOL     OW58662   1.974   6.972   5.003 -0.2399 -0.3747  0.6505
19074SOL    HW158663   1.918   7.014   4.937 -0.7141 -0.3759  1.0456
19074SOL    HW258664   2.063   6.994   4.976 -0.1724 -3.2096 -1.9998
19075SOL     OW58665   7.342   4.040  12.372 -0.7247 -0.2843  0.5375
19075SOL    HW158666   7.357   3.970  12.435 -0.6322 -1.9543 -1.2407
19075SOL    HW258667   7.252   4.067  12.387  0.0522  1.2300  3.0864
19076SOL     OW58668   6.811   5.651   3.953 -0.0475 -0.0581  0.3299
19076SOL    HW158669   6.769   5.565   3.946 -1.5675  0.6844 -0.2162
19076SOL    HW258670   6.746   5.705   3.998 -0.3024  1.5172 -1.8088
19077SOL     OW58671   5.544   0.491  11.538  0.5860  0.0487 -0.3795
19077SOL    HW158672   5.592   0.573  11.552  1.5819 -0.7470  1.1976
19077SOL    HW258673   5.609   0.422  11.553 -0.5104 -1.0459 -0.4936
19078SOL     OW58674   1.772   0.257   1.003 -0.0735  0.1933  0.3095
19078SOL    HW158675   1.766   0.350   1.025 -1.6100 -0.1712  1.6720
19078SOL    HW258676   1.695   0.218   1.045  0.9320 -1.8212  0.3833
19079SOL     OW58677   1.867   6.578   6.790  0.4439  0.1614  0.3391
19079SOL    HW158678   1.859   6.490   6.826  0.9620 -0.1126 -0.2000
19079SOL    HW258679   1.890   6.565   6.698  2.8996  0.8436  0.7708
19080SOL     OW58680   1.493   6.169   5.461  0.4434 -0.3705 -0.3413
19080SOL    HW158681   1.488   6.252   5.415 -1.0371 -0.3321 -0.1747
19080SOL    HW258682   1.577   6.131   5.435  1.2941  1.3125 -0.1498
19081SOL     OW58683   5.265   4.427   0.189  0.3956  0.6555 -0.0447
19081SOL    HW158684   5.246   4.357   0.127  0.5145 -0.2865  0.9522
19081SOL    HW258685   5.355   4.408   0.219  0.0763  0.6547  0.9550
19082SOL     OW58686   3.398   7.884   3.110  0.2471  0.3226 -0.2398
19082SOL    HW158687   3.424   7.922   3.194  1.2564 -1.5863  0.3564
19082SOL    HW258688   3.480   7.852   3.072 -0.6627 -2.5330 -0.0084
19083SOL     OW58689   3.697   0.941   6.076 -0.0808 -0.1473 -0.0832
19083SOL    HW158690   3.752   0.869   6.046  0.1610 -1.1035  2.4419
19083SOL    HW258691   3.709   0.943   6.171 -0.7554  2.6891  0.0295
19084SOL     OW58692   4.780   6.169  11.742 -0.3142  0.3785 -0.1505
19084SOL    HW158693   4.840   6.203  11.676 -0.1886  1.0213  0.2885
19084SOL    HW258694   4.781   6.074  11.729  0.6572  0.3937 -0.2654
19085SOL     OW58695   6.488   5.310   0.115 -0.6795  0.3915  0.4483
19085SOL    HW158696   6.433   5.365   0.059 -0.3136 -0.0373 -0.3483
19085SOL    HW258697   6.479   5.222   0.079  1.3015  0.4582 -0.3705
19086SOL     OW58698   6.364   6.668   6.876  0.4579 -0.0093 -0.0866
19086SOL    HW158699   6.454   6.647   6.902 -0.1581 -1.7305  0.7910
19086SOL    HW258700   6.310   6.603   6.921 -1.1449  0.2795 -1.4952
19087SOL     OW58701   5.482   7.817   8.159 -0.0943 -0.2990  0.3126
19087SOL    HW158702   5.467   7.812   8.254 -0.1122 -0.2861  0.3101
19087SOL    HW258703   5.430   7.892   8.130  0.8323  0.4266  0.4806
19088SOL     OW58704   0.874   1.672  11.610 -0.0785 -0.3811  0.2889
19088SOL    HW158705   0.889   1.766  11.594  0.7637 -0.7445 -1.1677
19088SOL    HW258706   0.830   1.641  11.531  0.9931 -1.5134  0.1107
19089SOL     OW58707   0.379   3.156   5.403 -0.0766  0.4380 -0.2711
19089SOL    HW158708   0.307   3.122   5.351 -0.3859 -0.2756  0.6026
19089SOL    HW258709   0.372   3.111   5.488  1.7391 -0.1198 -0.3574
19090SOL     OW58710   7.616   2.767   8.441 -0.2443 -0.6476 -0.1435
19090SOL    HW158711   7.701   2.726   8.424  0.2466  0.5689 -0.7330
19090SOL    HW258712   7.621   2.852   8.399 -1.8783 -0.6581 -0.4460
19091SOL     OW58713   5.241   4.093  10.327 -0.7269 -0.1029 -0.6240
19091SOL    HW158714   5.330   4.101  10.293  0.4971 -0.7246  2.0958
19091SOL    HW258715   5.190   4.158  10.279  1.2162  0.3937 -2.1321
19092SOL     OW58716   1.019   1.698   1.608  0.1003 -0.0697 -0.1425
19092SOL    HW158717   1.086   1.705   1.676  0.1005  1.4387 -0.2720
19092SOL    HW258718   0.939   1.677   1.656  0.6679 -2.2400 -0.0163
19093SOL     OW58719   3.995   6.532   1.888 -0.2767 -0.9460 -0.1593
19093SOL    HW158720   3.954   6.613   1.859 -0.1226 -1.3384 -1.5551
19093SOL    HW258721   4.003   6.541   1.983 -1.0603  0.2898 -0.1941
19094SOL     OW58722   4.505   4.388  11.099  0.1230  0.1725  0.0787
19094SOL    HW158723   4.552   4.469  11.078 -2.0817  1.5540  0.1113
19094SOL    HW258724   4.538   4.363  11.185  0.0141  1.7311  0.6006
19095SOL     OW58725   5.342   4.352  10.440 -0.3806 -0.0709  0.0404
19095SOL    HW158726   5.293   4.271  10.456 -1.4127  0.2513 -1.3744
19095SOL    HW258727   5.284   4.406  10.388  1.0573  0.7802 -0.7538
19096SOL     OW58728   1.204   3.641   6.470  0.0580  0.1342  0.7639
19096SOL    HW158729   1.174   3.726   6.437 -2.2801 -1.0090 -0.3683
19096SOL    HW258730   1.266   3.611   6.404  1.3791  1.1769  1.4859
19097SOL     OW58731   2.341   5.842   6.190 -0.1721 -0.3222 -0.0188
19097SOL    HW158732   2.267   5.883   6.147  1.3328  2.5110 -0.1346
19097SOL    HW258733   2.403   5.913   6.206  2.4307 -2.4766  0.3178
19098SOL     OW58734   6.864   5.649   5.994  0.1115  0.4328  0.1656
19098SOL    HW158735   6.824   5.717   6.048 -0.1137 -0.5834  1.3205
19098SOL    HW258736   6.807   5.573   6.004  1.2513 -0.4338  0.2366
19099SOL     OW58737   4.158   5.187   2.534  0.3645 -0.1659  0.0524
19099SOL    HW158738   4.235   5.182   2.477  0.9390 -0.0984  0.8078
19099SOL    HW258739   4.084   5.181   2.474  0.9447 -1.8716 -0.5775
19100SOL     OW58740   2.567   7.220  12.430 -0.5302 -0.4635 -0.0247
19100SOL    HW158741   2.571   7.191  12.521 -2.0991  0.5040  0.3864
19100SOL    HW258742   2.484   7.268  12.423 -1.1385 -1.6810 -2.3053
19101SOL     OW58743   1.669   0.081  10.070 -0.1324 -0.2326  0.3658
19101SOL    HW158744   1.590   0.136  10.067 -0.7910 -1.0906  1.2624
19101SOL    HW258745   1.640  -0.005  10.042  0.2499 -0.7995  1.6383
19102SOL     OW58746   5.572   2.890   8.659 -0.3414  0.1593  0.4171
19102SOL    HW158747   5.627   2.818   8.693 -1.2700  0.1619  2.0327
19102SOL    HW258748   5.489   2.880   8.705 -1.7855  0.0980 -2.0458
19103SOL     OW58749   2.094   2.149   9.310 -0.2843 -0.1584  0.0093
19103SOL    HW158750   2.056   2.066   9.280 -2.4346  0.7754  0.0244
19103SOL    HW258751   2.183   2.125   9.337 -0.7791 -2.4324 -0.1298
19104SOL     OW58752   1.311   7.926   2.643 -0.3809  0.7318  0.3083
19104SOL    HW158753   1.219   7.942   2.623 -0.3630  0.2890 -0.1630
19104SOL    HW258754   1.356   7.943   2.560 -0.1330  0.1985  0.3337
19105SOL     OW58755   1.106   1.826  10.854 -0.2194 -0.3003  0.7125
19105SOL    HW158756   1.166   1.897  10.875 -1.0455  0.5575  0.2466
19105SOL    HW258757   1.159   1.765  10.802 -0.1213  1.1899 -1.0374
19106SOL     OW58758   2.411   3.601   5.088 -0.2971  0.2651  0.2702
19106SOL    HW158759   2.504   3.608   5.067 -0.1758  0.7764  0.9507
19106SOL    HW258760   2.385   3.515   5.054  0.2417  0.4331 -0.5942
19107SOL     OW58761   3.894   4.339   2.607  0.3031 -0.2408  0.3657
19107SOL    HW158762   3.974   4.305   2.647 -0.0967 -2.5624 -0.6529
19107SOL    HW258763   3.855   4.395   2.674  3.0321  1.4354  0.6735
19108SOL     OW58764   5.610   3.724   9.136  0.2485  0.0070 -0.0849
19108SOL    HW158765   5.532   3.671   9.121  1.4502 -1.8777 -0.0931
19108SOL    HW258766   5.650   3.734   9.049  0.7415 -0.2749  0.1014
19109SOL     OW58767   1.219   1.957   4.184 -0.9266 -0.1198  0.3193
19109SOL    HW158768   1.236   1.957   4.089 -1.8052 -0.1628  0.1516
19109SOL    HW258769   1.214   1.864   4.207 -2.0238 -0.1175  0.1465
19110SOL     OW58770   5.605   6.432   8.128 -0.1881 -0.1137  0.0219
19110SOL    HW158771   5.553   6.364   8.085 -1.2358 -1.0363  2.5391
19110SOL    HW258772   5.696   6.405   8.114 -0.5128 -0.7142 -1.0222
19111SOL     OW58773   4.497   6.840   6.230  0.2510  1.0562  0.2223
19111SOL    HW158774   4.465   6.826   6.319  0.1044  0.2514  0.0571
19111SOL    HW258775   4.592   6.834   6.238  0.2103  0.3374  0.2300
19112SOL     OW58776   3.115   6.021   0.162  0.0942  0.1991 -0.0036
19112SOL    HW158777   3.174   6.025   0.237 -0.0662  2.3041  0.0584
19112SOL    HW258778   3.032   6.055   0.194  0.4516  2.7078 -1.4520
19113SOL     OW58779   6.499   2.556  11.801  0.2388  0.4626  0.2547
19113SOL    HW158780   6.456   2.471  11.801  0.2744  0.3973 -1.8916
19113SOL    HW258781   6.585   2.540  11.838 -0.0225 -0.2801  0.5513
19114SOL     OW58782   7.034   5.778   4.134 -0.4998  0.1548  0.1700
19114SOL    HW158783   6.944   5.748   4.144 -0.1862 -1.1801 -0.7878
19114SOL    HW258784   7.027   5.857   4.081 -0.9253 -1.7845 -2.8914
19115SOL     OW58785   5.145   4.613   2.336 -0.0390 -0.0309  0.2321
19115SOL    HW158786   5.135   4.534   2.283  0.8388 -0.4856  0.7325
19115SOL    HW258787   5.155   4.684   2.272  1.1539 -0.5923 -0.2294
19116SOL     OW58788   6.896   5.469   2.190 -0.4997  0.2163  0.3217
19116SOL    HW158789   6.983   5.476   2.152  0.3255 -0.9363  1.8994
19116SOL    HW258790   6.909   5.424   2.273 -2.6659 -0.3633  0.4124
19117SOL     OW58791   0.909   4.973   5.391  0.5562  0.6679  0.2304
19117SOL    HW158792   0.945   4.975   5.303  2.2998  2.4715  0.9103
19117SOL    HW258793   0.917   4.882   5.419  0.6675  0.2219 -1.1837
19118SOL     OW58794   1.248   2.416  10.310  0.1720 -1.1630  0.1175
19118SOL    HW158795   1.288   2.427  10.224  0.5530  0.5801  0.4793
19118SOL    HW258796   1.303   2.352  10.355  0.6904 -1.1512 -0.4998
19119SOL     OW58797   5.324   1.888  12.182 -0.0568 -0.1824 -0.3471
19119SOL    HW158798   5.349   1.977  12.155 -0.1217 -0.2766 -0.7094
19119SOL    HW258799   5.271   1.854  12.110 -3.0163  0.7544  1.2073
19120SOL     OW58800   7.871   3.356  10.134  0.1449 -0.0730  0.6273
19120SOL    HW158801   7.873   3.442  10.093  0.0333  0.0502  0.8832
19120SOL    HW258802   7.960   3.322  10.122  0.6341  0.7113  1.8764
19121SOL     OW58803   5.309   3.972   6.035  0.3287  0.0455  0.0033
19121SOL    HW158804   5.366   4.009   5.968  0.3343 -0.1183 -0.0829
19121SOL    HW258805   5.229   4.024   6.029 -0.0920 -0.6663 -0.8821
19122SOL     OW58806   1.466   3.259   0.371 -0.0377 -0.4152  0.1629
19122SOL    HW158807   1.382   3.293   0.339 -0.2143 -0.3970  0.6406
19122SOL    HW258808   1.527   3.332   0.360  0.3981 -1.0416 -2.0516
19123SOL     OW58809   7.287   5.151   8.353 -0.1075 -0.4696 -0.4454
19123SOL    HW158810   7.252   5.167   8.441 -1.3745  0.0063 -1.0146
19123SOL    HW258811   7.217   5.179   8.294  1.5876  1.4659 -1.6715
19124SOL     OW58812   6.416   4.552   4.720  0.6123  0.5433 -0.4808
19124SOL    HW158813   6.434   4.646   4.726  1.4379  0.3432  0.2106
19124SOL    HW258814   6.463   4.513   4.793 -2.3675 -0.0604  1.2750
19125SOL     OW58815   3.480   1.402  11.845 -0.0253 -0.7497 -0.2655
19125SOL    HW158816   3.495   1.454  11.766 -1.4121 -0.3995 -0.3289
19125SOL    HW258817   3.386   1.384  11.845 -0.0121 -0.9892  1.1518
19126SOL     OW58818   6.221   2.284   8.741  0.6578  0.4542 -0.3002
19126SOL    HW158819   6.310   2.256   8.761  1.2004  2.5797  0.5743
19126SOL    HW258820   6.227   2.379   8.733 -1.6802  0.7700  0.7681
19127SOL     OW58821   1.389   2.999   4.680  0.3301 -0.0218 -0.0947
19127SOL    HW158822   1.336   2.942   4.624 -0.2000 -2.1620  2.4138
19127SOL    HW258823   1.476   2.959   4.679  2.0118  2.9968 -3.5098
19128SOL     OW58824   3.843   2.729  11.687 -0.2214  0.5734  0.2239
19128SOL    HW158825   3.899   2.655  11.707  0.9846  1.1021 -1.0230
19128SOL    HW258826   3.789   2.700  11.614  0.8221  1.1553 -0.8074
19129SOL     OW58827   6.357   1.997   6.909  0.2421 -0.2662 -0.2048
19129SOL    HW158828   6.282   2.052   6.930  0.4943 -0.1635  0.4477
19129SOL    HW258829   6.338   1.963   6.821  0.6743  1.8664 -1.1832
19130SOL     OW58830   3.426   2.106   3.098 -0.4532  0.4743 -0.0048
19130SOL    HW158831   3.342   2.069   3.126 -0.9441  0.2939 -1.5994
19130SOL    HW258832   3.439   2.071   3.010  0.9448  1.0938 -0.0703
19131SOL     OW58833   7.507   7.951   3.446 -0.2147 -0.1156 -0.0481
19131SOL    HW158834   7.459   8.028   3.414  1.5476  1.3511  0.6944
19131SOL    HW258835   7.466   7.930   3.530  0.5132  1.2346  0.6660
19132SOL     OW58836   7.913   0.396   4.825  0.2483  0.1724  0.1626
19132SOL    HW158837   7.951   0.358   4.745  2.0679 -0.0573  1.0796
19132SOL    HW258838   7.846   0.333   4.852 -0.8678  0.5696 -1.4935
19133SOL     OW58839   1.666   6.306  10.069 -0.1492 -0.1311  0.1459
19133SOL    HW158840   1.630   6.233  10.121 -0.8519 -0.2266 -0.4613
19133SOL    HW258841   1.716   6.263   9.999  0.7252 -0.0025  0.6761
19134SOL     OW58842   7.462   7.639   2.800  0.2568 -0.1554  0.1744
19134SOL    HW158843   7.535   7.667   2.856  0.7410  1.0091 -0.9922
19134SOL    HW258844   7.454   7.545   2.817  1.2851 -0.0932  1.1596
19135SOL     OW58845   3.953   6.226   6.799 -0.4136  0.1780 -0.0674
19135SOL    HW158846   4.015   6.189   6.862 -1.3355  1.7722  1.8637
19135SOL    HW258847   3.884   6.160   6.791  0.4918 -0.7373 -0.7269
19136SOL     OW58848   0.983   2.964   0.618 -0.1764  0.3403  0.1538
19136SOL    HW158849   0.955   2.882   0.658 -1.8626  0.4381 -0.7366
19136SOL    HW258850   0.985   3.027   0.691  0.2832 -0.2689  0.6828
19137SOL     OW58851   6.374   6.594   6.273  0.3570  0.3454 -0.3086
19137SOL    HW158852   6.392   6.596   6.179  0.2347  1.1401 -0.3268
19137SOL    HW258853   6.453   6.630   6.313 -0.6497  2.7583 -0.3153
19138SOL     OW58854   3.579   2.246  10.400 -0.1965 -0.4692 -0.3159
19138SOL    HW158855   3.625   2.313  10.348 -0.5359 -0.6883 -0.9108
19138SOL    HW258856   3.527   2.297  10.463 -0.0382 -0.1851 -0.4112
19139SOL     OW58857   5.367   6.189   8.310 -0.4009  0.1151  0.0485
19139SOL    HW158858   5.427   6.211   8.381  1.7677  0.0494 -1.6396
19139SOL    HW258859   5.303   6.130   8.349  0.2905  0.6408  2.0810
19140SOL     OW58860   1.804   3.227   8.736 -0.2598 -0.3596 -0.5774
19140SOL    HW158861   1.797   3.151   8.795  1.0038  0.9007  1.3010
19140SOL    HW258862   1.861   3.196   8.665 -1.2531 -1.7010 -0.8399
19141SOL     OW58863   3.592   7.950   8.516  0.4208  0.3136 -0.1371
19141SOL    HW158864   3.672   7.899   8.521  0.7256  0.8574  0.6379
19141SOL    HW258865   3.559   7.954   8.606 -0.3928  0.2360 -0.4170
19142SOL     OW58866   2.760   5.888   4.190 -0.0671  0.1883 -0.1772
19142SOL    HW158867   2.832   5.830   4.216 -0.7182 -0.7973 -0.5068
19142SOL    HW258868   2.684   5.854   4.236  0.0894  2.8077  2.2708
19143SOL     OW58869   1.395   4.894   4.473  0.3815  0.1011  0.2165
19143SOL    HW158870   1.380   4.884   4.567  1.4335  0.3759  0.4232
19143SOL    HW258871   1.490   4.896   4.464  0.3833 -2.3410 -1.1097
19144SOL     OW58872   2.870   6.065   0.326 -0.1219  0.3333 -0.4437
19144SOL    HW158873   2.857   5.991   0.266  1.4596 -0.1980 -0.1718
19144SOL    HW258874   2.847   6.030   0.412 -0.7072  0.5904 -0.4854
19145SOL     OW58875   1.360   2.246   5.498  0.0716 -0.3160 -0.1638
19145SOL    HW158876   1.440   2.194   5.496  0.6504  0.5167  0.7343
19145SOL    HW258877   1.291   2.182   5.520  0.8926 -0.6046  1.7788
19146SOL     OW58878   0.770   4.067   8.340  0.1872 -0.0195  0.5042
19146SOL    HW158879   0.819   4.097   8.416  1.4242  0.9540 -0.6321
19146SOL    HW258880   0.808   3.983   8.317  1.2896  0.6808 -0.3053
19147SOL     OW58881   6.185   4.705   5.020 -0.0318  0.4735 -0.2649
19147SOL    HW158882   6.157   4.737   4.935  1.0021  0.7216 -0.5210
19147SOL    HW258883   6.143   4.763   5.083 -0.0731  0.8456 -0.6350
19148SOL     OW58884   3.108   1.631   0.198  0.3849  0.2937  0.9678
19148SOL    HW158885   3.057   1.678   0.264  0.4685 -0.6272  1.7233
19148SOL    HW258886   3.110   1.540   0.230  0.0784 -0.2660 -0.5201
19149SOL     OW58887   7.626   1.739   5.257  0.2297 -0.3544 -0.4001
19149SOL    HW158888   7.645   1.737   5.163 -0.4613  0.0781 -0.5545
19149SOL    HW258889   7.641   1.830   5.282 -2.2531  0.1824 -0.6727
19150SOL     OW58890   2.270   3.979   1.194  0.2160  0.3487 -0.1557
19150SOL    HW158891   2.321   4.059   1.186 -0.0741  0.5057 -0.4420
19150SOL    HW258892   2.179   4.008   1.202  0.1068  0.0474 -0.2694
19151SOL     OW58893   2.515   5.090  10.908  0.0074  0.4254  0.1414
19151SOL    HW158894   2.539   4.999  10.924  0.7400  0.2572 -1.6162
19151SOL    HW258895   2.421   5.093  10.923  0.1147 -0.4006  1.0832
19152SOL     OW58896   3.043   5.775  11.709 -0.2348  0.3887  0.6854
19152SOL    HW158897   3.065   5.731  11.791 -2.5065 -0.3975  0.9396
19152SOL    HW258898   3.063   5.867  11.725  0.5178  0.0666  1.6641
19153SOL     OW58899   4.528   1.296   0.660  0.1509 -0.1424  0.3426
19153SOL    HW158900   4.548   1.229   0.594 -0.0876 -0.6918  0.8143
19153SOL    HW258901   4.553   1.379   0.619  1.0297 -0.5732 -0.0226
19154SOL     OW58902   0.907   1.214   9.378  0.4546 -0.1235 -0.4213
19154SOL    HW158903   0.967   1.242   9.309 -0.4781 -0.7167 -1.5106
19154SOL    HW258904   0.833   1.275   9.372 -0.6328 -1.4956 -1.4290
19155SOL     OW58905   7.747   3.949   2.663 -0.4366  0.1409 -0.0978
19155SOL    HW158906   7.822   3.992   2.623 -0.4607 -0.3935 -0.7462
19155SOL    HW258907   7.693   3.921   2.588 -0.3706 -1.0863  0.2851
19156SOL     OW58908   5.407   3.055   0.193 -0.2557 -0.3772  0.2798
19156SOL    HW158909   5.400   2.967   0.230  1.6388 -0.1510  1.3192
19156SOL    HW258910   5.326   3.100   0.220  0.1360 -0.8682  2.4334
19157SOL     OW58911   5.025   0.460   1.301  0.3277 -0.2560  0.3035
19157SOL    HW158912   5.112   0.425   1.322 -0.1289 -1.4973  0.1955
19157SOL    HW258913   5.040   0.554   1.288  1.3668 -0.1504  1.9141
19158SOL     OW58914   5.330   2.823   1.582  0.0886  0.5945 -0.0192
19158SOL    HW158915   5.245   2.868   1.575  0.1244  0.6738  0.0655
19158SOL    HW258916   5.327   2.757   1.512  0.1526  0.9199 -0.3361
19159SOL     OW58917   2.423   0.389   5.318  0.7122  0.3445  0.3461
19159SOL    HW158918   2.383   0.437   5.390  0.1390 -0.7272  0.7664
19159SOL    HW258919   2.517   0.406   5.327  0.4712  1.9814  0.0172
19160SOL     OW58920   1.100   1.092   8.104  0.4531 -0.1015 -0.0210
19160SOL    HW158921   1.051   1.140   8.172 -1.0798  0.0441 -1.1684
19160SOL    HW258922   1.053   1.112   8.023 -0.0973 -3.3153 -0.6149
19161SOL     OW58923   1.898   2.456   4.817  0.5203  0.3923 -0.5000
19161SOL    HW158924   1.809   2.425   4.832  0.6988 -0.4048 -1.0200
19161SOL    HW258925   1.913   2.521   4.886 -1.1138  1.9637 -1.5328
19162SOL     OW58926   5.410   7.487   0.454 -0.6140  0.0895 -0.5256
19162SOL    HW158927   5.463   7.413   0.484 -1.5423 -0.1920  0.5074
19162SOL    HW258928   5.448   7.563   0.497  0.4252  0.2577 -1.6938
19163SOL     OW58929   5.011   3.991   0.016 -0.2049 -0.5697 -0.5764
19163SOL    HW158930   4.925   3.973  -0.021 -1.7829  0.6068  2.2286
19163SOL    HW258931   5.024   3.923   0.082 -0.3206  0.8389  0.9661
19164SOL     OW58932   2.290   3.155   4.558  0.0453  0.1740 -0.1238
19164SOL    HW158933   2.198   3.162   4.530  0.0587  0.7617 -0.0332
19164SOL    HW258934   2.335   3.222   4.506  0.5831 -0.6972 -0.8133
19165SOL     OW58935   1.566   1.586   7.233 -0.0819  0.5541  0.1316
19165SOL    HW158936   1.539   1.669   7.272 -0.6280 -0.3858  1.8761
19165SOL    HW258937   1.487   1.531   7.236  0.5163 -0.3453 -0.0667
19166SOL     OW58938   1.002   7.593   2.436 -0.5578 -0.1349  0.2194
19166SOL    HW158939   1.059   7.662   2.401 -0.8746 -0.3705 -0.8185
19166SOL    HW258940   1.012   7.599   2.531  1.5196 -0.4450  0.0726
19167SOL     OW58941   2.006   6.923   0.029  0.5048  0.2237  0.1563
19167SOL    HW158942   1.919   6.930  -0.010  0.0918 -0.1035  1.0045
19167SOL    HW258943   2.066   6.947  -0.042 -0.2790  0.6177 -0.3860
19168SOL     OW58944   1.273   2.675   1.377  0.5922  0.0636  0.2868
19168SOL    HW158945   1.363   2.701   1.397  0.1078  0.3622  2.2942
19168SOL    HW258946   1.253   2.605   1.440 -0.7181  0.3174  0.1875
19169SOL     OW58947   2.843   3.764   2.982  0.3865  0.0978 -0.3331
19169SOL    HW158948   2.879   3.688   3.029  1.8437  1.4789  0.9054
19169SOL    HW258949   2.779   3.801   3.042  0.2848  0.3198 -0.5791
19170SOL     OW58950   2.495   7.316   9.155  0.3894 -0.3018  0.0712
19170SOL    HW158951   2.490   7.370   9.076  3.1774  1.0166  0.6933
19170SOL    HW258952   2.537   7.235   9.126  0.0655 -0.4346 -0.0411
19171SOL     OW58953   2.751   7.510   5.372  0.5098 -0.1803  0.3862
19171SOL    HW158954   2.779   7.520   5.281 -2.3742 -0.4379 -0.6613
19171SOL    HW258955   2.779   7.590   5.415  2.6235 -0.3866 -0.4984
19172SOL     OW58956   4.309   5.748  11.152  0.6513  0.3364  0.1967
19172SOL    HW158957   4.315   5.657  11.182 -0.6559  0.0524 -0.3401
19172SOL    HW258958   4.306   5.742  11.057  3.8078  1.1761 -0.0620
19173SOL     OW58959   0.079   4.150  11.455 -0.7764 -0.8233 -0.7781
19173SOL    HW158960   0.050   4.233  11.493  0.3326  1.3750 -4.2597
19173SOL    HW258961   0.012   4.129  11.389 -1.0622 -2.8044  0.0702
19174SOL     OW58962   6.139   5.261   3.621  0.3880 -0.9030 -0.7853
19174SOL    HW158963   6.132   5.183   3.676  1.5301 -0.3690  0.1530
19174SOL    HW258964   6.057   5.309   3.635  0.1223 -1.4162 -0.5728
19175SOL     OW58965   6.547   3.530   6.514 -0.4254  0.2750 -0.2852
19175SOL    HW158966   6.606   3.582   6.568  0.3339 -2.0161  1.2496
19175SOL    HW258967   6.465   3.528   6.563 -1.3707  2.2095 -1.6836
19176SOL     OW58968   5.977   2.926   0.706  0.2835  0.6140 -0.2193
19176SOL    HW158969   5.971   2.837   0.670 -0.2476  1.2576 -1.8012
19176SOL    HW258970   6.041   2.918   0.778 -0.1288 -1.1324  0.0084
19177SOL     OW58971   4.341   5.984  10.350 -0.0442  0.0027 -0.3061
19177SOL    HW158972   4.351   5.903  10.302 -0.4989  0.7867 -1.7788
19177SOL    HW258973   4.416   5.987  10.409 -0.0075 -1.4502 -0.2612
19178SOL     OW58974   2.548   3.432   9.171 -0.3185 -0.3167  0.3300
19178SOL    HW158975   2.610   3.360   9.173  0.6222  0.4930  0.7540
19178SOL    HW258976   2.472   3.400   9.220 -0.1530 -1.2275  0.0038
19179SOL     OW58977   3.016   7.028   7.908 -0.1775 -0.5705 -0.1434
19179SOL    HW158978   2.967   7.088   7.852  0.5027  0.6724  0.5356
19179SOL    HW258979   2.951   6.965   7.939 -1.5411  1.3707  1.1994
19180SOL     OW58980   1.031   4.143   9.999 -0.4824 -0.3196 -0.3638
19180SOL    HW158981   1.116   4.164   9.961 -0.5019 -0.5575 -0.5472
19180SOL    HW258982   1.035   4.177  10.088 -0.4367  0.2568 -0.5814
19181SOL     OW58983   1.992   2.719   8.764  0.5375 -0.0010 -0.1574
19181SOL    HW158984   1.912   2.668   8.776  0.9185 -0.2260  1.5939
19181SOL    HW258985   2.049   2.693   8.836  1.7175  1.0935 -0.6486
19182SOL     OW58986   4.801   7.492   9.194  0.3686  0.7710  0.0990
19182SOL    HW158987   4.849   7.467   9.114 -0.9902  0.8453 -0.7723
19182SOL    HW258988   4.722   7.535   9.162 -1.0537 -0.6922  1.4220
19183SOL     OW58989   5.964   6.964  10.899  0.0862 -0.0810  0.0711
19183SOL    HW158990   6.024   6.901  10.939 -0.4673 -0.0819  0.9297
19183SOL    HW258991   5.876   6.929  10.919 -0.2394  1.1658  0.9548
19184SOL     OW58992   5.225   5.140   9.499  0.4636  0.0948 -0.3502
19184SOL    HW158993   5.252   5.051   9.519  0.9325  0.3519  0.1836
19184SOL    HW258994   5.297   5.195   9.528  0.1654  0.6553 -0.6398
19185SOL     OW58995   0.832   3.718   8.912 -0.5228 -0.0525 -0.0669
19185SOL    HW158996   0.865   3.628   8.901  0.2028 -0.3523  3.4489
19185SOL    HW258997   0.909   3.768   8.939 -1.1968  1.3761 -0.7056
19186SOL     OW58998   7.002   7.129   8.218 -0.3006 -0.7938 -0.0173
19186SOL    HW158999   6.970   7.063   8.279  0.3646  0.0723  1.3284
19186SOL    HW259000   7.097   7.130   8.230 -0.0678 -1.0377 -1.5592
19187SOL     OW59001   5.627   5.093   4.678 -0.0174 -0.1843  0.1650
19187SOL    HW159002   5.659   5.179   4.705  0.2381 -0.2319  0.0186
19187SOL    HW259003   5.685   5.030   4.722 -0.5089 -0.2945  0.6608
19188SOL     OW59004   1.798   7.148   1.186 -0.3322 -0.2874 -0.7011
19188SOL    HW159005   1.881   7.156   1.139  1.6124 -1.0808  2.2535
19188SOL    HW259006   1.761   7.236   1.186  0.1323 -0.0596 -2.6700
19189SOL     OW59007   3.613   1.972  10.805  0.1599 -0.4821 -0.1747
19189SOL    HW159008   3.646   2.040  10.747  0.3518 -0.0358  0.4401
19189SOL    HW259009   3.517   1.979  10.798  0.1806 -0.3432 -0.3323
19190SOL     OW59010   1.801   0.659   6.176  0.3301 -0.0755 -0.2510
19190SOL    HW159011   1.878   0.639   6.123 -0.9677 -0.4343 -2.0905
19190SOL    HW259012   1.729   0.613   6.133 -0.8643 -0.1691  1.6945
19191SOL     OW59013   6.898   3.489   9.366  0.3891 -0.2090 -0.8664
19191SOL    HW159014   6.934   3.440   9.293  1.3971 -1.6530  0.5170
19191SOL    HW259015   6.963   3.558   9.384 -0.4691  0.9621 -2.0789
19192SOL     OW59016   2.320   0.865  12.348  0.2765  0.0372  0.8908
19192SOL    HW159017   2.406   0.908  12.355 -0.0055  0.9292 -0.6352
19192SOL    HW259018   2.277   0.884  12.432  1.6003 -0.5549  1.7400
19193SOL     OW59019   5.428   3.966   4.822 -0.3477  0.2048 -0.2033
19193SOL    HW159020   5.360   3.934   4.763  0.7527  0.8925 -1.9153
19193SOL    HW259021   5.507   3.971   4.768  0.9637 -0.0863  1.5931
19194SOL     OW59022   6.567   6.133   7.363 -0.4647  0.0025  0.2087
19194SOL    HW159023   6.631   6.165   7.299 -0.3613 -0.1583  0.2313
19194SOL    HW259024   6.510   6.209   7.380  0.0429  0.3048  0.5928
19195SOL     OW59025   7.390   3.563   9.114  1.0103 -0.2611  0.0601
19195SOL    HW159026   7.385   3.485   9.169 -0.4679 -0.9402 -0.9610
19195SOL    HW259027   7.302   3.572   9.077  0.8257  2.5035  0.9391
19196SOL     OW59028   3.211   6.488   3.634  0.1712 -0.1935  0.1194
19196SOL    HW159029   3.248   6.469   3.548  0.9094  0.7892  0.2070
19196SOL    HW259030   3.187   6.402   3.669 -0.4447 -0.5885 -1.1908
19197SOL     OW59031   0.043   6.110  10.629 -0.4115 -0.3995 -0.2637
19197SOL    HW159032  -0.039   6.148  10.597 -1.1392 -0.4684  1.4186
19197SOL    HW259033   0.102   6.111  10.553 -1.3506  1.3991 -1.0130
19198SOL     OW59034   1.191   3.038   5.889  0.3806 -0.0194 -0.1389
19198SOL    HW159035   1.277   3.008   5.917 -0.2751 -1.1107  0.7975
19198SOL    HW259036   1.144   3.054   5.971  0.3979  2.8114 -0.5813
19199SOL     OW59037   5.228   1.618   4.632  0.0842 -0.6068 -0.1570
19199SOL    HW159038   5.284   1.674   4.578 -0.0082 -1.4367 -1.1600
19199SOL    HW259039   5.280   1.539   4.647  0.0624 -0.4344  0.8949
19200SOL     OW59040   6.940   7.764   6.602 -0.0735 -0.8755  0.0754
19200SOL    HW159041   6.970   7.817   6.676  0.8454  0.2285 -1.0322
19200SOL    HW259042   7.002   7.690   6.599 -1.0803 -1.8087  1.3441
19201SOL     OW59043   2.469   6.510   7.282 -0.1242 -0.4264 -0.1320
19201SOL    HW159044   2.501   6.497   7.372  0.4542 -0.1692 -0.2926
19201SOL    HW259045   2.548   6.533   7.232 -0.5371  0.0312 -0.5852
19202SOL     OW59046   5.052   6.834   7.283  0.5198  0.4824  0.0929
19202SOL    HW159047   5.121   6.770   7.265 -1.4428 -1.2319 -1.9026
19202SOL    HW259048   5.072   6.908   7.226  0.3407 -0.3026 -1.0036
19203SOL     OW59049   1.368   5.700   0.257  0.8059 -0.3840 -0.3121
19203SOL    HW159050   1.407   5.613   0.266  3.5284  0.4646 -2.5668
19203SOL    HW259051   1.327   5.699   0.171  0.0062  0.3048  0.0422
19204SOL     OW59052   3.919   3.969   4.289  0.2310  0.4464 -0.0939
19204SOL    HW159053   3.935   3.905   4.359 -1.5186 -1.8551 -1.6519
19204SOL    HW259054   3.994   3.958   4.230 -0.1020 -0.2603 -0.3975
19205SOL     OW59055   6.623   3.560   9.454  0.3529  0.7841  0.9387
19205SOL    HW159056   6.717   3.543   9.447  0.6276  0.9362  3.4760
19205SOL    HW259057   6.611   3.646   9.412  0.9826  0.0043 -0.9698
19206SOL     OW59058   7.630   7.327   8.586 -0.2306  0.4884 -0.1927
19206SOL    HW159059   7.699   7.391   8.600 -0.3059  0.5823 -0.2556
19206SOL    HW259060   7.565   7.372   8.533  0.1986  0.0396 -1.1376
19207SOL     OW59061   0.734   0.314   3.426  0.1395  0.2984 -0.3038
19207SOL    HW159062   0.732   0.345   3.517 -0.1876  1.8087 -0.7944
19207SOL    HW259063   0.816   0.349   3.392  0.0401  0.1284 -0.7147
19208SOL     OW59064   3.597   4.769  12.022 -0.3657 -0.1149  0.2871
19208SOL    HW159065   3.519   4.819  12.045 -0.1327  0.7390 -0.7220
19208SOL    HW259066   3.669   4.830  12.037 -0.0208 -0.3867 -0.2512
19209SOL     OW59067   3.691   7.851   7.565  0.4430  0.1145  0.5219
19209SOL    HW159068   3.617   7.873   7.509  1.2864  1.3031 -0.1709
19209SOL    HW259069   3.653   7.800   7.637 -1.0842  1.0364  0.3986
19210SOL     OW59070   6.803   7.210   3.752  0.0760  0.6517  0.0827
19210SOL    HW159071   6.873   7.148   3.732  0.2402  0.2897  1.6222
19210SOL    HW259072   6.813   7.227   3.846 -1.0675  1.6448  0.0438
19211SOL     OW59073   4.227   5.289   5.687 -0.4075  0.5765  0.2227
19211SOL    HW159074   4.314   5.256   5.664 -0.7921  0.1198 -0.6217
19211SOL    HW259075   4.167   5.230   5.642 -1.1624  0.7683  0.9614
19212SOL     OW59076   6.148   1.239   2.037 -0.0924  0.3796  0.4307
19212SOL    HW159077   6.230   1.202   2.069 -0.1252  1.4497  1.8378
19212SOL    HW259078   6.167   1.262   1.946  0.9607  0.0233  0.5414
19213SOL     OW59079   2.708   2.406   2.619  0.1744 -0.0248  0.2821
19213SOL    HW159080   2.701   2.464   2.694 -0.4078 -1.1521  1.1321
19213SOL    HW259081   2.650   2.332   2.640  0.8670 -0.8976 -0.7604
19214SOL     OW59082   1.906   6.448   7.308 -0.1731 -0.1317 -0.8040
19214SOL    HW159083   1.834   6.406   7.261 -0.0910 -0.3377 -0.7420
19214SOL    HW259084   1.948   6.378   7.357  0.1491 -0.0315 -0.9370
19215SOL     OW59085   1.583   3.019   0.508 -0.6638 -0.2621 -0.1816
19215SOL    HW159086   1.563   3.050   0.596  0.8617 -0.7872  0.3941
19215SOL    HW259087   1.551   3.088   0.450 -1.6899  0.0931  0.7774
19216SOL     OW59088   4.539   1.653   9.523  0.0147  0.2454 -0.0899
19216SOL    HW159089   4.503   1.725   9.471 -0.2604  0.4651  0.3950
19216SOL    HW259090   4.626   1.637   9.486 -0.5044 -0.1611 -1.1522
19217SOL     OW59091   2.843   2.170  10.018  0.2340 -0.0672  0.2051
19217SOL    HW159092   2.935   2.192  10.031 -0.2266  1.6622  0.9026
19217SOL    HW259093   2.829   2.180   9.923  0.5675  0.5842  0.2154
19218SOL     OW59094   1.778   6.574   3.279 -0.1404  0.1216  0.5342
19218SOL    HW159095   1.769   6.650   3.222  2.2213  0.8855  1.0421
19218SOL    HW259096   1.762   6.499   3.222 -2.5178  0.9428  0.0193
19219SOL     OW59097   5.994   3.224   8.060  0.5508 -0.1925  0.1153
19219SOL    HW159098   6.005   3.307   8.106  0.0394  1.2380 -2.2134
19219SOL    HW259099   5.909   3.231   8.017  1.2671 -1.1574 -1.5665
19220SOL     OW59100   1.794   7.924   4.953 -0.1611  0.3262  0.4642
19220SOL    HW159101   1.732   7.935   5.026 -1.9419 -0.9438 -0.7755
19220SOL    HW259102   1.849   7.851   4.980 -0.3914  0.2795  0.8228
19221SOL     OW59103   3.165   0.500   9.129 -0.3417  0.0851  0.1199
19221SOL    HW159104   3.196   0.441   9.060 -0.9731  1.4527 -1.3926
19221SOL    HW259105   3.168   0.587   9.090 -1.1395  0.8663  1.6956
19222SOL     OW59106   3.145   3.367   4.818 -0.0894  0.9292  0.0056
19222SOL    HW159107   3.228   3.413   4.805 -0.6337  1.5601 -1.3576
19222SOL    HW259108   3.146   3.343   4.911  1.8936  0.3655 -0.1112
19223SOL     OW59109   3.119   2.976   0.216  0.4367 -0.3942 -0.0872
19223SOL    HW159110   3.209   3.002   0.232  0.6262 -0.7070 -0.6155
19223SOL    HW259111   3.073   2.999   0.297  1.0096 -0.3398  0.2323
19224SOL     OW59112   4.890   1.102   4.409 -0.0275  0.2725 -0.0725
19224SOL    HW159113   4.879   1.035   4.476 -3.0831  0.4013 -0.3279
19224SOL    HW259114   4.963   1.071   4.356  1.1284 -0.8582  2.0484
19225SOL     OW59115   4.921   3.318  11.632  0.1172  0.5722 -0.2792
19225SOL    HW159116   4.848   3.352  11.683 -0.2315 -0.9911  0.3324
19225SOL    HW259117   4.958   3.248  11.686  2.6914  1.8791 -0.1421
19226SOL     OW59118   3.435   1.242   0.805  0.2724  0.1155  0.1708
19226SOL    HW159119   3.431   1.313   0.742 -0.7566  0.8010  0.9760
19226SOL    HW259120   3.472   1.281   0.884  0.8270 -0.5431  0.2488
19227SOL     OW59121   6.755   1.883   4.079  0.5848  0.6523  0.0739
19227SOL    HW159122   6.801   1.836   4.009  0.5338 -0.5895  0.8440
19227SOL    HW259123   6.761   1.975   4.054  1.5171  0.3209 -1.0028
19228SOL     OW59124   5.304   4.345   9.881  0.1111  0.3136  0.0409
19228SOL    HW159125   5.251   4.279   9.925  1.3512 -1.1485 -0.5525
19228SOL    HW259126   5.392   4.334   9.918  0.4364  1.3675 -0.3669
19229SOL     OW59127   6.025   7.747   0.326  0.3213  0.0435  0.8749
19229SOL    HW159128   5.945   7.725   0.277  0.5575 -0.3986  0.6892
19229SOL    HW259129   6.094   7.750   0.259  0.5032  0.2065  1.0692
19230SOL     OW59130   1.682   5.472   0.500 -0.5880 -0.5877 -0.4161
19230SOL    HW159131   1.638   5.442   0.579 -0.2857 -1.4209 -0.5566
19230SOL    HW259132   1.722   5.394   0.463  0.8392  0.1076 -0.4169
19231SOL     OW59133   0.487   4.191  10.554  0.2757  0.3152  0.5937
19231SOL    HW159134   0.568   4.140  10.543 -0.1525 -0.3985  0.6971
19231SOL    HW259135   0.423   4.147  10.497 -0.7106 -0.6431  2.3721
19232SOL     OW59136   4.036   2.194   2.344  0.2212  0.9094  0.0456
19232SOL    HW159137   3.960   2.139   2.323 -0.7219  2.0384  0.3918
19232SOL    HW259138   4.111   2.137   2.330 -0.7638 -1.3525  2.8004
19233SOL     OW59139   6.322   7.719   1.663 -0.2459 -0.3477 -0.6383
19233SOL    HW159140   6.313   7.719   1.758  0.6791 -0.5663 -0.5429
19233SOL    HW259141   6.268   7.645   1.634  1.6519 -2.0658 -0.0284
19234SOL     OW59142   6.089   4.413   8.428  0.3049  0.4342 -0.3856
19234SOL    HW159143   6.062   4.364   8.506 -1.5017  1.2460 -0.4458
19234SOL    HW259144   6.056   4.501   8.442  1.4924  1.0543 -1.3072
19235SOL     OW59145   1.010   5.131   3.380 -0.3369 -0.4067  0.0576
19235SOL    HW159146   1.090   5.117   3.429  0.7294  0.6766 -1.2989
19235SOL    HW259147   0.940   5.116   3.443  0.9029 -1.6149  1.2104
19236SOL     OW59148   4.203   0.702  11.476  0.2920 -0.0849 -0.5505
19236SOL    HW159149   4.166   0.617  11.454  0.3419 -0.6614  1.4007
19236SOL    HW259150   4.241   0.734  11.394 -3.2268 -0.0478 -2.3483
19237SOL     OW59151   6.922   6.938   4.982 -0.2720  0.1179  0.0629
19237SOL    HW159152   6.952   6.972   4.898 -2.4867 -1.1727 -1.3542
19237SOL    HW259153   6.877   6.856   4.961  0.0863 -0.8633  2.6656
19238SOL     OW59154   1.577   1.776   6.853  0.5808  0.0406  0.4127
19238SOL    HW159155   1.520   1.703   6.831 -0.5210  0.3173  2.1521
19238SOL    HW259156   1.664   1.737   6.862  0.5505 -0.5340 -1.4182
19239SOL     OW59157   7.154   2.559  10.548 -0.1709 -0.2207 -0.8850
19239SOL    HW159158   7.154   2.583  10.456 -0.4348 -0.8927 -1.0692
19239SOL    HW259159   7.192   2.471  10.550  0.1363 -0.0803 -0.3135
19240SOL     OW59160   5.560   3.386   8.840  0.1089 -0.0110  0.2100
19240SOL    HW159161   5.608   3.375   8.757  1.4886  1.9859  0.6794
19240SOL    HW259162   5.470   3.362   8.818  0.4330  0.4361 -1.8980
19241SOL     OW59163   0.930   1.899   7.762 -0.3721 -0.1538  0.3638
19241SOL    HW159164   0.982   1.970   7.801 -0.5811  0.1758  0.0555
19241SOL    HW259165   0.911   1.840   7.834 -1.5305  0.9103  0.9550
19242SOL     OW59166   3.197   0.429   3.154  0.0632 -0.3758 -0.3213
19242SOL    HW159167   3.201   0.420   3.059 -0.3498  2.6913 -0.7454
19242SOL    HW259168   3.258   0.499   3.175 -0.4898 -0.3831  1.5679
19243SOL     OW59169   7.479   5.610   8.099  0.5616  0.4448  0.7528
19243SOL    HW159170   7.478   5.628   8.193 -0.6150 -0.8716  1.0203
19243SOL    HW259171   7.387   5.611   8.073  0.7002 -1.2063  0.0456
19244SOL     OW59172   4.853   4.542   9.597  0.3510  0.7098 -0.1755
19244SOL    HW159173   4.785   4.493   9.642 -0.0959 -0.4895 -2.0359
19244SOL    HW259174   4.910   4.475   9.559  1.3122  1.6719 -0.4890
19245SOL     OW59175   5.831   2.797   7.806 -0.7339 -0.0736 -0.1731
19245SOL    HW159176   5.826   2.857   7.732  0.7862 -0.5880 -0.7487
19245SOL    HW259177   5.864   2.850   7.878  0.4330 -0.1433 -0.6302
19246SOL     OW59178   2.335   0.612  12.478 -0.3913  0.1468  0.0514
19246SOL    HW159179   2.317   0.687  12.421  0.0118  0.1046 -0.1310
19246SOL    HW259180   2.388   0.648  12.549 -1.9323  0.4677  1.0966
19247SOL     OW59181   7.127   4.179  10.087  0.2317  0.5317 -0.0875
19247SOL    HW159182   7.041   4.218  10.098 -0.1535 -0.6631  1.4372
19247SOL    HW259183   7.116   4.117  10.016 -0.2577  0.1604  0.3061
19248SOL     OW59184   5.530   2.526   6.906  0.2357  1.1148  0.4791
19248SOL    HW159185   5.540   2.473   6.986  1.6021 -0.3850 -0.6306
19248SOL    HW259186   5.616   2.524   6.865 -0.6137  1.2906 -1.3980
19249SOL     OW59187   1.701   0.473   0.208 -0.3047  0.1864  0.1892
19249SOL    HW159188   1.796   0.484   0.205 -0.3296  0.4561  0.3906
19249SOL    HW259189   1.667   0.560   0.231 -0.5701 -0.0229  0.6082
19250SOL     OW59190   4.630   5.249   8.621  0.1471 -0.0424  0.2761
19250SOL    HW159191   4.705   5.283   8.572 -0.3420 -0.4311 -0.7794
19250SOL    HW259192   4.623   5.158   8.593 -1.1993  0.2071 -0.2659
19251SOL     OW59193   6.034   7.066   4.713  0.1374 -0.5387  0.3485
19251SOL    HW159194   6.088   7.140   4.740  0.2055 -0.2735 -0.4721
19251SOL    HW259195   5.951   7.078   4.759  0.6475 -0.7640  1.3571
19252SOL     OW59196   3.862   7.887   8.169  0.3128  0.5989  0.0512
19252SOL    HW159197   3.786   7.831   8.179 -0.8950  2.1550 -0.0392
19252SOL    HW259198   3.935   7.827   8.156 -0.9343 -0.9252 -0.1191
19253SOL     OW59199   2.915   2.286   1.777 -0.4158  0.3126  0.5878
19253SOL    HW159200   2.844   2.223   1.762 -0.3692  0.0200  1.5613
19253SOL    HW259201   2.961   2.290   1.693 -0.5116 -0.8411  0.4695
19254SOL     OW59202   1.020   6.449   6.926  0.5309  0.7088 -0.1370
19254SOL    HW159203   0.962   6.460   6.850 -0.0010  0.7278  0.2627
19254SOL    HW259204   1.036   6.355   6.931  1.0038  0.7597 -0.5862
19255SOL     OW59205   3.323   3.996   0.405  0.3391  0.1801  0.1506
19255SOL    HW159206   3.280   4.003   0.320  2.1065  2.7216 -0.6653
19255SOL    HW259207   3.402   3.944   0.389  0.8342  0.9204  0.1247
19256SOL     OW59208   6.803   0.221  12.014  0.3475 -0.4415 -0.1479
19256SOL    HW159209   6.823   0.313  11.999 -1.2272 -0.2900 -1.5442
19256SOL    HW259210   6.778   0.217  12.107  0.9692  0.4103  0.0697
19257SOL     OW59211   2.278   7.755  10.002 -0.5396 -0.3749 -0.4987
19257SOL    HW159212   2.337   7.680   9.996 -2.1024 -1.5805 -1.1857
19257SOL    HW259213   2.254   7.775   9.911  0.0222  1.1398 -0.3564
19258SOL     OW59214   0.926   0.448   2.160  0.1990  0.2119  0.5059
19258SOL    HW159215   0.889   0.472   2.245 -1.0681 -1.2352  0.3996
19258SOL    HW259216   0.949   0.532   2.119  1.9311  0.9023  2.7077
19259SOL     OW59217   1.780   1.709   9.860  0.5642  0.5393 -0.0682
19259SOL    HW159218   1.797   1.619   9.830 -0.7515 -0.1129  1.0041
19259SOL    HW259219   1.778   1.701   9.956  0.5868  1.7548  0.0395
19260SOL     OW59220   3.946   3.032   4.632  0.0684 -0.3631 -0.0064
19260SOL    HW159221   3.952   3.128   4.623 -0.0195 -0.2855  0.7331
19260SOL    HW259222   3.969   2.999   4.545 -0.9824  0.3615 -0.5722
19261SOL     OW59223   1.244   2.272   8.683 -0.0712  0.2683  0.1049
19261SOL    HW159224   1.179   2.305   8.620 -0.9700 -0.8028  0.4361
19261SOL    HW259225   1.258   2.181   8.656  1.8584  0.6643 -0.3939
19262SOL     OW59226   0.469   6.610   1.370 -0.1676  0.3475 -0.1292
19262SOL    HW159227   0.555   6.600   1.409 -0.5085 -2.3030  0.1189
19262SOL    HW259228   0.407   6.588   1.440 -1.1101  2.4812 -0.2170
19263SOL     OW59229   4.456   6.822  11.254  0.5383 -0.1433  0.7127
19263SOL    HW159230   4.415   6.892  11.202  1.1984  0.0237  0.4071
19263SOL    HW259231   4.535   6.800  11.206  0.6657 -0.6575  1.1538
19264SOL     OW59232   2.170   2.166  11.328 -0.8296  0.3083  0.1665
19264SOL    HW159233   2.246   2.180  11.384  0.0875  1.0868 -1.2099
19264SOL    HW259234   2.111   2.112  11.380  1.0260 -1.0642  0.9490
19265SOL     OW59235   2.709   6.464   1.781  0.9466 -0.0340  0.9934
19265SOL    HW159236   2.657   6.423   1.712 -0.0068  1.9475  0.4676
19265SOL    HW259237   2.707   6.401   1.853 -1.8171 -0.2359  0.8298
19266SOL     OW59238   4.077   0.919  11.269  0.4862 -0.1371 -0.5501
19266SOL    HW159239   4.160   0.896  11.226  0.5739 -0.5086 -0.1824
19266SOL    HW259240   4.021   0.843  11.256  0.6536 -0.4223  0.3526
19267SOL     OW59241   6.410   2.331   4.098 -0.2231  0.4292 -0.4208
19267SOL    HW159242   6.440   2.240   4.111 -0.5324  0.5144  1.0435
19267SOL    HW259243   6.482   2.373   4.051  0.4240 -0.2740 -0.0823
19268SOL     OW59244   0.755   6.581   8.591  0.1518  0.3678  0.2343
19268SOL    HW159245   0.831   6.632   8.619 -0.6828  2.0410 -0.3926
19268SOL    HW259246   0.744   6.605   8.499 -1.0098 -0.0070  0.2656
19269SOL     OW59247   0.447   3.879  11.940 -0.4544 -0.4308  0.0833
19269SOL    HW159248   0.508   3.906  12.008 -1.2843  0.6838  0.4002
19269SOL    HW259249   0.362   3.912  11.968 -1.1852 -1.7910 -0.4503
19270SOL     OW59250   5.434   2.338   0.650 -0.2189 -0.0305  0.2463
19270SOL    HW159251   5.466   2.427   0.636 -0.0249  0.0508  1.1810
19270SOL    HW259252   5.482   2.285   0.586  0.1892  0.4219  0.1739
19271SOL     OW59253   6.869   0.186   7.123  0.3333 -0.2387  0.7446
19271SOL    HW159254   6.911   0.233   7.051 -2.6730 -0.0519 -1.0477
19271SOL    HW259255   6.906   0.225   7.202  2.7446  0.5168 -0.6604
19272SOL     OW59256   5.794   4.330  10.010 -0.5863 -0.1038 -0.3211
19272SOL    HW159257   5.828   4.360  10.095 -0.3661 -1.2610  0.0102
19272SOL    HW259258   5.817   4.401   9.950  1.7622 -0.4912  0.0420
19273SOL     OW59259   0.526   4.892   0.279 -0.6023 -0.2255 -0.0291
19273SOL    HW159260   0.591   4.917   0.345  0.1220 -0.0376 -0.7942
19273SOL    HW259261   0.501   4.974   0.237  0.1715 -0.5206 -1.0920
19274SOL     OW59262   5.208   1.692   8.899  0.2455  0.2302  0.2815
19274SOL    HW159263   5.117   1.671   8.880 -0.0580  1.9456 -0.3764
19274SOL    HW259264   5.258   1.655   8.826  0.1008 -0.7723  0.6791
19275SOL     OW59265   3.737   7.616   0.022  0.2158 -0.1227  0.4772
19275SOL    HW159266   3.819   7.664   0.030 -0.1903  0.8391 -0.7755
19275SOL    HW259267   3.683   7.649   0.094  0.5155  0.0773  0.6123
19276SOL     OW59268   1.866   1.356   1.689  0.1273  0.4115  0.4311
19276SOL    HW159269   1.930   1.352   1.618  0.6551 -1.3534  0.9556
19276SOL    HW259270   1.918   1.348   1.768 -0.5748  1.0408  0.9650
19277SOL     OW59271   3.509   6.263   2.166 -0.3085  0.7805 -0.0374
19277SOL    HW159272   3.534   6.279   2.075  0.3123 -0.1217 -0.0387
19277SOL    HW259273   3.484   6.171   2.167 -0.5729  0.8586  0.6532
19278SOL     OW59274   6.332   2.151   1.348  0.6977 -0.4817  0.0286
19278SOL    HW159275   6.371   2.145   1.435  1.3514  2.8102  0.0903
19278SOL    HW259276   6.249   2.104   1.355 -0.3364  1.5300  3.1583
19279SOL     OW59277   5.083   6.597   4.968  0.9817 -0.6946  0.6539
19279SOL    HW159278   5.079   6.595   4.873  2.1329  1.0234  0.5278
19279SOL    HW259279   5.134   6.519   4.991 -1.1665 -2.3618  0.0674
19280SOL     OW59280   6.426   5.832   2.984 -0.3612  0.0356  0.2094
19280SOL    HW159281   6.334   5.810   2.998 -1.6206  2.3439 -3.0761
19280SOL    HW259282   6.469   5.748   2.967 -2.2695 -0.9508 -0.0086
19281SOL     OW59283   2.900   0.156   3.072 -0.1471 -0.1937 -0.2254
19281SOL    HW159284   2.950   0.171   2.992 -1.7478 -1.5703 -1.5652
19281SOL    HW259285   2.873   0.243   3.100  2.1484  0.4938  0.0186
19282SOL     OW59286   4.312   6.600   4.915 -0.3440  0.4073  0.2140
19282SOL    HW159287   4.267   6.564   4.838 -0.9795  1.6599 -0.0197
19282SOL    HW259288   4.243   6.612   4.980  0.0892 -0.0479  0.7714
19283SOL     OW59289   5.993   2.408   2.891 -0.2782  0.4459 -0.2249
19283SOL    HW159290   6.081   2.402   2.854 -0.7293  0.3279 -1.3216
19283SOL    HW259291   5.949   2.474   2.837 -1.3102 -0.5704 -0.6774
19284SOL     OW59292   0.271   5.041   3.060 -0.6529 -0.2140  0.3953
19284SOL    HW159293   0.359   5.051   3.023 -1.3176  1.2911 -0.9092
19284SOL    HW259294   0.213   5.040   2.984 -1.8119 -0.5361  1.2616
19285SOL     OW59295   1.429   6.373   5.244 -0.1440  0.1951  0.5716
19285SOL    HW159296   1.478   6.370   5.161 -0.7877 -0.5906  0.2098
19285SOL    HW259297   1.358   6.435   5.227 -1.4491 -1.4299 -0.1475
19286SOL     OW59298   1.741   2.778   0.598 -0.5166  0.3039 -0.2993
19286SOL    HW159299   1.714   2.863   0.563 -1.8072 -0.2441 -0.6794
19286SOL    HW259300   1.662   2.741   0.636 -0.2092 -1.1397 -0.9772
19287SOL     OW59301   7.742   2.092   7.781 -0.4192  0.2089  0.3214
19287SOL    HW159302   7.745   2.119   7.689  1.7627  1.0934  0.5980
19287SOL    HW259303   7.793   2.158   7.827 -2.3352  0.3499  2.3656
19288SOL     OW59304   4.477   3.260  12.034  0.1199  0.1283 -0.3081
19288SOL    HW159305   4.549   3.290  12.089  0.4490 -0.4886 -0.3933
19288SOL    HW259306   4.515   3.191  11.979 -0.5583 -0.2919 -0.2758
19289SOL     OW59307   5.079   5.262  11.272 -0.0813  0.1301  0.1129
19289SOL    HW159308   4.995   5.251  11.228 -0.1220 -1.8438  0.5913
19289SOL    HW259309   5.131   5.187  11.245  1.2571  0.8871  0.4720
19290SOL     OW59310   2.715   0.168   7.210  0.1937  0.3795  0.1167
19290SOL    HW159311   2.645   0.164   7.145 -1.3038 -0.8575  1.7041
19290SOL    HW259312   2.743   0.077   7.221  0.6085  0.6021  1.0046
19291SOL     OW59313   2.961   3.143   3.659  0.7176 -0.1360 -0.3074
19291SOL    HW159314   2.993   3.233   3.664 -1.1024  0.5413  0.1518
19291SOL    HW259315   2.936   3.121   3.749  1.2727 -1.1560 -0.3906
19292SOL     OW59316   4.877   6.049   2.050 -0.1885  0.2352  0.2451
19292SOL    HW159317   4.888   6.124   1.991  2.3469 -0.7259 -0.6642
19292SOL    HW259318   4.932   5.981   2.011  0.9826 -0.7008  3.2836
19293SOL     OW59319   1.865   1.072   2.387 -0.2406  0.0654 -0.5342
19293SOL    HW159320   1.948   1.083   2.433 -1.1821  0.8764  1.0687
19293SOL    HW259321   1.874   1.127   2.308  0.8884 -0.2200 -0.6262
19294SOL     OW59322   4.968   2.433   8.014  0.4842  0.4707  0.3643
19294SOL    HW159323   5.056   2.439   8.050  0.8399 -0.3247 -0.3465
19294SOL    HW259324   4.913   2.479   8.078  1.5007  1.6359  0.4509
19295SOL     OW59325   6.879   5.177   5.373  0.3842 -0.3834 -0.0393
19295SOL    HW159326   6.886   5.082   5.358  0.8427 -0.4396  0.5056
19295SOL    HW259327   6.943   5.215   5.313  0.2737 -0.4208 -0.1834
19296SOL     OW59328   1.000   5.169   9.965  0.3724 -0.4365  0.8633
19296SOL    HW159329   0.966   5.239  10.020 -1.1331  0.8154 -1.4974
19296SOL    HW259330   0.935   5.100   9.971 -1.1652  0.7101 -1.1812
19297SOL     OW59331   4.433   5.320   5.387 -0.0271  0.4961 -0.2851
19297SOL    HW159332   4.461   5.237   5.426 -1.1439 -0.8171 -2.1293
19297SOL    HW259333   4.507   5.379   5.401  1.1909 -1.0725  0.2401
19298SOL     OW59334   0.966   5.786   2.818  0.0874  0.1913  0.2807
19298SOL    HW159335   0.933   5.699   2.838 -2.5742  0.4202 -2.5198
19298SOL    HW259336   0.947   5.837   2.897  0.6839 -1.4043  1.5365
19299SOL     OW59337   6.109   0.306  11.760  0.2789  0.1192 -0.0650
19299SOL    HW159338   6.157   0.261  11.829  0.0932 -0.7574 -0.4969
19299SOL    HW259339   6.139   0.266  11.679  1.5327  2.0899 -0.6342
19300SOL     OW59340   3.762   6.794   8.638 -0.1017  0.0374 -0.0261
19300SOL    HW159341   3.831   6.839   8.688 -0.3898  0.7726 -0.2834
19300SOL    HW259342   3.795   6.705   8.629  0.0623 -0.0627  1.2884
19301SOL     OW59343   7.777   6.747   1.443 -0.0977  0.5393  0.3790
19301SOL    HW159344   7.696   6.706   1.474  0.5326 -1.5494 -0.5437
19301SOL    HW259345   7.846   6.687   1.471  1.4854  3.3479  3.1163
19302SOL     OW59346   1.160   1.634   8.811 -0.1578  0.3940 -0.1699
19302SOL    HW159347   1.177   1.574   8.738  1.1758  0.5592 -0.0181
19302SOL    HW259348   1.079   1.679   8.786 -0.5809 -0.6633 -0.8043
19303SOL     OW59349   0.687   0.174   5.407 -0.8806  0.4525  0.1650
19303SOL    HW159350   0.704   0.117   5.482  1.0894  0.5422 -0.1657
19303SOL    HW259351   0.667   0.114   5.335  1.9057  0.0232 -0.3676
19304SOL     OW59352   1.116   1.106   1.125 -0.0594 -0.1770  0.1481
19304SOL    HW159353   1.030   1.120   1.164 -0.4434 -1.5191 -0.1454
19304SOL    HW259354   1.156   1.037   1.177 -0.4977 -1.8548 -1.6105
19305SOL     OW59355   4.779   5.955   0.861 -0.2497  0.0307  0.2968
19305SOL    HW159356   4.738   5.972   0.776  0.1300  0.2582  0.1538
19305SOL    HW259357   4.708   5.922   0.916 -0.4760 -0.2441 -0.1466
19306SOL     OW59358   4.277   4.236   5.643 -0.1079 -0.4055 -0.1349
19306SOL    HW159359   4.322   4.226   5.559  0.1366 -4.6573  0.2973
19306SOL    HW259360   4.185   4.243   5.620  0.1155  0.4781 -0.7979
19307SOL     OW59361   2.761   1.954   0.582 -0.3407 -0.2731 -0.0129
19307SOL    HW159362   2.763   1.918   0.671 -1.5007  1.2759  0.6922
19307SOL    HW259363   2.832   2.019   0.580 -0.2752 -0.3508 -0.2390
19308SOL     OW59364   4.609   6.163   2.955 -0.0149 -0.2955  0.2472
19308SOL    HW159365   4.555   6.148   2.876 -0.7414 -1.1331  0.8817
19308SOL    HW259366   4.672   6.091   2.955 -0.7530 -0.9619  1.0245
19309SOL     OW59367   0.700   3.092  10.320  0.2351  0.8813  0.1854
19309SOL    HW159368   0.615   3.134  10.306  0.2047  0.3765 -1.2873
19309SOL    HW259369   0.687   3.038  10.398 -0.7276  0.9847  0.1031
19310SOL     OW59370   1.876   2.955  10.758 -0.3406 -0.3385 -0.0906
19310SOL    HW159371   1.896   2.968  10.665  2.2889 -0.2955  0.4132
19310SOL    HW259372   1.955   2.917  10.795 -0.9375  0.6018  2.3635
19311SOL     OW59373   4.196   7.700   1.327  0.1340  0.2265 -0.4183
19311SOL    HW159374   4.185   7.610   1.296 -1.5048 -0.3202  1.5758
19311SOL    HW259375   4.149   7.753   1.262  0.2697 -0.4434 -1.0807
19312SOL     OW59376   4.316   7.231   0.149 -0.6240  0.2418 -0.4906
19312SOL    HW159377   4.234   7.242   0.100 -1.7516  0.9678  1.4225
19312SOL    HW259378   4.321   7.309   0.205 -0.4064 -1.3652  1.8797
19313SOL     OW59379   2.252   0.205   1.203 -0.0622  0.0747  0.5054
19313SOL    HW159380   2.279   0.198   1.112 -0.5541  0.2338  0.3401
19313SOL    HW259381   2.259   0.299   1.222  0.7538 -0.0552  0.8615
19314SOL     OW59382   2.784   0.322  11.319 -0.0765  0.3219 -0.4616
19314SOL    HW159383   2.717   0.392  11.320 -2.5661 -1.8922  0.9306
19314SOL    HW259384   2.736   0.244  11.291  1.7698 -1.5271  1.1860
19315SOL     OW59385   1.148   6.148   8.807  0.1102  0.2286 -0.1712
19315SOL    HW159386   1.184   6.086   8.870 -1.1375 -1.4995 -1.0655
19315SOL    HW259387   1.217   6.213   8.795  0.9998 -0.2866  1.7157
19316SOL     OW59388   5.065   0.346   6.261  0.4582 -0.0848 -0.5858
19316SOL    HW159389   5.116   0.417   6.223 -0.4276  0.0992 -1.4632
19316SOL    HW259390   5.082   0.271   6.205  1.2253 -0.5380  0.2192
19317SOL     OW59391   1.550   6.545   4.558  0.1698  0.7450 -0.1333
19317SOL    HW159392   1.549   6.595   4.477 -1.4956  1.9279  0.5658
19317SOL    HW259393   1.473   6.575   4.606 -0.3416 -1.8121  0.7681
19318SOL     OW59394   6.370   7.912   1.155  0.0781 -0.3217  0.1830
19318SOL    HW159395   6.457   7.888   1.126  0.4344  0.7952  0.2583
19318SOL    HW259396   6.379   7.928   1.249 -0.2057 -0.1967  0.1929
19319SOL     OW59397   1.018   7.440   5.893  0.6413  0.4089  0.2304
19319SOL    HW159398   0.925   7.418   5.883  1.2572 -1.8249 -1.3302
19319SOL    HW259399   1.040   7.411   5.982  0.1091 -0.0699  0.2123
19320SOL     OW59400   6.896   3.432  11.096 -0.5315 -0.1582  0.3256
19320SOL    HW159401   6.966   3.409  11.157 -0.0782  1.4429  0.4302
19320SOL    HW259402   6.915   3.521  11.069 -1.4581 -0.3820 -1.1720
19321SOL     OW59403   2.160   2.035   6.354  0.1733  0.3743  0.1727
19321SOL    HW159404   2.084   2.038   6.296  1.7637 -1.3367 -2.1452
19321SOL    HW259405   2.217   2.105   6.323  0.2161  0.7059  0.9652
19322SOL     OW59406   5.145   1.499   2.813 -0.2613 -0.0167  0.4172
19322SOL    HW159407   5.211   1.500   2.744 -0.2967  2.0640  0.3591
19322SOL    HW259408   5.061   1.503   2.767 -0.4123 -1.2100  0.5407
19323SOL     OW59409   0.072   6.335   9.512  0.5003  0.1031 -0.0847
19323SOL    HW159410   0.029   6.249   9.518  1.2942 -0.4641 -1.8383
19323SOL    HW259411   0.005   6.391   9.473 -0.0240  0.3155  1.0705
19324SOL     OW59412   2.262   4.875   5.714  0.0344  0.0826 -0.5513
19324SOL    HW159413   2.273   4.916   5.800 -2.0420 -0.8532  0.2415
19324SOL    HW259414   2.317   4.797   5.718  0.4123  0.3626 -0.2837
19325SOL     OW59415   2.490   7.263   9.939 -0.1849  0.3772 -0.6515
19325SOL    HW159416   2.562   7.308   9.895  1.4251  0.6406  2.0348
19325SOL    HW259417   2.533   7.202   9.999 -2.2212 -0.0886  0.4236
19326SOL     OW59418   3.728   7.700   6.132 -0.2083 -0.1308 -0.1261
19326SOL    HW159419   3.815   7.732   6.156 -0.5075  0.1882  0.5738
19326SOL    HW259420   3.735   7.676   6.039 -0.1862  2.9112 -1.0371
19327SOL     OW59421   0.916   1.254  11.847 -0.0654 -0.5059 -0.1789
19327SOL    HW159422   0.973   1.227  11.919 -0.1537 -0.5061 -0.1100
19327SOL    HW259423   0.941   1.346  11.831  0.8162 -0.8613 -0.9593
19328SOL     OW59424   2.331   3.629   5.952  0.2245 -0.3041  0.0242
19328SOL    HW159425   2.298   3.700   5.897 -1.5824 -0.3780  0.9606
19328SOL    HW259426   2.329   3.551   5.896 -0.3023 -0.1171 -0.2170
19329SOL     OW59427   0.941   4.149   4.760 -0.4478  0.3005  0.3252
19329SOL    HW159428   0.971   4.240   4.759 -1.1487  0.5459 -1.0066
19329SOL    HW259429   1.012   4.100   4.717 -0.0545  0.1968  1.0746
19330SOL     OW59430   2.374   3.149   7.138 -0.0475  0.5921  0.4206
19330SOL    HW159431   2.455   3.200   7.127  0.8117 -0.8756 -0.3737
19330SOL    HW259432   2.358   3.151   7.233  0.7034  1.2334  0.5477
19331SOL     OW59433   7.718   3.240   9.952  0.3926 -0.1594 -0.0002
19331SOL    HW159434   7.777   3.227   9.877  0.6234 -2.2228  0.4832
19331SOL    HW259435   7.776   3.252  10.027  0.2185 -1.1269  0.3055
19332SOL     OW59436   2.478   0.196   6.242 -0.1433  0.1734 -0.1574
19332SOL    HW159437   2.480   0.192   6.146  1.2724 -0.3126 -0.1219
19332SOL    HW259438   2.569   0.185   6.269 -0.5774 -0.1517  1.2672
19333SOL     OW59439   2.055   2.225   7.375  0.3331 -0.1993  0.3452
19333SOL    HW159440   2.055   2.284   7.299  1.1748 -1.5031 -0.7188
19333SOL    HW259441   2.112   2.153   7.349  1.0107 -0.4731  2.4093
19334SOL     OW59442   3.937   2.588   0.134  0.2001  0.5308 -0.5597
19334SOL    HW159443   3.883   2.510   0.148  1.4517 -0.3233 -0.2941
19334SOL    HW259444   3.951   2.623   0.221 -0.8370  1.4224 -0.7258
19335SOL     OW59445   0.273   1.976  11.226  0.1649  0.7182 -0.0672
19335SOL    HW159446   0.318   1.893  11.208  1.5600  1.0935  1.4681
19335SOL    HW259447   0.213   1.955  11.297 -0.8002  0.6387 -0.8901
19336SOL     OW59448   7.640   4.432   7.139  0.5579  0.2709 -0.3153
19336SOL    HW159449   7.656   4.415   7.046  1.5166  0.4319 -0.1865
19336SOL    HW259450   7.706   4.380   7.184  0.8631  1.1097  0.2304
19337SOL     OW59451   2.529   0.617  10.903 -0.8402 -0.4733 -0.1806
19337SOL    HW159452   2.459   0.668  10.863 -0.9418  0.2346  0.8586
19337SOL    HW259453   2.531   0.535  10.853 -1.3274  0.1409 -1.2449
19338SOL     OW59454   7.067   0.205   6.383 -0.4648  0.8483 -0.2707
19338SOL    HW159455   7.017   0.256   6.446  0.9156  1.5630  0.2971
19338SOL    HW259456   7.119   0.270   6.335 -0.8708  0.2411 -1.5941
19339SOL     OW59457   4.228   0.685   2.101  0.3008 -0.0821 -0.7386
19339SOL    HW159458   4.168   0.758   2.086  0.4202  0.6068  1.6907
19339SOL    HW259459   4.299   0.699   2.039 -1.2646 -0.0758 -2.6291
19340SOL     OW59460   1.393   0.703  11.904 -0.2780 -0.2539 -0.1963
19340SOL    HW159461   1.442   0.685  11.824 -0.0456 -0.9254  0.0845
19340SOL    HW259462   1.461   0.724  11.969 -0.5335  1.4178 -0.4493
19341SOL     OW59463   1.196   6.634   0.215 -0.0060  0.1120 -0.2220
19341SOL    HW159464   1.289   6.644   0.194 -0.4286  0.8276 -1.9704
19341SOL    HW259465   1.163   6.573   0.149 -0.6539 -0.7103  0.8295
19342SOL     OW59466   4.662   7.459   2.207 -0.0226 -0.4951 -0.2226
19342SOL    HW159467   4.694   7.410   2.131 -1.1326  0.1322 -1.1236
19342SOL    HW259468   4.714   7.540   2.206  0.6126 -0.8813  0.2604
19343SOL     OW59469   1.020   4.040  11.486  0.0226  0.8258 -0.2619
19343SOL    HW159470   0.990   3.959  11.446 -2.0668  1.4956 -0.1964
19343SOL    HW259471   0.951   4.062  11.549  1.1306  2.0428  0.5932
19344SOL     OW59472   6.486   4.538   0.331  0.1204 -0.0768 -0.5840
19344SOL    HW159473   6.393   4.556   0.346  0.6266  0.2889  3.0202
19344SOL    HW259474   6.495   4.444   0.349  0.6261  0.1330  0.2685
19345SOL     OW59475   1.106   3.432   1.470 -0.5815 -0.0389  0.0547
19345SOL    HW159476   1.114   3.394   1.383 -1.3948  0.6054 -0.3236
19345SOL    HW259477   1.041   3.502   1.459 -1.2713 -0.4534  1.3433
19346SOL     OW59478   7.049   5.955  11.707 -0.0112 -0.7324 -0.3072
19346SOL    HW159479   7.003   5.877  11.737 -0.7243 -0.0111  0.5278
19346SOL    HW259480   7.066   6.005  11.787  1.0355 -0.3365 -0.7565
19347SOL     OW59481   0.484   2.479   3.980  0.5787  0.0162  0.1846
19347SOL    HW159482   0.408   2.425   3.958  0.4815  0.1492  0.1945
19347SOL    HW259483   0.551   2.454   3.917  0.8048 -0.7130  0.6959
19348SOL     OW59484   3.326   0.219   5.125  0.1223  0.1283 -0.2198
19348SOL    HW159485   3.364   0.250   5.207  1.9289 -0.8341 -0.6423
19348SOL    HW259486   3.401   0.204   5.067 -0.7666 -2.7447 -0.8144
19349SOL     OW59487   3.231   6.734  10.275 -0.3301 -0.4199 -0.5235
19349SOL    HW159488   3.157   6.779  10.316  0.5416  1.4831 -0.9321
19349SOL    HW259489   3.296   6.726  10.345  0.0511  0.2216 -0.8017
19350SOL     OW59490   5.389   5.883   5.621 -0.7158  0.8540  0.3656
19350SOL    HW159491   5.337   5.820   5.671 -0.8233  0.4136 -0.2885
19350SOL    HW259492   5.330   5.958   5.609 -0.3928  1.3357  1.6400
19351SOL     OW59493   1.984   3.583   9.895  0.1218 -0.0747 -0.0256
19351SOL    HW159494   2.036   3.633   9.832 -0.3671 -1.0243 -1.2140
19351SOL    HW259495   1.970   3.498   9.854  0.6804 -1.1328  1.8318
19352SOL     OW59496   5.850   3.523   3.265  0.0679  0.2923  0.1078
19352SOL    HW159497   5.872   3.430   3.256  0.3097  0.3628 -0.0118
19352SOL    HW259498   5.771   3.523   3.319 -0.3548 -0.0262 -0.5025
19353SOL     OW59499   5.710   2.190   5.515  0.2145 -0.0228  0.0123
19353SOL    HW159500   5.668   2.276   5.510  0.4604  0.1232  0.3155
19353SOL    HW259501   5.801   2.207   5.489  0.6545  0.1206  1.5112
19354SOL     OW59502   0.018   4.768   5.486  0.5251  0.0494 -0.2298
19354SOL    HW159503   0.085   4.737   5.547 -0.1370 -0.2889  0.3382
19354SOL    HW259504  -0.052   4.801   5.541  1.1277  2.5019 -0.8185
19355SOL     OW59505   6.055   3.665   3.169 -0.4448  0.5459 -0.0134
19355SOL    HW159506   6.041   3.751   3.208  0.3532  0.2601  0.9406
19355SOL    HW259507   5.985   3.610   3.205 -1.5749  1.0005 -1.4008
19356SOL     OW59508   3.293   0.058   7.457 -0.0846  0.2771 -0.4842
19356SOL    HW159509   3.305   0.042   7.364  0.3268  0.3565 -0.4481
19356SOL    HW259510   3.327  -0.020   7.500  1.0750  0.8316 -0.3470
19357SOL     OW59511   0.732   1.379   7.057 -0.4142 -0.0131  0.0906
19357SOL    HW159512   0.721   1.284   7.053 -0.0075 -0.1770  1.9683
19357SOL    HW259513   0.650   1.411   7.096  0.2369  0.1609  1.3853
19358SOL     OW59514   3.599   3.496   2.246 -0.1072 -0.2762 -0.1584
19358SOL    HW159515   3.671   3.481   2.185 -0.9600 -0.5372 -1.1147
19358SOL    HW259516   3.582   3.410   2.285  0.6937 -0.0376  0.7730
19359SOL     OW59517   6.425   2.308   6.415  0.2440  0.2275  0.3051
19359SOL    HW159518   6.421   2.270   6.502  1.7525 -2.6107 -0.7357
19359SOL    HW259519   6.483   2.384   6.424 -1.4572  1.3952  2.1398
19360SOL     OW59520   1.368   4.801   5.667  0.2047  0.2050  0.2899
19360SOL    HW159521   1.344   4.835   5.754 -2.4652 -1.1504  0.1872
19360SOL    HW259522   1.384   4.708   5.681  1.4379  0.2948 -0.4161
19361SOL     OW59523   4.766   3.427   0.834 -0.1151 -0.0569  0.1135
19361SOL    HW159524   4.836   3.364   0.849  0.2208  0.8068  2.5698
19361SOL    HW259525   4.802   3.489   0.771  1.2761  0.2366  1.1583
19362SOL     OW59526   4.206   3.560   0.749 -0.1828  0.3975 -0.3609
19362SOL    HW159527   4.275   3.501   0.779 -0.4902 -0.1482 -0.7095
19362SOL    HW259528   4.165   3.514   0.676 -1.1976  0.5126  0.1139
19363SOL     OW59529   3.458   5.659   7.730 -0.7335 -0.0223  0.2780
19363SOL    HW159530   3.409   5.592   7.681 -1.7133  1.2747 -0.5923
19363SOL    HW259531   3.534   5.677   7.675  0.5641 -1.7433  1.4322
19364SOL     OW59532   2.899   2.645  10.033 -0.4544  0.2499  0.5150
19364SOL    HW159533   2.878   2.620   9.943 -0.8600  1.2738  0.3149
19364SOL    HW259534   2.979   2.697  10.026  0.7094 -1.3876  0.9943
19365SOL     OW59535   2.801   6.327  11.958 -0.4588  0.1183 -0.0558
19365SOL    HW159536   2.778   6.241  11.922  0.8635  0.1619 -1.0692
19365SOL    HW259537   2.780   6.389  11.888  2.0079  0.2146 -0.8032
19366SOL     OW59538   5.211   1.657   3.289  0.3361  0.4114  0.3830
19366SOL    HW159539   5.293   1.632   3.332  0.2311 -1.9499 -0.6139
19366SOL    HW259540   5.186   1.580   3.238 -1.6974  1.6255 -0.6100
19367SOL     OW59541   3.752   5.173   6.315 -0.1520  0.2489  0.0270
19367SOL    HW159542   3.841   5.174   6.352 -0.5545 -1.7000  1.2260
19367SOL    HW259543   3.763   5.140   6.226  0.3284 -0.0465  0.1913
19368SOL     OW59544   5.016   0.052  11.680 -0.4442  0.2134  0.4569
19368SOL    HW159545   5.003   0.050  11.775 -0.1034 -1.5188  0.4950
19368SOL    HW259546   5.108   0.027  11.668 -1.4584 -3.8493 -0.4146
19369SOL     OW59547   7.711   7.603   3.143 -0.7612  0.1134 -1.1921
19369SOL    HW159548   7.740   7.607   3.052 -0.7507  1.6179 -1.1457
19369SOL    HW259549   7.636   7.662   3.148 -0.1627  0.8290 -0.0303
19370SOL     OW59550   3.333   0.712   0.160  0.4346  0.3209  0.2851
19370SOL    HW159551   3.409   0.675   0.115  0.2408 -0.1292  0.3261
19370SOL    HW259552   3.364   0.797   0.191  0.3739  0.9510 -1.2814
19371SOL     OW59553   1.581   0.654  11.389  0.2170 -0.0172  0.2955
19371SOL    HW159554   1.599   0.560  11.386 -0.8476 -0.2213 -0.4607
19371SOL    HW259555   1.506   0.662  11.447  0.7044  0.4443  0.8690
19372SOL     OW59556   1.867   0.815   5.306 -0.5880  0.1592 -0.9028
19372SOL    HW159557   1.876   0.811   5.211  1.1470  0.5490 -0.7955
19372SOL    HW259558   1.937   0.874   5.334 -1.5808  0.6954  0.5549
19373SOL     OW59559   1.446   2.750   6.933  0.5741 -0.2435  0.1437
19373SOL    HW159560   1.385   2.719   6.866  1.3319  1.6946 -1.5372
19373SOL    HW259561   1.405   2.726   7.016 -1.5767 -0.6054 -0.9587
19374SOL     OW59562   5.715   5.679   0.762 -0.4358  0.2800  0.0394
19374SOL    HW159563   5.658   5.682   0.838 -0.4993  0.3598 -0.0103
19374SOL    HW259564   5.772   5.755   0.772 -3.3587  3.0381 -2.2479
19375SOL     OW59565   1.492   0.997   0.868  0.1106  0.0879 -0.7526
19375SOL    HW159566   1.504   1.013   0.774 -2.3284  0.7145 -1.0259
19375SOL    HW259567   1.504   1.083   0.909 -0.3564  0.1140 -0.6718
19376SOL     OW59568   7.214   3.178   5.477  0.3183 -0.5625  0.1231
19376SOL    HW159569   7.305   3.156   5.457 -0.3878 -1.6433 -2.3283
19376SOL    HW259570   7.189   3.114   5.544  1.7580  0.7970  2.0675
19377SOL     OW59571   4.690   1.882   6.708  0.7106 -0.2013  0.2509
19377SOL    HW159572   4.777   1.906   6.676  0.5937  0.8331  0.6797
19377SOL    HW259573   4.674   1.942   6.781 -0.2139 -0.6220  0.4045
19378SOL     OW59574   1.969   0.835   9.685 -0.3731 -0.0497  0.3186
19378SOL    HW159575   1.924   0.752   9.699 -0.5239  0.1614  1.1331
19378SOL    HW259576   1.902   0.891   9.643 -0.2372 -0.3610 -0.3299
19379SOL     OW59577   6.823   4.791   9.695 -0.1872  0.0145  0.1655
19379SOL    HW159578   6.899   4.805   9.751  0.9434  0.6244 -1.4563
19379SOL    HW259579   6.778   4.716   9.734  0.6667  0.2828  1.7378
19380SOL     OW59580   7.589   1.719   5.565 -0.5243 -0.0586  0.2235
19380SOL    HW159581   7.513   1.662   5.555  0.2642 -1.1129  0.1520
19380SOL    HW259582   7.591   1.771   5.485  0.1773 -1.6975 -0.8664
19381SOL     OW59583   6.505   6.167   2.756 -0.7826  0.0343  0.6182
19381SOL    HW159584   6.423   6.133   2.791 -1.1837 -0.5754 -0.7986
19381SOL    HW259585   6.517   6.118   2.674  0.0687  1.4007 -0.1005
19382SOL     OW59586   7.169   4.032  10.310 -0.0088  0.0794 -0.1273
19382SOL    HW159587   7.220   3.967  10.261  1.4626  1.3487 -0.3642
19382SOL    HW259588   7.147   4.099  10.245 -0.8383  0.2155  0.2782
19383SOL     OW59589   5.464   2.366  10.655 -0.1223  0.3089  0.0779
19383SOL    HW159590   5.419   2.386  10.573  0.2492 -2.0012 -0.7771
19383SOL    HW259591   5.395   2.332  10.712 -0.0229 -0.1610 -0.0764
19384SOL     OW59592   2.026   5.585   0.984  0.5016  0.2140 -0.4974
19384SOL    HW159593   2.019   5.527   0.908  0.5973 -0.8152  0.2576
19384SOL    HW259594   1.960   5.653   0.969  0.5898  0.0755 -1.5425
19385SOL     OW59595   7.420   1.988   8.494 -0.3238 -0.2245 -0.3589
19385SOL    HW159596   7.327   2.006   8.507 -0.7318 -2.3387  0.0339
19385SOL    HW259597   7.422   1.911   8.437  1.1662 -0.5046  0.0258
19386SOL     OW59598   0.939   5.536   9.852  0.5818 -0.9393  0.2190
19386SOL    HW159599   0.915   5.498   9.937  1.1323 -1.9258 -0.0601
19386SOL    HW259600   0.882   5.491   9.789  0.2697 -0.3061  0.0351
19387SOL     OW59601   2.892   6.404  10.257 -0.0521 -0.4405  0.6294
19387SOL    HW159602   2.839   6.358  10.322 -0.1844  0.5512  1.2619
19387SOL    HW259603   2.906   6.341  10.187 -1.3623 -0.9851  0.8408
19388SOL     OW59604   5.532   3.803   0.133  0.1184  0.2333  0.8595
19388SOL    HW159605   5.619   3.803   0.171  1.0845  0.2095 -1.2343
19388SOL    HW259606   5.541   3.852   0.051 -2.0698  1.1418  1.0921
19389SOL     OW59607   4.621   0.862   2.430  0.0856 -0.0462 -0.0326
19389SOL    HW159608   4.561   0.866   2.505 -0.0213  0.8564 -0.1543
19389SOL    HW259609   4.616   0.772   2.400 -2.1093  0.2488 -0.7576
19390SOL     OW59610   1.582   3.500   2.834  0.0637  0.0705  0.1662
19390SOL    HW159611   1.597   3.505   2.740  3.0240 -2.2502  0.3725
19390SOL    HW259612   1.636   3.570   2.870  0.7710 -0.5006  0.2349
19391SOL     OW59613   0.363   1.882   2.304  0.6693  0.0091  0.2066
19391SOL    HW159614   0.339   1.864   2.395  1.9230 -1.8192  0.2254
19391SOL    HW259615   0.292   1.938   2.272 -1.1228 -1.3248  1.5755
19392SOL     OW59616   5.998   7.078   8.063  0.0516 -0.1219 -0.2583
19392SOL    HW159617   5.920   7.060   8.116  0.3705  2.9758  1.4770
19392SOL    HW259618   6.071   7.072   8.125  0.8886 -0.1921 -1.2197
19393SOL     OW59619   5.399   6.045   4.459  0.1425 -0.3540 -0.4986
19393SOL    HW159620   5.313   6.077   4.484  0.7931  0.9799  0.1356
19393SOL    HW259621   5.404   6.061   4.365 -0.1622 -0.1128 -0.4732
19394SOL     OW59622   0.657   0.451  10.750 -0.2290 -0.3808  0.6815
19394SOL    HW159623   0.674   0.387  10.681  0.8667  0.0704  0.5057
19394SOL    HW259624   0.678   0.536  10.711 -0.3168 -0.0494  1.3326
19395SOL     OW59625   2.670   2.320   3.259  0.0548  0.2195  0.2313
19395SOL    HW159626   2.614   2.386   3.301  0.1282  1.5449 -1.6357
19395SOL    HW259627   2.628   2.305   3.174  1.4797 -0.2046 -0.4130
19396SOL     OW59628   2.489   7.726   2.536 -0.5560 -0.0725 -0.1945
19396SOL    HW159629   2.481   7.819   2.514  0.5629  0.0034 -0.3667
19396SOL    HW259630   2.549   7.725   2.611  0.0868 -0.6992 -0.7080
19397SOL     OW59631   6.940   7.064   9.548  0.3603 -0.2349  0.2137
19397SOL    HW159632   6.904   7.008   9.479  1.2663  1.0071 -1.3331
19397SOL    HW259633   6.878   7.054   9.621 -0.0344 -2.4363 -0.3314
19398SOL     OW59634   0.443   2.361   7.903  0.1128 -0.5167  0.2736
19398SOL    HW159635   0.379   2.427   7.874  1.9244  0.5785 -1.5118
19398SOL    HW259636   0.514   2.412   7.942  1.2483 -1.4293 -0.5266
19399SOL     OW59637   5.194   0.837  11.039 -0.0174  0.7338  0.0954
19399SOL    HW159638   5.206   0.905  11.105 -0.2539 -0.6905  1.6796
19399SOL    HW259639   5.282   0.818  11.007 -0.0231  2.3493 -1.0419
19400SOL     OW59640   2.352   6.304   6.890  0.0683 -0.5285  0.5295
19400SOL    HW159641   2.271   6.256   6.872 -0.5921  0.8862 -0.4441
19400SOL    HW259642   2.328   6.396   6.881  1.7657 -0.0676  0.3080
19401SOL     OW59643   6.028   3.467  12.213 -0.4456  0.8034  0.0103
19401SOL    HW159644   5.969   3.538  12.188  0.3762  1.2108 -0.8405
19401SOL    HW259645   6.047   3.421  12.131 -0.7844 -0.2678  0.5151
19402SOL     OW59646   5.986   3.070   5.572  0.2589  0.1782 -0.0151
19402SOL    HW159647   6.078   3.098   5.567  0.6384 -0.6945  1.4432
19402SOL    HW259648   5.944   3.137   5.625  0.5600 -0.5195  1.1463
19403SOL     OW59649   0.783   4.510   9.638 -0.0731  0.2643  0.7166
19403SOL    HW159650   0.796   4.416   9.646 -1.1360  0.1072  0.8088
19403SOL    HW259651   0.819   4.532   9.553  1.2324 -0.0161  1.1813
19404SOL     OW59652   0.812   0.225   6.750  0.0398  0.3934 -0.2451
19404SOL    HW159653   0.842   0.137   6.774  1.9995  0.8696 -0.7490
19404SOL    HW259654   0.717   0.219   6.753  0.1171 -1.7014 -0.0818
19405SOL     OW59655   3.864   1.274   4.635  0.6088  0.4237 -0.5550
19405SOL    HW159656   3.802   1.317   4.695  0.1191 -1.1131  0.0954
19405SOL    HW259657   3.861   1.327   4.556 -0.4130  1.2445 -0.0023
19406SOL     OW59658   2.958   5.963   3.693 -0.0185 -0.0822 -0.4205
19406SOL    HW159659   2.926   5.949   3.782  0.1424  3.0766  0.2436
19406SOL    HW259660   2.883   5.941   3.637 -1.0964  0.5871  0.6999
19407SOL     OW59661   6.175   1.670   0.873  0.6132 -0.5078 -0.1383
19407SOL    HW159662   6.084   1.641   0.867  0.5109 -0.1516 -0.3069
19407SOL    HW259663   6.178   1.751   0.823  1.2485 -1.0421 -1.0054
19408SOL     OW59664   6.812   7.564   9.780 -0.1486 -0.2383 -0.5960
19408SOL    HW159665   6.763   7.486   9.805  0.1451  0.0710  1.0661
19408SOL    HW259666   6.903   7.541   9.795 -0.0865  0.5592  0.4060
19409SOL     OW59667   1.203   6.149  10.680  0.5030  0.0063  0.2991
19409SOL    HW159668   1.184   6.063  10.644  1.0905 -1.1064  2.5135
19409SOL    HW259669   1.121   6.198  10.669  0.1462 -0.8111 -0.9358
19410SOL     OW59670   6.600   2.713   9.052 -0.0953  0.0927  0.3090
19410SOL    HW159671   6.676   2.742   9.102  0.5172 -0.8155 -0.0706
19410SOL    HW259672   6.628   2.632   9.010 -1.2547 -0.2309  0.1153
19411SOL     OW59673   0.613   4.040   0.277  0.3489 -0.0334  0.0780
19411SOL    HW159674   0.675   4.086   0.221  0.7736 -0.7096 -0.0275
19411SOL    HW259675   0.548   4.106   0.302  0.3766  0.3607 -0.8832
19412SOL     OW59676   1.246   3.666   8.011  0.0143  0.3142 -0.1251
19412SOL    HW159677   1.196   3.728   8.064  0.2244 -1.0326  1.7574
19412SOL    HW259678   1.315   3.719   7.970 -0.6168  1.5342  0.3441
19413SOL     OW59679   2.343   2.611  10.350 -0.4238 -0.4927  0.4837
19413SOL    HW159680   2.437   2.616  10.370 -0.2476  0.1604 -0.4334
19413SOL    HW259681   2.340   2.587  10.257 -1.1748 -0.8765  0.6029
19414SOL     OW59682   7.375   6.167   7.812  0.0087  0.3062  0.0677
19414SOL    HW159683   7.459   6.179   7.766 -0.4048  0.0925 -0.7645
19414SOL    HW259684   7.355   6.253   7.849 -0.2644  0.8203 -1.2321
19415SOL     OW59685   4.202   5.816   9.958 -0.1807  0.3262 -0.2725
19415SOL    HW159686   4.160   5.730   9.958 -1.7451  1.0473 -0.9778
19415SOL    HW259687   4.274   5.808   9.894 -1.1789 -0.0898 -1.3839
19416SOL     OW59688   5.745   3.028   0.885 -0.2491  0.8481  0.2835
19416SOL    HW159689   5.708   3.113   0.862  1.3435  1.6767  0.7030
19416SOL    HW259690   5.812   3.012   0.818 -0.7574 -0.2465  0.0136
19417SOL     OW59691   3.829   0.803   8.008  0.4921 -0.0303 -0.2359
19417SOL    HW159692   3.916   0.763   7.999  0.4147 -0.1087 -0.6661
19417SOL    HW259693   3.773   0.753   7.949  0.1432  0.0027  0.0598
19418SOL     OW59694   6.701   0.075   6.662  0.1518  0.0224 -0.1851
19418SOL    HW159695   6.628   0.047   6.717  0.8197  1.0845  1.3250
19418SOL    HW259696   6.718   0.001   6.605 -0.2069 -1.3859  1.4522
19419SOL     OW59697   3.578   3.844   9.969  0.1685 -0.4867 -0.0164
19419SOL    HW159698   3.558   3.777  10.034  0.9808 -0.1286  0.6216
19419SOL    HW259699   3.497   3.896   9.963 -0.2684 -1.1663 -0.0911
19420SOL     OW59700   1.939   3.104   6.778 -0.3840  0.7473 -0.6405
19420SOL    HW159701   1.884   3.043   6.729 -0.5718 -0.3429  0.8727
19420SOL    HW259702   1.878   3.159   6.827 -0.2492  2.6759 -2.4686
19421SOL     OW59703   0.658   3.260  10.721  0.1790 -0.5656  0.1672
19421SOL    HW159704   0.736   3.223  10.681 -0.2674 -1.4805  0.1125
19421SOL    HW259705   0.631   3.330  10.662  1.2391  0.1004  0.4568
19422SOL     OW59706   2.136   0.682   5.179 -0.2395 -0.5848 -0.0033
19422SOL    HW159707   2.087   0.764   5.186  0.9355  0.0723  0.9173
19422SOL    HW259708   2.227   0.710   5.167  0.6555 -1.6487  3.2287
19423SOL     OW59709   4.773   5.756  10.374 -1.0002  0.1298 -0.1336
19423SOL    HW159710   4.725   5.757  10.457  0.3431 -1.6608  0.7162
19423SOL    HW259711   4.772   5.664  10.347 -0.9337  0.5970 -1.8471
19424SOL     OW59712   1.082   5.558   5.530 -0.0436 -0.3670  0.2921
19424SOL    HW159713   1.045   5.557   5.442 -0.4782 -0.7011  0.4800
19424SOL    HW259714   1.025   5.502   5.581  0.0923 -0.0096  0.8399
19425SOL     OW59715   6.186   3.345   8.347 -0.1361  0.0633  0.6100
19425SOL    HW159716   6.177   3.406   8.274  0.9810 -0.3493  0.1063
19425SOL    HW259717   6.205   3.401   8.423  0.0087  0.4050  0.3234
19426SOL     OW59718   2.095   3.687   4.970 -0.3944  0.0198  0.4636
19426SOL    HW159719   2.102   3.681   5.065  0.9529 -1.3397  0.3130
19426SOL    HW259720   2.051   3.605   4.945 -0.8070  0.4036 -0.0801
19427SOL     OW59721   5.325   7.723   7.835 -0.0645 -0.5857 -0.0007
19427SOL    HW159722   5.395   7.758   7.780  1.5434 -1.0445  1.6441
19427SOL    HW259723   5.270   7.672   7.775  1.3632 -0.7111 -1.2499
19428SOL     OW59724   1.265   6.452  12.138 -0.4819 -0.2347 -0.3114
19428SOL    HW159725   1.219   6.532  12.111  1.2930  1.5026  1.4720
19428SOL    HW259726   1.356   6.479  12.147  0.0325 -2.2581  1.1979
19429SOL     OW59727   1.256   4.315   9.955 -0.7515  0.4234  0.2633
19429SOL    HW159728   1.222   4.386  10.010 -1.0989  0.6601 -0.2486
19429SOL    HW259729   1.349   4.309   9.978 -1.1039 -0.2184  1.6726
19430SOL     OW59730   1.615   0.879   3.410  0.5498  0.4372  0.4329
19430SOL    HW159731   1.645   0.789   3.397 -0.8216  0.3027 -2.7514
19430SOL    HW259732   1.674   0.932   3.356 -0.2088  1.1001  0.2308
19431SOL     OW59733   6.092   5.651   0.260 -0.0051  0.2985  0.3906
19431SOL    HW159734   6.002   5.619   0.270  0.2133 -1.0599 -1.4570
19431SOL    HW259735   6.088   5.742   0.289 -2.2526  0.6113 -0.6337
19432SOL     OW59736   6.156   4.549  11.313  0.1530  0.3707 -0.6701
19432SOL    HW159737   6.068   4.578  11.293  0.6784 -0.1022 -4.2532
19432SOL    HW259738   6.213   4.621  11.286  0.9934 -0.4947 -1.2780
19433SOL     OW59739   6.156   3.987   0.095  0.0378  0.5079  0.1458
19433SOL    HW159740   6.125   3.904   0.059  1.0649  0.4085 -0.5566
19433SOL    HW259741   6.121   3.990   0.184  0.8849 -1.1912  0.5677
19434SOL     OW59742   6.469   3.816   1.426  0.6437  0.0316  0.3462
19434SOL    HW159743   6.527   3.805   1.351  0.1992 -1.0492  0.1355
19434SOL    HW259744   6.517   3.781   1.500 -0.1978 -2.1765 -0.0637
19435SOL     OW59745   7.129   6.683   4.367  0.3958  0.2062  0.0593
19435SOL    HW159746   7.173   6.599   4.360  0.8925  0.3794  0.9852
19435SOL    HW259747   7.118   6.712   4.276 -1.3999 -1.6509 -0.3870
19436SOL     OW59748   3.834   1.744  11.228 -0.3175 -0.6144  0.5744
19436SOL    HW159749   3.751   1.773  11.266  0.8343  0.5894  2.3345
19436SOL    HW259750   3.809   1.697  11.149 -2.6382  0.1784  0.7554
19437SOL     OW59751   7.251   6.522   5.958  0.1413 -0.2236  0.0717
19437SOL    HW159752   7.219   6.611   5.964 -1.2567 -0.6096 -1.0498
19437SOL    HW259753   7.172   6.469   5.945  0.9770 -1.5717  0.3187
19438SOL     OW59754   6.225   7.625   4.737 -0.3840 -0.0212  0.3722
19438SOL    HW159755   6.187   7.595   4.820 -0.4421 -0.5656  0.1457
19438SOL    HW259756   6.206   7.556   4.675 -1.6525  1.0388 -0.4648
19439SOL     OW59757   6.961   3.202   4.982  0.0710 -0.3735 -0.3508
19439SOL    HW159758   6.868   3.184   4.973 -0.4489  1.0583  1.4439
19439SOL    HW259759   6.999   3.119   5.013 -1.1267 -0.2406  1.6320
19440SOL     OW59760   0.552   4.544   5.441 -0.0157  0.1908 -0.2986
19440SOL    HW159761   0.595   4.570   5.522  1.4760 -0.8224 -0.7096
19440SOL    HW259762   0.509   4.623   5.410 -0.9150  0.5101  1.6318
19441SOL     OW59763   7.199   3.012   3.478  0.3317 -0.2633 -0.9776
19441SOL    HW159764   7.224   2.978   3.564 -1.2753  0.6068 -0.1104
19441SOL    HW259765   7.133   2.950   3.446 -0.9568  0.7309 -0.3849
19442SOL     OW59766   2.553   4.992   9.413 -0.5920 -0.3888  0.2721
19442SOL    HW159767   2.589   5.019   9.328  0.3250  1.5027  1.1932
19442SOL    HW259768   2.567   4.898   9.416  0.8448 -0.2599 -1.0043
19443SOL     OW59769   7.669   3.924   0.238  0.1223 -0.3142 -0.3923
19443SOL    HW159770   7.763   3.942   0.228 -0.1411  3.1382  1.8054
19443SOL    HW259771   7.663   3.868   0.316  0.3031  2.5091  1.7914
19444SOL     OW59772   5.680   6.913   2.419 -0.2341 -0.1212  0.2235
19444SOL    HW159773   5.638   6.830   2.442 -0.9503 -0.2582 -1.4095
19444SOL    HW259774   5.687   6.911   2.323 -1.4731  2.2503 -0.0022
19445SOL     OW59775   2.182   4.777   8.811  0.1091 -0.7293  0.0382
19445SOL    HW159776   2.224   4.817   8.887  0.6330 -0.7827 -0.2104
19445SOL    HW259777   2.199   4.683   8.821  0.1979 -0.7340 -0.1500
19446SOL     OW59778   6.225   2.861   4.008  0.3600 -0.4291  0.5227
19446SOL    HW159779   6.211   2.772   3.975  2.6929 -0.6738  0.0497
19446SOL    HW259780   6.278   2.904   3.941  2.5372  0.0597  2.4238
19447SOL     OW59781   6.683   7.847   4.774  0.1511  0.0896  0.2286
19447SOL    HW159782   6.708   7.939   4.778  2.5218 -0.4840  0.2321
19447SOL    HW259783   6.698   7.814   4.863 -1.0124 -0.2474  0.3205
19448SOL     OW59784   3.267   0.048   1.770  0.1535  0.2384 -0.0807
19448SOL    HW159785   3.326   0.097   1.827  0.4877 -0.9294  0.6292
19448SOL    HW259786   3.210   0.001   1.831 -1.3772  1.1584 -0.7577
19449SOL     OW59787   3.153   1.886   4.069 -0.2039  0.1630 -0.4863
19449SOL    HW159788   3.062   1.911   4.088  0.3630  1.4029  0.8117
19449SOL    HW259789   3.204   1.962   4.097  1.4070 -1.3921  1.0178
19450SOL     OW59790   4.469   3.979   3.002  0.3927  0.0862  0.2326
19450SOL    HW159791   4.550   3.958   3.049  0.6768 -1.0427 -0.7111
19450SOL    HW259792   4.499   4.003   2.914 -0.1699  1.6266  0.4363
19451SOL     OW59793   5.575   2.864   2.570 -0.5231 -0.4697 -0.0427
19451SOL    HW159794   5.595   2.819   2.652 -0.9128  0.3214  0.5047
19451SOL    HW259795   5.552   2.794   2.509  0.9121 -1.1707  0.1693
19452SOL     OW59796   0.798   6.999   9.432 -0.2843 -0.5014  0.2377
19452SOL    HW159797   0.844   6.915   9.432 -0.6770 -0.7285  1.6609
19452SOL    HW259798   0.868   7.064   9.424  0.1543 -0.8984  0.7821
19453SOL     OW59799   5.530   7.705   4.539 -0.0020 -0.2942  0.5223
19453SOL    HW159800   5.443   7.743   4.551  0.1660  0.2822 -0.0132
19453SOL    HW259801   5.560   7.740   4.455  0.9043 -0.1739  0.8807
19454SOL     OW59802   1.611   3.737  11.854 -0.2441 -0.0944  0.3093
19454SOL    HW159803   1.632   3.669  11.789 -2.2414 -0.5890  0.1101
19454SOL    HW259804   1.545   3.791  11.811 -0.8059  0.2188  1.5283
19455SOL     OW59805   5.432   4.451   5.041  0.0133 -0.1006  0.7371
19455SOL    HW159806   5.435   4.539   5.079 -0.1374 -0.9012  2.7388
19455SOL    HW259807   5.340   4.424   5.050 -0.2917  0.0885 -1.3173
19456SOL     OW59808   3.007   7.136   6.784 -0.5639  0.0695  0.3160
19456SOL    HW159809   3.062   7.198   6.736 -1.3117  0.2720 -0.2947
19456SOL    HW259810   2.942   7.190   6.827  0.2327 -0.0909  1.7833
19457SOL     OW59811   0.405   3.647   0.304 -0.2566 -0.3665 -0.2351
19457SOL    HW159812   0.339   3.715   0.318 -1.3123 -1.1164 -1.3674
19457SOL    HW259813   0.477   3.692   0.261 -0.2553  0.3403  0.4727
19458SOL     OW59814   3.338   2.724  11.596  0.5241  0.6203 -0.5570
19458SOL    HW159815   3.338   2.799  11.536  0.5654  0.8263 -0.3021
19458SOL    HW259816   3.323   2.763  11.682  1.3669  0.4183 -0.3134
19459SOL     OW59817   4.922   3.261   0.217 -0.6013 -0.2363 -0.4026
19459SOL    HW159818   4.987   3.195   0.193 -0.0960  0.5442 -1.2162
19459SOL    HW259819   4.971   3.329   0.263 -1.1951 -0.6157  0.8662
19460SOL     OW59820   6.714   0.101   3.773  0.1806  0.1059 -0.0186
19460SOL    HW159821   6.627   0.066   3.755  0.2102 -0.5947  1.1199
19460SOL    HW259822   6.774   0.040   3.728  0.1427 -0.2553  0.4124
19461SOL     OW59823   3.221   4.494   2.217 -0.2428 -0.2308  0.0556
19461SOL    HW159824   3.315   4.507   2.202 -0.2851  0.0522  0.0241
19461SOL    HW259825   3.195   4.431   2.149  0.1681 -1.2939  0.8473
19462SOL     OW59826   2.401   1.216   9.046 -0.1350 -0.1373  0.4948
19462SOL    HW159827   2.438   1.128   9.049 -0.6202 -0.4101 -0.8690
19462SOL    HW259828   2.477   1.275   9.048  0.2346 -0.6112  0.3897
19463SOL     OW59829   5.108   1.263   7.933  0.2737 -0.3476 -0.0297
19463SOL    HW159830   5.128   1.270   8.026  2.8626 -0.0069 -0.5175
19463SOL    HW259831   5.120   1.171   7.912  0.9363 -0.2258 -0.2273
19464SOL     OW59832   4.406   7.060   4.382 -0.1690 -0.8559  0.1853
19464SOL    HW159833   4.496   7.029   4.382  0.2698  0.3519 -0.6171
19464SOL    HW259834   4.412   7.153   4.403 -1.1877 -0.6585 -0.2826
19465SOL     OW59835   4.210   4.263   1.881  0.2592 -0.1485  0.1980
19465SOL    HW159836   4.213   4.278   1.786 -0.8815  1.2747  0.3451
19465SOL    HW259837   4.268   4.329   1.918 -0.0726 -0.0517  0.5490
19466SOL     OW59838   6.256   0.697   4.995  0.1999  0.1269  0.4545
19466SOL    HW159839   6.215   0.777   5.027  0.2727 -0.3268  1.7453
19466SOL    HW259840   6.285   0.651   5.074  0.0100 -1.2619 -0.2408
19467SOL     OW59841   2.659   2.223   0.412  0.2324  0.1582  0.0765
19467SOL    HW159842   2.628   2.141   0.452 -0.8988  0.8638  0.7129
19467SOL    HW259843   2.741   2.199   0.370  1.2331 -0.7642  2.3950
19468SOL     OW59844   3.050   2.371  10.628  0.1040 -0.7065 -0.0245
19468SOL    HW159845   3.046   2.391  10.721  0.5973  1.0174 -0.3302
19468SOL    HW259846   2.965   2.399  10.594  0.9535  1.5306 -0.5297
19469SOL     OW59847   3.764   7.660   6.414  0.0550 -0.7613 -0.1329
19469SOL    HW159848   3.719   7.705   6.486  0.2003  1.6475 -1.4212
19469SOL    HW259849   3.707   7.675   6.338  0.8647 -1.5286 -0.9149
19470SOL     OW59850   2.781   4.144   3.922  0.0197 -0.5812 -0.2940
19470SOL    HW159851   2.770   4.155   4.017 -0.3938 -1.0032 -0.2871
19470SOL    HW259852   2.875   4.131   3.910  0.2135  0.5571 -0.0628
19471SOL     OW59853   3.434   5.882   0.185 -0.1539  0.2785  0.0214
19471SOL    HW159854   3.505   5.836   0.230  0.4331  1.6621  0.5574
19471SOL    HW259855   3.388   5.929   0.254 -1.5096 -0.4483 -0.3486
19472SOL     OW59856   4.265   6.068   6.501  0.3294  0.7171  0.0498
19472SOL    HW159857   4.280   6.042   6.410  0.0880 -0.0764  0.2304
19472SOL    HW259858   4.173   6.093   6.504 -0.5569 -2.2595  0.7359
19473SOL     OW59859   6.636   1.900  12.405  0.1025 -0.2253  0.1593
19473SOL    HW159860   6.577   1.832  12.436 -0.5512  0.1559 -0.2151
19473SOL    HW259861   6.578   1.971  12.377  0.7686  0.5129  0.6009
19474SOL     OW59862   6.344   5.922   5.186  1.3735 -0.0810  0.0922
19474SOL    HW159863   6.425   5.971   5.205  1.7096 -0.1690 -1.0225
19474SOL    HW259864   6.366   5.831   5.206  1.1536  0.0549  0.9621
19475SOL     OW59865   2.274   7.152   3.578 -0.0036 -0.0218 -0.3638
19475SOL    HW159866   2.274   7.182   3.669  2.0955  1.6593 -0.8590
19475SOL    HW259867   2.266   7.056   3.585  3.0536 -0.2539  1.7901
19476SOL     OW59868   2.376   1.569   8.020 -0.2638 -0.2290 -0.4281
19476SOL    HW159869   2.280   1.571   8.027 -0.1850 -0.0549  0.8998
19476SOL    HW259870   2.401   1.661   8.024  0.0357 -0.3443  1.0275
19477SOL     OW59871   0.047   4.666   0.156 -0.4043  0.4161  0.4075
19477SOL    HW159872   0.128   4.681   0.107 -1.0077 -0.2546 -0.8363
19477SOL    HW259873   0.045   4.572   0.171 -0.9024  0.4420  0.5124
19478SOL     OW59874   3.527   1.451  10.464  0.1697  0.5758 -0.3464
19478SOL    HW159875   3.546   1.545  10.453  0.4720  0.4335 -1.0811
19478SOL    HW259876   3.432   1.446  10.465  0.1423  0.8203 -1.0317
19479SOL     OW59877   2.869   4.871   4.731  0.5197  0.3441 -0.4558
19479SOL    HW159878   2.883   4.853   4.824  1.8161  0.9852 -0.5024
19479SOL    HW259879   2.948   4.917   4.704 -0.8336  2.3279 -1.3095
19480SOL     OW59880   4.288   7.366   6.489  0.3009 -0.0671 -0.2569
19480SOL    HW159881   4.277   7.306   6.416  2.4646 -1.5727  0.5435
19480SOL    HW259882   4.363   7.332   6.537  1.4516  3.1081  0.4569
19481SOL     OW59883   5.134   3.845  10.178 -0.1455  0.2589 -0.3787
19481SOL    HW159884   5.127   3.902  10.255  1.1461  0.7338 -0.5887
19481SOL    HW259885   5.228   3.837  10.162 -0.3517 -0.7221 -1.2682
19482SOL     OW59886   5.639   5.381   9.115 -0.0861 -0.1484  0.4245
19482SOL    HW159887   5.594   5.350   9.194 -2.4270  1.1425 -0.3144
19482SOL    HW259888   5.723   5.414   9.147  0.3247 -2.4113  1.9103
19483SOL     OW59889   1.129   1.865   2.992 -0.1940  0.4719  0.2659
19483SOL    HW159890   1.064   1.826   3.052 -1.3737  0.7751 -0.7721
19483SOL    HW259891   1.077   1.898   2.919  1.2667 -0.3560 -1.1980
19484SOL     OW59892   7.978   5.353   3.915 -0.5913 -0.3787  0.1493
19484SOL    HW159893   7.935   5.267   3.921  1.2220 -1.2642  1.2984
19484SOL    HW259894   8.071   5.332   3.905 -0.3681  1.4469 -2.7828
19485SOL     OW59895   0.050   5.948   4.190  0.2491  0.0021 -0.5769
19485SOL    HW159896   0.058   5.985   4.102  0.1712  0.1897 -0.5058
19485SOL    HW259897   0.036   6.024   4.246 -0.5493 -0.1825 -0.5078
19486SOL     OW59898   1.630   0.098   7.280  0.1430  0.2097  0.5824
19486SOL    HW159899   1.580   0.017   7.292 -0.7629  0.8645  1.3344
19486SOL    HW259900   1.721   0.070   7.281 -0.1833 -1.0278 -0.9326
19487SOL     OW59901   6.718   2.753   0.822  0.6148 -0.0772 -0.1075
19487SOL    HW159902   6.638   2.750   0.874  0.6473  2.1821  0.1609
19487SOL    HW259903   6.782   2.704   0.873  0.1816  0.6279  1.1425
19488SOL     OW59904   5.723   6.559   9.504 -0.2034 -0.5530 -0.3870
19488SOL    HW159905   5.711   6.466   9.524 -0.4509 -0.0614  2.2186
19488SOL    HW259906   5.643   6.600   9.537  1.5406  0.9738  2.3798
19489SOL     OW59907   4.355   2.074   5.449 -0.1918  0.3074 -0.4240
19489SOL    HW159908   4.434   2.097   5.498 -0.9636 -0.0602  1.0503
19489SOL    HW259909   4.364   2.121   5.366  2.9515 -1.9966 -1.5590
19490SOL     OW59910   3.021   1.021   0.456  0.3880  0.5204 -0.0533
19490SOL    HW159911   3.089   1.088   0.459 -0.1085  1.1749 -2.0559
19490SOL    HW259912   2.988   1.024   0.366 -0.6580 -1.4119  0.2118
19491SOL     OW59913   1.829   1.840   8.305  0.5476  0.4738 -0.3605
19491SOL    HW159914   1.772   1.893   8.250  0.2004  0.1300 -0.3365
19491SOL    HW259915   1.880   1.787   8.244  1.2993  1.2301 -0.4088
19492SOL     OW59916   7.115   0.393   2.213 -0.1277 -0.6817 -0.5573
19492SOL    HW159917   7.094   0.437   2.296 -1.8856 -2.0302 -0.2363
19492SOL    HW259918   7.205   0.418   2.196 -1.0077  3.1971 -0.5024
19493SOL     OW59919   7.358   4.434  10.057 -0.0699 -0.2300  0.1823
19493SOL    HW159920   7.293   4.451  10.124  0.0433  1.0954 -0.0057
19493SOL    HW259921   7.311   4.386   9.989 -0.4981 -0.4654  0.6385
19494SOL     OW59922   5.877   4.074   9.913  0.1915 -0.0186  0.3426
19494SOL    HW159923   5.827   4.151   9.940  2.5899  1.4024  1.0307
19494SOL    HW259924   5.825   3.999   9.946 -2.6456  1.1518 -1.0989
19495SOL     OW59925   6.625   2.405  11.428 -0.3229 -0.0426  0.7205
19495SOL    HW159926   6.664   2.492  11.421  1.3205 -0.8520 -0.9637
19495SOL    HW259927   6.531   2.421  11.428 -0.0579  1.6992 -0.3509
19496SOL     OW59928   3.383   1.962   4.488 -1.0501  0.3623 -0.5565
19496SOL    HW159929   3.409   1.914   4.567  0.8060  0.8231 -0.8436
19496SOL    HW259930   3.346   1.895   4.431  0.2714 -0.5109 -0.4279
19497SOL     OW59931   5.729   3.610   1.411 -0.7119  0.6479  0.5946
19497SOL    HW159932   5.787   3.674   1.369 -0.5984  0.2399  0.1075
19497SOL    HW259933   5.775   3.585   1.491 -0.5631  0.8679  0.5786
19498SOL     OW59934   2.439   7.928   7.836  0.4672  0.3694  0.6213
19498SOL    HW159935   2.418   7.967   7.751 -0.5578 -0.3037  0.5527
19498SOL    HW259936   2.396   7.986   7.900 -0.6483 -0.3517  0.5455
19499SOL     OW59937   0.094   7.983   4.828 -0.4376  0.0273 -0.2078
19499SOL    HW159938   0.031   8.025   4.887 -1.6418 -0.6028 -0.9879
19499SOL    HW259939   0.042   7.959   4.752  0.5578 -1.4348 -0.4619
19500SOL     OW59940   1.564   0.008  11.255 -0.2473 -0.2893 -0.2360
19500SOL    HW159941   1.541   0.086  11.204  0.5172 -0.1380 -0.3621
19500SOL    HW259942   1.520  -0.064  11.209  2.4540 -0.5359 -2.6919
19501SOL     OW59943   3.954   7.202   5.815  0.5629 -0.0658  0.1963
19501SOL    HW159944   3.883   7.140   5.799  0.3159 -0.2020  1.6401
19501SOL    HW259945   4.029   7.166   5.767 -0.2668 -0.0479 -1.1465
19502SOL     OW59946   3.836   5.415   3.295  0.7970  0.6046 -0.0606
19502SOL    HW159947   3.885   5.337   3.321 -0.5938 -0.5887 -0.8037
19502SOL    HW259948   3.853   5.479   3.364  1.2974 -0.6622  1.0350
19503SOL     OW59949   2.551   5.130   1.840 -0.3661  0.3458  0.1459
19503SOL    HW159950   2.498   5.164   1.768  1.5934 -1.3909 -2.2314
19503SOL    HW259951   2.500   5.057   1.874 -0.4736  0.0179 -0.7049
19504SOL     OW59952   7.701   2.765   7.782 -1.1415  0.4850  0.3516
19504SOL    HW159953   7.711   2.832   7.715 -1.1023 -0.6786 -0.8389
19504SOL    HW259954   7.622   2.718   7.758  0.7413 -2.2543 -1.0479
19505SOL     OW59955   4.967   1.511   9.218 -0.6153 -0.1405 -0.1074
19505SOL    HW159956   5.025   1.586   9.219 -0.4299 -0.2002 -2.1428
19505SOL    HW259957   5.019   1.441   9.178 -0.6776 -1.4870  2.0080
19506SOL     OW59958   4.951   2.312  10.102  0.6027 -0.3261 -0.3276
19506SOL    HW159959   4.912   2.397  10.122  1.5722  0.2103 -0.6500
19506SOL    HW259960   4.891   2.274  10.037 -0.0362 -0.0576  0.0943
19507SOL     OW59961   1.160   3.650   5.137  0.3595 -0.3112 -0.1104
19507SOL    HW159962   1.127   3.590   5.203 -0.5491 -0.2510 -0.4986
19507SOL    HW259963   1.090   3.655   5.071  0.0593  1.7760  0.2917
19508SOL     OW59964   5.340   3.614   8.796  0.1156  0.3767 -0.6475
19508SOL    HW159965   5.361   3.586   8.707  0.9207 -0.9399 -0.0881
19508SOL    HW259966   5.247   3.594   8.806  0.0346  0.4767 -1.1745
19509SOL     OW59967   4.016   1.824   9.612 -0.4091 -0.2703  0.3665
19509SOL    HW159968   4.027   1.729   9.601 -0.2685 -0.2559  0.3806
19509SOL    HW259969   3.960   1.833   9.689  0.4894 -0.3167  1.0452
19510SOL     OW59970   6.541   3.300  10.227 -0.2230 -0.3465 -0.2315
19510SOL    HW159971   6.515   3.388  10.201 -0.9086 -0.5894 -0.4145
19510SOL    HW259972   6.527   3.247  10.148  0.7518 -0.5119 -0.3022
19511SOL     OW59973   6.843   5.846   9.867 -0.1109  0.3642  0.4015
19511SOL    HW159974   6.847   5.868   9.774 -1.8370 -0.6150  0.0612
19511SOL    HW259975   6.847   5.930   9.912  0.4433  0.8674 -0.5596
19512SOL     OW59976   1.754   0.681   7.543 -0.2270 -0.9919  0.2945
19512SOL    HW159977   1.663   0.667   7.519 -0.0578 -0.2189 -0.8652
19512SOL    HW259978   1.803   0.665   7.462  0.4894  0.3587  0.4333
19513SOL     OW59979   7.462   7.693  11.782  0.6810  0.0220  0.0117
19513SOL    HW159980   7.544   7.666  11.741  0.1198 -1.9838  0.1096
19513SOL    HW259981   7.488   7.753  11.851  1.9674  0.2606 -0.6485
19514SOL     OW59982   4.025   6.284  10.217 -0.4212 -0.4054 -0.2753
19514SOL    HW159983   4.120   6.287  10.226 -0.5678 -0.1352  1.6642
19514SOL    HW259984   4.006   6.197  10.184  0.4549 -0.7664  0.1636
19515SOL     OW59985   3.262   1.487   4.952  0.5710  0.5386 -0.6385
19515SOL    HW159986   3.250   1.506   5.045 -2.9900  1.5901 -1.1412
19515SOL    HW259987   3.311   1.562   4.918 -1.2706  2.0464 -0.1555
19516SOL     OW59988   3.961   2.211   9.621  0.0711 -0.0148  0.1712
19516SOL    HW159989   3.902   2.286   9.620  1.8714  1.6367  2.9742
19516SOL    HW259990   4.042   2.244   9.583  0.2158 -1.2611 -0.6581
19517SOL     OW59991   0.457   3.545   8.646  0.5047 -0.4633  0.3709
19517SOL    HW159992   0.497   3.493   8.576  1.5794  0.4000  0.3087
19517SOL    HW259993   0.476   3.496   8.726 -1.7135 -2.0510  0.0218
19518SOL     OW59994   1.408   4.504   7.461  0.6748 -0.0933 -0.0105
19518SOL    HW159995   1.456   4.445   7.403 -1.2832 -2.3180  0.4710
19518SOL    HW259996   1.408   4.459   7.546 -0.5141  0.8103  0.4941
19519SOL     OW59997   0.405   1.187   9.836 -0.1200  0.1076  0.1815
19519SOL    HW159998   0.412   1.092   9.838 -0.9311  0.0431  1.9188
19519SOL    HW259999   0.402   1.209   9.743 -1.7991 -1.7272 -0.2693
19520SOL     OW60000   0.065   6.256   0.115  0.0743  0.0111 -0.9878
19520SOL    HW160001   0.142   6.309   0.138  0.6799 -0.1864 -2.4441
19520SOL    HW260002   0.096   6.165   0.124 -0.5195 -0.1014  0.0702
19521SOL     OW60003   2.024   5.570   4.006 -0.5634 -0.1750 -0.2102
19521SOL    HW160004   2.020   5.625   3.927 -1.7802 -1.3026 -0.9833
19521SOL    HW260005   2.109   5.590   4.045  0.5562 -0.3530 -2.3911
19522SOL     OW60006   2.521   1.990  12.390 -0.4727  0.3187  0.1741
19522SOL    HW160007   2.528   2.074  12.344 -0.7162  2.0754  3.0935
19522SOL    HW260008   2.433   1.989  12.426  0.1321 -0.2850  1.7395
19523SOL     OW60009   3.788   5.172   5.285  0.4950  0.1065 -0.1946
19523SOL    HW160010   3.809   5.168   5.191  1.0327  1.1460 -0.1379
19523SOL    HW260011   3.871   5.194   5.327  0.9828 -3.2976  0.9013
19524SOL     OW60012   4.521   7.182  11.117 -1.0380 -0.2915  0.2314
19524SOL    HW160013   4.483   7.096  11.135  0.4707 -1.5367 -2.0615
19524SOL    HW260014   4.451   7.231  11.074 -1.5092 -0.8492  0.3491
19525SOL     OW60015   5.530   0.648   7.708  0.6066  0.0364  0.0323
19525SOL    HW160016   5.620   0.651   7.677  0.0898 -1.1340 -1.7743
19525SOL    HW260017   5.480   0.697   7.642 -0.4598 -2.0841 -0.8611
19526SOL     OW60018   5.341   5.016  10.909 -0.2415  0.2252 -0.2421
19526SOL    HW160019   5.284   5.079  10.951 -0.8735 -0.5262  0.0507
19526SOL    HW260020   5.295   4.933  10.916  1.2968 -0.5933  0.8590
19527SOL     OW60021   6.167   4.341  10.985  0.5811 -0.4156 -0.0118
19527SOL    HW160022   6.124   4.260  11.011 -1.8415  0.0767 -1.9933
19527SOL    HW260023   6.248   4.313  10.942 -0.0703 -1.8035 -0.3941
19528SOL     OW60024   2.558   6.216   1.718  0.1250 -0.8093  0.5325
19528SOL    HW160025   2.471   6.247   1.746 -0.0520 -0.1851 -0.6284
19528SOL    HW260026   2.596   6.178   1.797 -0.4806  0.5445  1.5286
19529SOL     OW60027   2.174   1.327   2.177 -0.0685  0.2744 -0.1145
19529SOL    HW160028   2.223   1.362   2.252 -1.6265 -0.0842  1.1254
19529SOL    HW260029   2.200   1.382   2.104  0.1269  1.8352  1.0796
19530SOL     OW60030   5.782   7.563   6.213 -0.3044 -0.3112  0.4303
19530SOL    HW160031   5.750   7.519   6.291  0.0128  0.8681  1.2537
19530SOL    HW260032   5.704   7.605   6.176 -0.7140 -1.9690 -0.6665
19531SOL     OW60033   3.045   5.156   0.814  0.0438 -0.9342 -0.2492
19531SOL    HW160034   3.106   5.216   0.857  0.2243 -0.1552 -1.5285
19531SOL    HW260035   3.069   5.070   0.847  0.6809 -0.4449  0.5977
19532SOL     OW60036   2.410   1.754   3.402 -0.1770 -0.0359  0.3418
19532SOL    HW160037   2.390   1.676   3.350  0.7808  0.6989 -1.2218
19532SOL    HW260038   2.352   1.821   3.366  0.7205  0.5642 -0.0143
19533SOL     OW60039   5.824   0.149  10.896 -0.0498 -0.4071  0.0891
19533SOL    HW160040   5.832   0.211  10.969 -1.6137  0.2300 -0.2406
19533SOL    HW260041   5.872   0.072  10.924  1.0952  0.5682  0.9377
19534SOL     OW60042   5.150   1.070   0.001  0.2628  0.0046 -0.5261
19534SOL    HW160043   5.068   1.102   0.040  0.7563  1.2139 -0.4349
19534SOL    HW260044   5.148   1.102  -0.089  0.8613  0.4996 -0.3736
19535SOL     OW60045   5.404   1.044   8.217  0.1636 -0.2769  0.3041
19535SOL    HW160046   5.323   1.021   8.262  1.0297  0.8526  2.6030
19535SOL    HW260047   5.471   0.989   8.259  0.5455 -1.7831 -2.1100
19536SOL     OW60048   0.182   6.006   5.994 -0.2838 -0.3507 -0.8821
19536SOL    HW160049   0.173   6.100   6.009 -0.9705 -0.5412 -0.0261
19536SOL    HW260050   0.108   5.984   5.937 -1.3418 -0.7124  0.5784
19537SOL     OW60051   2.722   5.078   2.786  0.3599 -0.2650  0.9844
19537SOL    HW160052   2.675   5.010   2.835  1.4327 -1.3965  0.4818
19537SOL    HW260053   2.774   5.030   2.722  0.2998  1.1029 -0.1422
19538SOL     OW60054   0.832   0.245   5.088 -0.0787  0.0368  0.4450
19538SOL    HW160055   0.771   0.178   5.059  0.5596 -0.8879  1.1789
19538SOL    HW260056   0.843   0.302   5.011 -0.3905 -0.8762 -0.3002
19539SOL     OW60057   2.448   1.517   7.399 -0.2511 -0.2948  0.5026
19539SOL    HW160058   2.542   1.508   7.390 -0.3061  0.0099 -0.4333
19539SOL    HW260059   2.419   1.432   7.432  0.1830 -0.8942 -0.5972
19540SOL     OW60060   5.897   4.545   5.286 -0.6232  1.0946 -0.4988
19540SOL    HW160061   5.879   4.603   5.212 -2.1294  1.0462 -0.2118
19540SOL    HW260062   5.877   4.457   5.253 -1.6363  1.1067  0.0291
19541SOL     OW60063   1.672   5.107  12.287 -0.0317 -0.2599  0.0214
19541SOL    HW160064   1.695   5.141  12.373  1.6822 -2.8357  0.6812
19541SOL    HW260065   1.736   5.145  12.228  0.7276 -0.8936  0.4288
19542SOL     OW60066   1.422   6.410   3.659  0.0330  0.6056  0.0092
19542SOL    HW160067   1.336   6.453   3.652  0.2549  1.0930  0.2313
19542SOL    HW260068   1.458   6.415   3.571  0.1682  1.1243  0.0864
19543SOL     OW60069   2.198   5.110   2.731  0.3119 -0.0605 -0.0437
19543SOL    HW160070   2.182   5.187   2.785 -0.0277  1.2863 -1.9288
19543SOL    HW260071   2.294   5.106   2.723  0.3974 -0.6610  1.1464
19544SOL     OW60072   0.269   2.357   3.908  0.8557  0.0615 -0.2647
19544SOL    HW160073   0.219   2.286   3.868 -0.7153  1.4612 -0.8856
19544SOL    HW260074   0.208   2.431   3.911  2.1119  1.0991  1.3159
19545SOL     OW60075   6.577   0.846   5.377 -0.5074 -0.1611  0.0338
19545SOL    HW160076   6.637   0.919   5.392  0.8247 -0.4885 -3.0419
19545SOL    HW260077   6.497   0.887   5.345  0.7495  0.0508 -3.1980
19546SOL     OW60078   0.528   3.831   7.025  0.2831  0.4752  0.3482
19546SOL    HW160079   0.515   3.850   6.932  1.1949  0.6861  0.2484
19546SOL    HW260080   0.564   3.912   7.060  0.2908  0.2723  0.8098
19547SOL     OW60081   4.526   2.771   6.903  0.0597  0.1670 -0.0468
19547SOL    HW160082   4.567   2.850   6.866 -0.0703  0.8830  1.2794
19547SOL    HW260083   4.485   2.801   6.984 -2.3575 -0.6920 -0.8580
19548SOL     OW60084   5.542   7.559   5.229 -0.3730  0.0010 -0.3205
19548SOL    HW160085   5.547   7.620   5.303 -1.5226  1.3217 -1.2739
19548SOL    HW260086   5.468   7.502   5.251 -0.8693  0.5474 -0.5371
19549SOL     OW60087   7.668   6.032   6.120  0.0229 -0.4582  0.1487
19549SOL    HW160088   7.713   6.037   6.204 -2.1026 -1.9810  1.4907
19549SOL    HW260089   7.590   6.087   6.131 -1.4430 -2.3942  0.0590
19550SOL     OW60090   3.198   6.877   8.308  0.8568  0.4372  0.3475
19550SOL    HW160091   3.170   6.795   8.350  1.5411  0.2347  0.4366
19550SOL    HW260092   3.179   6.864   8.215  0.3922  0.4230  0.4455
19551SOL     OW60093   0.303   6.835   9.720  0.1505  0.6811 -0.2578
19551SOL    HW160094   0.252   6.820   9.640  0.4887 -0.2032 -0.3183
19551SOL    HW260095   0.253   6.901   9.768 -1.5080 -0.7336  0.0612
19552SOL     OW60096   6.645   3.714  10.650 -0.0679 -0.0740 -0.2428
19552SOL    HW160097   6.717   3.671  10.696 -0.5677  0.4078  1.0383
19552SOL    HW260098   6.569   3.701  10.707 -0.7136  0.5368 -0.9395
19553SOL     OW60099   4.901   3.038   7.354 -0.0393 -0.4599 -0.0176
19553SOL    HW160100   4.892   3.133   7.360  0.4235 -0.4360  0.3146
19553SOL    HW260101   4.914   3.010   7.445 -2.6988 -1.1081  0.2697
19554SOL     OW60102   3.048   2.101  12.144  0.1429 -0.1695  0.5260
19554SOL    HW160103   3.030   2.070  12.233  0.5937 -2.3362 -0.0919
19554SOL    HW260104   2.996   2.044  12.088  0.6522  0.5110 -0.6711
19555SOL     OW60105   6.376   0.780   8.809  0.0264  0.2472 -0.5355
19555SOL    HW160106   6.369   0.871   8.780 -2.0623  0.3983  0.2643
19555SOL    HW260107   6.285   0.752   8.821  0.6707 -1.5622  0.4227
19556SOL     OW60108   0.046   6.706  12.321 -0.0848 -1.2568 -0.8141
19556SOL    HW160109   0.138   6.711  12.346 -0.2424 -0.4560 -0.3544
19556SOL    HW260110  -0.001   6.747  12.394 -0.6154  0.4785 -2.0748
19557SOL     OW60111   1.846   0.343   6.787 -0.0647 -0.5160  0.4396
19557SOL    HW160112   1.814   0.432   6.769  0.5118 -0.6852 -1.6926
19557SOL    HW260113   1.771   0.299   6.827 -0.3605  0.8893  1.5520
19558SOL     OW60114   2.533   2.757   7.583 -0.1531 -0.2089  0.2953
19558SOL    HW160115   2.446   2.798   7.575 -0.8051 -1.5426  0.3618
19558SOL    HW260116   2.537   2.728   7.674  0.7350  0.6048  0.5390
19559SOL     OW60117   0.707   2.279   1.374  0.3408 -0.0236 -1.2159
19559SOL    HW160118   0.747   2.302   1.458 -1.2244 -0.9690 -0.1488
19559SOL    HW260119   0.775   2.233   1.326  1.0809 -0.0147 -0.1963
19560SOL     OW60120   3.101   6.640   9.923 -0.1941 -0.0495 -0.0714
19560SOL    HW160121   3.032   6.574   9.930  1.2115 -1.4013  3.7743
19560SOL    HW260122   3.182   6.592   9.942  1.2823  2.2855 -0.0279
19561SOL     OW60123   4.427   7.763   5.102 -0.5615 -0.0966  0.3775
19561SOL    HW160124   4.470   7.737   5.021  0.4507  0.6717  0.6582
19561SOL    HW260125   4.353   7.702   5.110 -0.2470 -0.6496 -0.7330
19562SOL     OW60126   0.568   6.600  11.724 -0.4611  0.1985 -0.0579
19562SOL    HW160127   0.499   6.666  11.734 -0.7717  0.2877 -2.4051
19562SOL    HW260128   0.576   6.587  11.630  1.7642 -0.8615  0.2171
19563SOL     OW60129   4.467   5.944   7.341 -0.8148  0.3261 -0.5077
19563SOL    HW160130   4.528   5.983   7.278 -2.1462  2.1608 -0.7488
19563SOL    HW260131   4.430   5.868   7.295  1.4000 -0.9935 -0.2578
19564SOL     OW60132   3.288   1.113   2.928  0.4351 -0.0555 -0.5243
19564SOL    HW160133   3.209   1.134   2.878  0.2393  0.0646 -0.1656
19564SOL    HW260134   3.279   1.020   2.948  1.0660 -0.3893 -1.6898
19565SOL     OW60135   6.991   1.713  11.280 -0.0198 -0.6257 -0.1459
19565SOL    HW160136   6.950   1.692  11.364  0.6657 -0.1413  0.3216
19565SOL    HW260137   7.023   1.802  11.291  1.2977 -1.0455 -0.4413
19566SOL     OW60138   6.586   5.711   8.320 -0.1043  0.6329  0.2574
19566SOL    HW160139   6.654   5.773   8.349  1.5235 -0.3023 -1.3205
19566SOL    HW260140   6.628   5.625   8.326 -0.9506  0.0757 -1.2832
19567SOL     OW60141   1.315   2.769  11.151  0.0769 -0.2225  0.2617
19567SOL    HW160142   1.271   2.818  11.082  2.2473  0.1042 -0.9677
19567SOL    HW260143   1.297   2.819  11.231  0.3601  1.3555 -0.6163
19568SOL     OW60144   5.405   7.698   6.296 -0.3162  0.5711  0.3610
19568SOL    HW160145   5.467   7.670   6.228  1.3442  0.4564  1.8570
19568SOL    HW260146   5.359   7.618   6.322  0.8171  0.1326  1.0815
19569SOL     OW60147   6.012   5.073   2.596 -0.2111  0.4317 -0.1009
19569SOL    HW160148   6.099   5.088   2.633  0.6279 -0.7457 -1.4982
19569SOL    HW260149   5.954   5.068   2.672  1.0431  0.5624  0.8928
19570SOL     OW60150   6.201   2.981  10.243  0.1713  0.4171 -0.3149
19570SOL    HW160151   6.259   3.049  10.278 -0.9801  0.7233  1.0465
19570SOL    HW260152   6.122   3.028  10.217 -0.7384 -0.3924  0.8688
19571SOL     OW60153   1.010   1.475  11.708  0.5525 -0.2078  0.2178
19571SOL    HW160154   0.961   1.556  11.690  0.8952 -0.0851 -0.1888
19571SOL    HW260155   1.000   1.423  11.629 -1.0613 -1.3084  1.0806
19572SOL     OW60156   2.749   6.930  11.420 -0.7997 -0.5446  0.0843
19572SOL    HW160157   2.828   6.983  11.432  0.2950 -1.9709 -0.4731
19572SOL    HW260158   2.677   6.993  11.420  0.1431  0.6194  2.3945
19573SOL     OW60159   3.987   7.033  10.886 -0.0461 -0.5293 -0.6954
19573SOL    HW160160   3.914   6.993  10.932 -1.0916  1.8347 -0.1996
19573SOL    HW260161   4.017   7.103  10.943  2.0414 -0.8191 -1.3166
19574SOL     OW60162   6.335   1.068  10.373 -0.5247  0.4105  0.6510
19574SOL    HW160163   6.308   1.034  10.287 -0.9419  1.9870  0.1248
19574SOL    HW260164   6.354   0.990  10.425 -0.8030 -0.5920 -0.7015
19575SOL     OW60165   5.996   6.696   5.038  0.3835 -0.1106 -0.2635
19575SOL    HW160166   5.975   6.669   4.948 -2.8629 -0.6072  0.5129
19575SOL    HW260167   6.011   6.790   5.032 -0.1071 -0.0831 -1.2992
19576SOL     OW60168   2.684   0.552   9.084 -0.2315  0.0537  0.0984
19576SOL    HW160169   2.660   0.602   9.006  0.5806  1.5255  0.7599
19576SOL    HW260170   2.613   0.488   9.094 -1.2333  0.9775 -0.8408
19577SOL     OW60171   4.354   5.765   8.115 -0.2074  0.0091  0.4655
19577SOL    HW160172   4.394   5.847   8.084  0.6920 -0.2506  0.8955
19577SOL    HW260173   4.397   5.697   8.063 -1.9835 -0.1166 -0.9232
19578SOL     OW60174   2.943   6.596   7.737  0.7957 -0.4836  0.2652
19578SOL    HW160175   2.972   6.676   7.692  1.0507 -0.3142  0.7289
19578SOL    HW260176   2.947   6.618   7.830 -1.1259 -0.3494  0.3619
19579SOL     OW60177   2.294   4.613   7.224  0.0040 -0.7113 -0.4263
19579SOL    HW160178   2.371   4.556   7.219  0.8341  0.3414 -0.2478
19579SOL    HW260179   2.222   4.560   7.191 -0.1005 -3.2408  3.2474
19580SOL     OW60180   7.059   7.036   9.121 -0.2678  0.6102 -0.7981
19580SOL    HW160181   7.054   7.108   9.184 -1.3790 -0.4796  0.4257
19580SOL    HW260182   7.148   7.002   9.131 -0.3273  0.6545  0.0001
19581SOL     OW60183   0.215   7.949   6.358  0.4651  0.3698 -0.0604
19581SOL    HW160184   0.222   7.881   6.425  0.7337 -0.5667 -1.0186
19581SOL    HW260185   0.249   8.028   6.401  0.5448 -0.1803  0.9292
19582SOL     OW60186   5.562   3.574  12.077  0.2545 -0.0159  1.0325
19582SOL    HW160187   5.580   3.668  12.083  1.1992 -0.0889 -0.2255
19582SOL    HW260188   5.647   3.533  12.095 -0.3131 -0.6681  2.3110
19583SOL     OW60189   5.498   0.255   0.474  0.3462  0.0034 -0.0412
19583SOL    HW160190   5.526   0.293   0.391  0.7901 -1.9583 -0.8291
19583SOL    HW260191   5.438   0.185   0.450  0.2052 -0.3705  1.3112
19584SOL     OW60192   5.231   4.655   3.672 -0.0325  0.0177  0.5551
19584SOL    HW160193   5.260   4.668   3.763 -1.4889  0.2473  1.0050
19584SOL    HW260194   5.269   4.570   3.648 -1.2250 -1.0037  2.0720
19585SOL     OW60195   6.793   7.059   3.983  0.0250 -0.0675  0.0894
19585SOL    HW160196   6.806   7.089   4.073  1.0989  1.0518 -0.4033
19585SOL    HW260197   6.800   6.964   3.988 -2.3559 -0.2421  1.5452
19586SOL     OW60198   1.447   7.090   7.192  0.2768 -0.1113 -0.6338
19586SOL    HW160199   1.427   7.149   7.265  0.6093 -1.7032  0.8113
19586SOL    HW260200   1.513   7.030   7.227  0.4182 -0.9459 -2.2502
19587SOL     OW60201   0.114   7.263   5.095 -0.2840  0.3541 -0.7854
19587SOL    HW160202   0.047   7.276   5.162 -1.7690  1.0527 -2.3366
19587SOL    HW260203   0.136   7.170   5.102 -1.6338  0.0412 -0.4272
19588SOL     OW60204   4.910   4.163   2.136 -0.6666  0.7633  0.7489
19588SOL    HW160205   4.956   4.176   2.054  0.5402  0.5127  1.3700
19588SOL    HW260206   4.851   4.238   2.143 -0.8645  0.7237 -0.3896
19589SOL     OW60207   2.846   7.786   4.628 -0.3866 -0.2906  0.6793
19589SOL    HW160208   2.919   7.735   4.594 -0.2826  1.8323 -2.6998
19589SOL    HW260209   2.886   7.857   4.677 -0.2064  0.2894 -0.2960
19590SOL     OW60210   6.664   2.124   4.829  0.2537 -0.2813 -0.0041
19590SOL    HW160211   6.718   2.123   4.750  0.5819  1.3370  0.1671
19590SOL    HW260212   6.714   2.072   4.893  2.9746  3.0884  0.9286
19591SOL     OW60213   0.192   1.932   3.267  0.0803  0.6026  0.5798
19591SOL    HW160214   0.154   2.015   3.295  1.5065  1.9822 -1.3221
19591SOL    HW260215   0.177   1.929   3.173  0.5999 -1.0200  0.5169
19592SOL     OW60216   1.656   1.373   8.074 -0.4918 -0.3648  0.2181
19592SOL    HW160217   1.628   1.283   8.091  1.2272 -0.9175  0.2350
19592SOL    HW260218   1.699   1.400   8.155 -0.9179  0.4646  0.1814
19593SOL     OW60219   2.144   3.356   8.361 -0.6361  0.7418 -0.1369
19593SOL    HW160220   2.227   3.316   8.387 -0.7791 -0.2615 -1.1124
19593SOL    HW260221   2.160   3.388   8.272 -1.8441 -1.3364 -1.1817
19594SOL     OW60222   4.897   1.715   6.431 -0.6207 -0.0764  0.6908
19594SOL    HW160223   4.965   1.776   6.403 -1.4904  0.4385 -0.3554
19594SOL    HW260224   4.945   1.637   6.457  0.4343  0.6178  0.9085
19595SOL     OW60225   3.152   5.883   0.773  0.2636  0.1735 -0.9970
19595SOL    HW160226   3.099   5.922   0.842  0.6875  0.1321 -0.6421
19595SOL    HW260227   3.092   5.870   0.700 -0.2827 -0.1741 -0.4877
19596SOL     OW60228   4.532   5.544   4.019  0.0243  0.6760  0.5534
19596SOL    HW160229   4.470   5.560   4.090 -0.9174 -0.7103  0.0683
19596SOL    HW260230   4.491   5.580   3.941  0.4886  1.0491  0.4730
19597SOL     OW60231   4.130   2.928   7.317 -0.0700  0.0653 -0.6225
19597SOL    HW160232   4.215   2.951   7.356  0.2439 -1.3355 -0.4253
19597SOL    HW260233   4.145   2.844   7.275 -1.6320 -0.7602  0.3525
19598SOL     OW60234   0.933   4.750   6.728 -0.8131  0.3428 -0.2233
19598SOL    HW160235   0.876   4.686   6.686 -0.0671  0.2038 -1.0381
19598SOL    HW260236   0.988   4.698   6.786 -0.9824  0.3889 -0.0183
19599SOL     OW60237   2.823   4.929   3.364 -0.3390  0.1885  0.3762
19599SOL    HW160238   2.766   5.006   3.364  0.7971  1.1759 -2.7942
19599SOL    HW260239   2.909   4.963   3.389  0.3627  0.2403 -1.8772
19600SOL     OW60240   5.574   3.991   6.723 -0.0341  0.4702  0.2367
19600SOL    HW160241   5.594   4.076   6.684 -1.2900  1.0662  0.8753
19600SOL    HW260242   5.578   4.005   6.817 -1.2411  0.0771  0.3627
19601SOL     OW60243   0.057   0.168   1.186  0.6694  0.2941  0.3053
19601SOL    HW160244   0.008   0.247   1.209  0.3254 -0.2668  1.5759
19601SOL    HW260245   0.130   0.199   1.132  0.2834  1.4136  0.4149
19602SOL     OW60246   1.717   6.539   0.101  0.3516 -0.0249 -0.1928
19602SOL    HW160247   1.692   6.448   0.087  0.2488  0.3397 -2.8028
19602SOL    HW260248   1.794   6.552   0.045  0.7939  1.3310  0.6696
19603SOL     OW60249   1.226   1.028   6.683 -0.2651 -0.3997 -0.2854
19603SOL    HW160250   1.143   1.065   6.713 -1.8578 -2.2117 -2.1264
19603SOL    HW260251   1.203   0.940   6.652  2.5679 -1.4191  0.1613
19604SOL     OW60252   7.853   5.303   4.736  0.2642  0.0855  0.1381
19604SOL    HW160253   7.875   5.241   4.666 -0.3463  0.6393 -0.5627
19604SOL    HW260254   7.758   5.312   4.730  0.1775 -0.0269  1.1938
19605SOL     OW60255   7.568   5.247   4.172 -0.5564 -0.1347  0.2025
19605SOL    HW160256   7.494   5.241   4.113 -0.3784 -0.0976 -0.0254
19605SOL    HW260257   7.637   5.289   4.120  1.0497 -3.8409 -0.9880
19606SOL     OW60258   4.779   1.006   0.073 -0.3528 -0.4964  0.1360
19606SOL    HW160259   4.813   0.980  -0.013 -0.9566 -0.1116 -0.2158
19606SOL    HW260260   4.840   0.965   0.135  0.0874 -0.7745 -0.4687
19607SOL     OW60261   5.693   6.963   5.582 -0.1639  0.4612 -0.1466
19607SOL    HW160262   5.787   6.948   5.577 -0.0415  1.0267  0.3517
19607SOL    HW260263   5.673   6.961   5.676 -1.0533 -2.0447 -0.2956
19608SOL     OW60264   7.034   0.276   1.398 -0.1446 -0.2485 -0.1897
19608SOL    HW160265   7.119   0.263   1.357 -0.0517 -2.5859  0.6372
19608SOL    HW260266   7.009   0.190   1.431 -3.2224  0.1638 -1.1047
19609SOL     OW60267   6.721   2.379  11.927  0.4090  0.8052 -0.0358
19609SOL    HW160268   6.691   2.298  11.968  0.7951  1.0642  0.7817
19609SOL    HW260269   6.704   2.447  11.992  0.6552  1.2874 -0.4650
19610SOL     OW60270   6.205   2.297   3.340 -0.1428  0.3224 -0.0632
19610SOL    HW160271   6.124   2.337   3.308 -0.0105  0.8290  0.2170
19610SOL    HW260272   6.252   2.369   3.381  0.3866  0.0015 -0.0961
19611SOL     OW60273   2.236   6.972   1.132  0.2051 -0.1029 -0.0549
19611SOL    HW160274   2.310   6.920   1.164 -0.7507 -1.9483 -0.7272
19611SOL    HW260275   2.239   6.963   1.037  0.5032  1.8093 -0.2559
19612SOL     OW60276   4.957   7.122   3.097 -0.2090  0.0604 -0.3038
19612SOL    HW160277   4.913   7.203   3.125  0.5623  1.4029 -2.7151
19612SOL    HW260278   5.026   7.109   3.163 -0.0385  1.6489 -0.1254
19613SOL     OW60279   6.849   5.802   4.980  0.4010 -0.3050 -0.4496
19613SOL    HW160280   6.833   5.805   4.886 -1.3098 -0.3608 -0.1817
19613SOL    HW260281   6.763   5.788   5.019  1.3018 -2.2166  1.0353
19614SOL     OW60282   4.376   6.971   3.795  0.1244  0.1989  0.8697
19614SOL    HW160283   4.461   7.016   3.788 -0.2909  1.0733  1.3302
19614SOL    HW260284   4.377   6.909   3.722 -0.5209  3.0537 -1.7934
19615SOL     OW60285   4.811   7.928   1.578 -0.2028 -0.2180 -0.6828
19615SOL    HW160286   4.717   7.916   1.568 -0.4207  0.6178  0.1220
19615SOL    HW260287   4.820   7.974   1.662  1.0858 -2.3424  0.4284
19616SOL     OW60288   4.362   3.152   2.246 -0.3020  0.0550  0.8908
19616SOL    HW160289   4.444   3.105   2.265 -1.7745 -2.0968  2.4303
19616SOL    HW260290   4.297   3.083   2.234 -1.6158  1.6365 -2.1679
19617SOL     OW60291   3.683   2.612   2.381 -0.2199 -0.2549 -0.1033
19617SOL    HW160292   3.698   2.706   2.376 -1.1615 -0.1368 -1.0559
19617SOL    HW260293   3.683   2.592   2.474  1.2521  0.4629  0.0852
19618SOL     OW60294   2.147   0.091   0.520 -0.3115 -0.1733  0.5477
19618SOL    HW160295   2.176   0.177   0.549  0.2135  0.3857 -1.4799
19618SOL    HW260296   2.061   0.079   0.561  1.4195 -0.6829  4.4454
19619SOL     OW60297   0.994   5.620   6.381  0.3145  0.7682 -0.1419
19619SOL    HW160298   0.999   5.595   6.474  0.2141 -0.5411 -0.4733
19619SOL    HW260299   0.974   5.713   6.383 -1.6086  0.3805  1.1697
19620SOL     OW60300   6.310   3.440   9.759  0.1161  0.1714 -0.4768
19620SOL    HW160301   6.358   3.501   9.815  1.6568 -1.3326 -0.0572
19620SOL    HW260302   6.274   3.494   9.689  1.4693  1.5619 -0.1535
19621SOL     OW60303   7.076   3.689   3.852  0.4261  0.0188  0.1788
19621SOL    HW160304   7.043   3.668   3.940 -1.4938  0.2089 -0.4458
19621SOL    HW260305   7.083   3.604   3.808 -1.5756  0.1030 -0.4192
19622SOL     OW60306   4.010   1.355   3.402  0.3150  0.0646 -0.7043
19622SOL    HW160307   4.035   1.404   3.323  0.2604  0.1341 -0.6793
19622SOL    HW260308   4.031   1.414   3.474 -0.6535  0.4466 -0.7190
19623SOL     OW60309   7.475   5.720   5.780 -0.0598 -0.0244  0.1590
19623SOL    HW160310   7.540   5.779   5.742 -0.7860  0.1194 -0.9345
19623SOL    HW260311   7.447   5.764   5.860 -2.3666  2.4704 -1.8176
19624SOL     OW60312   5.099   3.162   6.262 -0.0442 -0.1256  0.0536
19624SOL    HW160313   5.015   3.116   6.266  0.5566 -1.4305 -1.3350
19624SOL    HW260314   5.094   3.214   6.182  0.4356 -0.1817 -0.0173
19625SOL     OW60315   6.421   1.569   1.634 -0.2585  0.3585  0.1142
19625SOL    HW160316   6.505   1.540   1.667 -0.7530 -0.3736  0.7733
19625SOL    HW260317   6.377   1.488   1.606 -0.7803  0.7176 -0.1236
19626SOL     OW60318   2.993   7.047   6.349 -0.3072 -0.1759 -0.0168
19626SOL    HW160319   2.942   7.008   6.420 -0.8715 -1.7227 -1.2066
19626SOL    HW260320   3.029   6.972   6.301 -0.0822  0.7992 -1.4472
19627SOL     OW60321   6.326   2.333   7.448 -0.0488  0.0985  0.7980
19627SOL    HW160322   6.421   2.330   7.459  0.0008  0.8581  0.6185
19627SOL    HW260323   6.310   2.297   7.361  0.0536 -0.2190  0.9094
19628SOL     OW60324   5.024   0.906   0.907 -0.3089  0.0113  0.5669
19628SOL    HW160325   5.088   0.958   0.859  0.8539  0.2551  2.3357
19628SOL    HW260326   4.940   0.948   0.886  0.2950  0.8618 -0.2602
19629SOL     OW60327   4.041   6.178   6.367 -0.2496  0.2699  0.4654
19629SOL    HW160328   3.997   6.250   6.413 -2.4115 -0.8389  0.2621
19629SOL    HW260329   3.993   6.100   6.393  1.6795 -1.0623  0.2249
19630SOL     OW60330   6.135   0.396   2.102 -0.6031  0.5921 -0.1896
19630SOL    HW160331   6.072   0.360   2.039 -2.3660  2.2874  0.4940
19630SOL    HW260332   6.152   0.485   2.070  0.4232  0.6172  0.3908
19631SOL     OW60333   0.565   6.265   8.251  0.2349  0.1101 -0.4512
19631SOL    HW160334   0.589   6.293   8.339 -0.1867 -1.0882  0.0627
19631SOL    HW260335   0.581   6.171   8.250  3.3797  0.4845 -2.6939
19632SOL     OW60336   2.879   1.692   8.824  0.3925 -0.0960 -0.1558
19632SOL    HW160337   2.963   1.723   8.789  1.2313 -1.1621  0.8291
19632SOL    HW260338   2.845   1.766   8.874  0.3516  0.6113 -1.2007
19633SOL     OW60339   5.183   4.216   1.955 -0.0361  0.6234 -0.0535
19633SOL    HW160340   5.204   4.125   1.973  0.0270  1.2747  3.9400
19633SOL    HW260341   5.108   4.212   1.896 -1.7153 -2.1266  2.0500
19634SOL     OW60342   1.378   6.313  10.799  0.0001 -0.1015 -0.2338
19634SOL    HW160343   1.410   6.257  10.869  0.7202 -0.0395 -0.5020
19634SOL    HW260344   1.300   6.268  10.766  0.2912 -0.6905 -0.1222
19635SOL     OW60345   0.531   4.113   3.231 -0.1132  0.3311  0.0331
19635SOL    HW160346   0.495   4.077   3.150  1.3696  0.6438 -0.8077
19635SOL    HW260347   0.551   4.036   3.284  0.8031 -0.0076 -0.7645
19636SOL     OW60348   3.814   0.769   5.909 -0.7825 -0.5597 -0.4956
19636SOL    HW160349   3.826   0.674   5.918  0.3977 -0.5689 -1.7876
19636SOL    HW260350   3.903   0.804   5.911 -1.2138  0.5637  0.1158
19637SOL     OW60351   7.812   1.968  11.305  0.6677  0.0080 -0.0652
19637SOL    HW160352   7.793   2.026  11.378  1.6422 -0.0028  0.2153
19637SOL    HW260353   7.756   1.998  11.234 -4.3534 -3.1350  2.0313
19638SOL     OW60354   7.251   3.752  10.174  0.2845 -0.0096 -0.5128
19638SOL    HW160355   7.164   3.720  10.148  0.3278 -0.7339  0.1943
19638SOL    HW260356   7.308   3.726  10.101  0.3333 -1.6793  0.0877
19639SOL     OW60357   3.480   1.880   7.691 -0.7918  0.0125  0.5783
19639SOL    HW160358   3.545   1.840   7.749  0.0397 -0.0739 -0.3861
19639SOL    HW260359   3.526   1.889   7.607 -1.6014  1.1952  0.2505
19640SOL     OW60360   1.622   0.075  10.408 -0.5662 -0.2449  0.0951
19640SOL    HW160361   1.619   0.154  10.354  0.6501  0.0916  0.4958
19640SOL    HW260362   1.564   0.013  10.362 -1.7766  0.9474 -0.0642
19641SOL     OW60363   7.057   7.030   4.475 -0.6085 -0.0184  0.0254
19641SOL    HW160364   7.103   7.112   4.490 -0.2967 -0.5535  2.3870
19641SOL    HW260365   7.116   6.980   4.418  1.3216 -0.2338  2.0597
19642SOL     OW60366   2.282   2.859   5.364  0.4853  0.1623  0.3652
19642SOL    HW160367   2.201   2.907   5.377  0.7502  1.4388 -2.1181
19642SOL    HW260368   2.351   2.923   5.378  0.9059  0.0780 -1.1301
19643SOL     OW60369   1.131   0.359   5.104  0.0079  0.2192 -0.0597
19643SOL    HW160370   1.131   0.383   5.011  1.3195 -0.0272 -0.1396
19643SOL    HW260371   1.088   0.433   5.148  0.1356  0.7274 -0.7722
19644SOL     OW60372   6.098   2.293  12.430  0.0222 -0.4174 -0.0701
19644SOL    HW160373   6.128   2.327  12.345 -0.0034  1.0553  0.4842
19644SOL    HW260374   6.131   2.203  12.433  0.3134 -0.3806 -1.4926
19645SOL     OW60375   4.706   5.573  11.216 -0.4065  0.1469  0.2279
19645SOL    HW160376   4.688   5.546  11.306  0.2164 -2.0042 -0.2273
19645SOL    HW260377   4.673   5.501  11.162  1.1068  0.3929 -1.1186
19646SOL     OW60378   6.047   0.889   1.325 -0.4513  0.7151  0.1144
19646SOL    HW160379   6.010   0.806   1.357 -1.7407  1.3708  0.3849
19646SOL    HW260380   5.975   0.931   1.279 -0.6219  2.8067  2.0916
19647SOL     OW60381   5.381   1.434  12.319 -0.2427 -0.2398  0.4743
19647SOL    HW160382   5.410   1.364  12.377 -1.2338  0.3872  1.7759
19647SOL    HW260383   5.358   1.390  12.237 -1.5653 -1.5632  1.5119
19648SOL     OW60384   3.501   6.324   6.611 -1.0683  0.0445  0.2972
19648SOL    HW160385   3.426   6.368   6.571 -1.0057 -0.9191 -0.9570
19648SOL    HW260386   3.538   6.271   6.540  0.5437  0.1700  1.0162
19649SOL     OW60387   6.290   1.807   4.296 -0.1996 -0.1232 -0.3566
19649SOL    HW160388   6.335   1.813   4.381 -0.3896  0.1209 -0.2690
19649SOL    HW260389   6.356   1.775   4.236 -0.4591 -1.8074  0.1922
19650SOL     OW60390   6.064   7.414   7.505 -0.2861 -0.0946  0.2206
19650SOL    HW160391   6.093   7.451   7.589 -0.1174  1.2981 -0.4237
19650SOL    HW260392   6.080   7.320   7.514  1.5525  0.2447  1.0508
19651SOL     OW60393   4.957   6.431   2.286 -0.4442 -0.0618  0.3213
19651SOL    HW160394   4.938   6.448   2.378  0.9953 -1.4943  0.9418
19651SOL    HW260395   4.887   6.371   2.258 -0.7044  0.1194  0.5754
19652SOL     OW60396   4.835   0.331  10.197  0.0611 -0.3219 -0.0875
19652SOL    HW160397   4.906   0.270  10.179  0.6345  0.1813  0.4542
19652SOL    HW260398   4.878   0.415  10.213 -0.6832  0.1038 -0.2621
19653SOL     OW60399   6.991   1.224  10.245 -0.0040 -0.6074  0.2775
19653SOL    HW160400   6.942   1.193  10.321  0.1312 -0.3441  0.4734
19653SOL    HW260401   7.083   1.223  10.274 -0.0564  0.6410  0.5189
19654SOL     OW60402   0.645   0.180   1.716 -0.0304 -0.2606 -0.5504
19654SOL    HW160403   0.551   0.167   1.729 -0.7905  1.1114 -3.8567
19654SOL    HW260404   0.667   0.253   1.775 -0.2683 -2.4065  2.4137
19655SOL     OW60405   2.129   3.086   8.706  0.0871  0.3206 -0.1210
19655SOL    HW160406   2.169   3.067   8.790 -4.5062  1.6581  2.7096
19655SOL    HW260407   2.114   3.180   8.707 -0.1967  0.3669 -2.4333
19656SOL     OW60408   5.962   4.660   2.929  0.2414  0.3336  0.0370
19656SOL    HW160409   5.881   4.699   2.895 -1.0518 -2.6235 -0.5703
19656SOL    HW260410   6.008   4.628   2.852 -0.5383 -2.4671  0.6222
19657SOL     OW60411   3.153   5.701   8.069 -0.4472  0.2540 -0.3121
19657SOL    HW160412   3.182   5.734   8.154 -0.2719 -0.7692  0.0386
19657SOL    HW260413   3.187   5.765   8.006 -1.0104  1.2905  0.4140
19658SOL     OW60414   7.982   7.969  11.540  0.1173 -0.8036 -0.1577
19658SOL    HW160415   8.007   8.044  11.593  1.1505 -1.1252 -0.1611
19658SOL    HW260416   8.064   7.940  11.500 -0.8011  0.3000 -3.1002
19659SOL     OW60417   4.095   7.415   4.317 -0.1792 -0.0472  0.4718
19659SOL    HW160418   4.167   7.472   4.289 -0.3187 -0.0847  0.0375
19659SOL    HW260419   4.138   7.345   4.365  0.0898 -0.1524  0.0843
19660SOL     OW60420   3.880   3.005   9.376  0.1721 -0.5753  0.2462
19660SOL    HW160421   3.808   3.064   9.396  0.8470 -0.1125  1.4347
19660SOL    HW260422   3.904   3.024   9.286 -0.6532 -0.1618  0.1124
19661SOL     OW60423   7.311   3.513   0.751 -0.3050 -0.2130  0.5149
19661SOL    HW160424   7.232   3.558   0.781  0.9437  1.1045  2.0285
19661SOL    HW260425   7.379   3.580   0.752  1.0519 -1.5188  0.1619
19662SOL     OW60426   0.728   3.234   5.609  0.4434 -0.2448  0.1973
19662SOL    HW160427   0.657   3.290   5.640  1.9800  1.0969  1.5082
19662SOL    HW260428   0.718   3.153   5.659  0.4883  0.3829  1.2668
19663SOL     OW60429   7.123   1.035   6.120 -0.1269  0.1995  0.3475
19663SOL    HW160430   7.068   1.066   6.048 -1.2057 -0.9642  0.6346
19663SOL    HW260431   7.211   1.034   6.084 -0.5395  0.4132 -0.7056
19664SOL     OW60432   6.921   5.775   7.696  0.1137 -0.0902  0.3354
19664SOL    HW160433   6.943   5.844   7.634 -0.6918  1.1016  1.3370
19664SOL    HW260434   6.982   5.704   7.675  1.4468  1.1691 -0.2449
19665SOL     OW60435   6.606   7.740   4.097 -0.1901 -0.2478  0.3722
19665SOL    HW160436   6.553   7.665   4.123 -1.1188  0.6782  1.2633
19665SOL    HW260437   6.553   7.786   4.031  0.1185 -0.0502  0.2533
19666SOL     OW60438   6.464   3.463   1.051  0.3044  0.7021  0.5297
19666SOL    HW160439   6.408   3.522   1.002  0.2872  0.0153 -0.3002
19666SOL    HW260440   6.483   3.391   0.990  2.1801  0.9619  0.7378
19667SOL     OW60441   2.032   6.132   4.181 -0.5080  0.1708 -0.3615
19667SOL    HW160442   2.091   6.064   4.214 -2.2433 -0.8597  0.7542
19667SOL    HW260443   2.050   6.209   4.236 -1.0662 -0.5307  0.8387
19668SOL     OW60444   0.904   4.223   3.274 -0.6933  0.3622  0.5809
19668SOL    HW160445   0.843   4.213   3.347  1.4331 -1.1016  2.2825
19668SOL    HW260446   0.955   4.301   3.296  0.4368 -0.4942  1.0920
19669SOL     OW60447   7.372   4.843   7.860 -0.7515 -0.1253  0.5471
19669SOL    HW160448   7.384   4.844   7.765 -3.0642 -0.0058  0.2212
19669SOL    HW260449   7.420   4.920   7.890 -3.2218  2.1644 -1.0053
19670SOL     OW60450   3.590   3.517   7.402  0.1734 -0.4616  0.6520
19670SOL    HW160451   3.609   3.475   7.486 -0.0255 -0.9400  0.4575
19670SOL    HW260452   3.517   3.467   7.366  0.2364 -0.2374  0.2071
19671SOL     OW60453   3.301   3.684  10.837 -0.2352  0.0138 -0.4860
19671SOL    HW160454   3.338   3.641  10.915 -0.9577  1.1219  0.5144
19671SOL    HW260455   3.349   3.767  10.831 -0.6172  0.2098 -0.8495
19672SOL     OW60456   2.868   1.340   6.156 -0.1275  0.1588  0.4111
19672SOL    HW160457   2.841   1.255   6.191 -1.5325  0.2646 -0.3568
19672SOL    HW260458   2.871   1.397   6.233 -3.4454  0.4595  0.4933
19673SOL     OW60459   5.991   3.556  11.152  0.0549 -0.3063 -0.8522
19673SOL    HW160460   6.027   3.625  11.097  1.0859 -0.8705 -0.9221
19673SOL    HW260461   6.064   3.532  11.210 -0.9363  0.1373  0.6293
19674SOL     OW60462   1.994   5.853   7.646 -0.1276  0.3593 -0.1304
19674SOL    HW160463   1.906   5.890   7.651 -0.4772 -0.5649  1.1075
19674SOL    HW260464   2.009   5.815   7.733  0.2697 -2.2349 -1.2483
19675SOL     OW60465   3.020   1.733   8.129 -0.2236  0.4990  0.2105
19675SOL    HW160466   2.957   1.738   8.057 -1.3064  1.0987  1.1681
19675SOL    HW260467   3.074   1.812   8.118  0.8424 -0.3606 -1.0060
19676SOL     OW60468   2.203   6.441   2.931  0.2599  0.2900  0.2443
19676SOL    HW160469   2.250   6.481   2.858 -0.8931  1.9774  0.3601
19676SOL    HW260470   2.112   6.470   2.919 -0.0219  0.2999  2.1234
19677SOL     OW60471   6.566   1.238   0.832 -0.1708 -0.1414  0.8454
19677SOL    HW160472   6.470   1.239   0.835 -0.2459  0.8775 -0.8116
19677SOL    HW260473   6.591   1.175   0.899 -1.9987 -0.4388  1.3044
19678SOL     OW60474   2.391   4.212  10.662 -0.5128 -0.2426 -0.3962
19678SOL    HW160475   2.426   4.203  10.751  2.2086  0.3833 -1.3065
19678SOL    HW260476   2.313   4.267  10.673 -0.1757 -0.0809  1.5957
19679SOL     OW60477   2.159   5.388   6.894 -0.2829 -0.0801  0.1058
19679SOL    HW160478   2.172   5.365   6.986 -2.1262 -0.8396  0.2164
19679SOL    HW260479   2.082   5.338   6.867 -0.3658  0.8828 -1.5890
19680SOL     OW60480   1.465   0.620   7.525  0.5733  0.0062  0.0652
19680SOL    HW160481   1.374   0.618   7.495  0.6013 -0.3657  0.0018
19680SOL    HW260482   1.468   0.555   7.595  0.8048 -0.0278  0.0238
19681SOL     OW60483   5.221   7.645   5.213  0.0734 -0.2777  0.6273
19681SOL    HW160484   5.240   7.588   5.287  0.5981 -0.5558  0.2911
19681SOL    HW260485   5.181   7.588   5.148  0.3096 -0.2038  0.4126
19682SOL     OW60486   5.841   3.979   3.916 -0.1279  0.1679 -0.3538
19682SOL    HW160487   5.757   4.020   3.898 -1.4808 -1.8969  0.8410
19682SOL    HW260488   5.898   4.052   3.943 -1.5627  1.5837 -1.0179
19683SOL     OW60489   1.324   6.026   3.194  0.0668  0.7770  0.2198
19683SOL    HW160490   1.255   5.976   3.238 -0.1579  1.6775  0.9204
19683SOL    HW260491   1.371   5.961   3.143 -2.0843  0.3240 -1.3190
19684SOL     OW60492   5.086   1.414   5.612  0.1231 -0.0180  0.3998
19684SOL    HW160493   5.121   1.336   5.570 -2.3299 -1.1306  0.2359
19684SOL    HW260494   5.002   1.429   5.567 -0.7953  0.9981  2.3538
19685SOL     OW60495   2.320   1.801   7.119 -0.7789 -0.2632 -0.3035
19685SOL    HW160496   2.268   1.737   7.168 -1.3529 -0.1721 -0.7810
19685SOL    HW260497   2.392   1.750   7.081 -0.5999 -0.4181  0.2405
19686SOL     OW60498   2.432   1.264   1.066  0.1911 -0.4179 -0.2876
19686SOL    HW160499   2.435   1.176   1.028  1.0204 -1.0546  1.1813
19686SOL    HW260500   2.358   1.262   1.126  1.5505 -0.8670  1.4391
19687SOL     OW60501   7.639   3.016   6.906 -0.2383 -0.2316  0.1981
19687SOL    HW160502   7.550   2.981   6.909 -0.0923 -0.5436  1.7582
19687SOL    HW260503   7.661   3.018   6.813 -1.2843 -1.6648 -0.1056
19688SOL     OW60504   3.215   0.254   3.362  0.0195 -0.0253 -0.0279
19688SOL    HW160505   3.226   0.326   3.300 -1.4168  0.9410  0.7925
19688SOL    HW260506   3.287   0.266   3.425 -0.5905  1.1139  0.4808
19689SOL     OW60507   0.356   5.543  12.229  0.0498  0.1265  0.0557
19689SOL    HW160508   0.369   5.633  12.200 -2.5770 -0.0231 -2.0389
19689SOL    HW260509   0.408   5.491  12.168  0.8134  0.1654  0.6666
19690SOL     OW60510   7.165   2.613  11.785  0.1819  0.4364 -0.1049
19690SOL    HW160511   7.110   2.604  11.863  1.3825 -0.7917  0.6348
19690SOL    HW260512   7.123   2.557  11.719  0.2738 -0.1250  0.3072
19691SOL     OW60513   3.013   2.834   2.955 -0.1321  0.7603 -0.3897
19691SOL    HW160514   2.998   2.839   2.861  1.0463 -0.6482 -0.6995
19691SOL    HW260515   2.927   2.816   2.993 -0.5211  0.7589 -1.2653
19692SOL     OW60516   5.910   5.625   2.096 -0.3244  0.5014 -0.5755
19692SOL    HW160517   5.931   5.549   2.149 -1.0439  0.0467 -0.9285
19692SOL    HW260518   5.993   5.672   2.088 -0.2199  0.6626  1.0501
19693SOL     OW60519   5.944   1.131  10.087 -0.0350 -0.2265  0.6718
19693SOL    HW160520   5.853   1.109  10.064  0.3730 -1.5243  0.1606
19693SOL    HW260521   5.939   1.219  10.124 -1.9369 -1.4058  3.5278
19694SOL     OW60522   2.392   0.308  11.133 -0.4530  0.4535 -0.0987
19694SOL    HW160523   2.429   0.396  11.130 -3.1361  1.6585 -0.3943
19694SOL    HW260524   2.448   0.260  11.195  3.0900  1.2680 -2.3621
19695SOL     OW60525   1.895   5.563   5.233 -0.0962 -0.6503 -0.1744
19695SOL    HW160526   1.826   5.629   5.224 -1.1787 -1.7163  0.1897
19695SOL    HW260527   1.908   5.556   5.327 -0.2455 -1.2268 -0.1978
19696SOL     OW60528   5.307   4.918  12.388  0.2873 -0.5767  0.1594
19696SOL    HW160529   5.319   4.854  12.458 -1.2125 -1.8625 -0.6806
19696SOL    HW260530   5.395   4.951  12.370  0.8837 -1.2841  1.6486
19697SOL     OW60531   2.441   3.558   9.666 -0.4968 -0.2930  0.6262
19697SOL    HW160532   2.420   3.651   9.653  2.3670  0.3545 -0.0272
19697SOL    HW260533   2.535   3.556   9.681 -0.1347 -3.2490 -1.1534
19698SOL     OW60534   1.758   2.511  11.989 -0.2781  0.5838 -0.2545
19698SOL    HW160535   1.846   2.491  11.958 -0.0127  0.1530  0.7429
19698SOL    HW260536   1.710   2.536  11.910  0.7083  0.7447 -0.8224
19699SOL     OW60537   1.600   7.713   0.452 -0.2031 -0.2051  0.2570
19699SOL    HW160538   1.579   7.805   0.464  0.8000 -0.0628  1.0727
19699SOL    HW260539   1.632   7.707   0.361  0.9084  0.5073  0.5791
19700SOL     OW60540   6.449   4.913   7.105 -0.3635  0.3736 -0.0766
19700SOL    HW160541   6.532   4.894   7.062  0.7601 -0.3055  2.2103
19700SOL    HW260542   6.463   4.999   7.146  0.4014 -0.9854  2.7691
19701SOL     OW60543   5.421   7.877   1.561  0.5704  0.4049 -0.0795
19701SOL    HW160544   5.402   7.830   1.480  0.0026  0.4298  0.0307
19701SOL    HW260545   5.433   7.968   1.533 -2.9483  1.0822  0.1819
19702SOL     OW60546   6.548   3.208  11.833  0.1788 -1.0037  0.3654
19702SOL    HW160547   6.636   3.188  11.866  0.7945 -1.4137 -1.3638
19702SOL    HW260548   6.544   3.304  11.833  0.7080 -0.9751  0.2904
19703SOL     OW60549   1.404   1.724   8.730 -0.2200 -0.7435  0.0855
19703SOL    HW160550   1.356   1.749   8.651 -1.0429 -0.8504  0.5369
19703SOL    HW260551   1.338   1.686   8.788  0.4875 -1.2870  0.5671
19704SOL     OW60552   2.553   2.597   1.655  0.4614  0.1449  0.0767
19704SOL    HW160553   2.610   2.671   1.635 -0.5106  0.8789 -0.0405
19704SOL    HW260554   2.473   2.614   1.605  0.9865 -2.0770 -1.6576
19705SOL     OW60555   7.543   4.968   8.911 -0.2346 -0.0477  0.2236
19705SOL    HW160556   7.526   4.894   8.853 -1.3475  1.1125 -0.9881
19705SOL    HW260557   7.629   5.000   8.884 -1.0209  0.8944 -1.3162
19706SOL     OW60558   2.276   1.983  11.010  0.1915 -0.4622  0.4733
19706SOL    HW160559   2.265   2.070  11.048  0.7070 -0.5739  0.9062
19706SOL    HW260560   2.371   1.973  11.001  0.0856 -0.5290 -0.6525
19707SOL     OW60561   7.406   1.298   5.893 -0.0912 -0.5142  0.2248
19707SOL    HW160562   7.387   1.205   5.896 -0.7736 -0.4349 -1.1496
19707SOL    HW260563   7.364   1.329   5.813 -1.1330  1.2640  1.4034
19708SOL     OW60564   5.262   2.502  10.202  0.5219  0.5349  0.5672
19708SOL    HW160565   5.340   2.532  10.155 -0.2824  1.8669  0.0382
19708SOL    HW260566   5.196   2.490  10.134  0.5315 -1.6248  0.8735
19709SOL     OW60567   6.551   2.939  12.420  0.1566  0.2739  0.7044
19709SOL    HW160568   6.642   2.948  12.391 -0.7743 -0.6390 -3.0151
19709SOL    HW260569   6.558   2.901  12.508  3.3395  0.9177  0.8648
19710SOL     OW60570   3.671   6.939   2.353 -0.3191  0.1760  0.2778
19710SOL    HW160571   3.748   6.977   2.310  0.2125  0.5911  1.5287
19710SOL    HW260572   3.651   6.860   2.303  0.7719  0.2014 -0.2153
19711SOL     OW60573   4.749   2.216  11.802 -0.0359 -0.3504 -0.4704
19711SOL    HW160574   4.715   2.139  11.756  1.0872 -0.7104 -0.7222
19711SOL    HW260575   4.671   2.262  11.832 -0.7735 -0.6992 -1.7645
19712SOL     OW60576   7.917   7.713  11.600  0.6180 -0.4013 -0.1632
19712SOL    HW160577   8.003   7.681  11.627  0.3393 -0.2200  1.0125
19712SOL    HW260578   7.928   7.808  11.592  0.5614 -0.3915 -0.1268
19713SOL     OW60579   4.310   0.165   3.342  0.0500 -0.1250  0.1985
19713SOL    HW160580   4.323   0.250   3.383  1.6424 -1.0140  1.6847
19713SOL    HW260581   4.397   0.143   3.308 -0.5577 -0.7677 -0.9723
19714SOL     OW60582   4.134   0.267  10.417  0.1306  0.7768  0.0070
19714SOL    HW160583   4.078   0.263  10.339  1.3741 -1.1825 -0.8688
19714SOL    HW260584   4.222   0.250  10.383  0.9198  1.4344  1.6606
19715SOL     OW60585   1.133   6.129   2.359  0.2909 -0.2592  0.0862
19715SOL    HW160586   1.077   6.161   2.289  2.1702  2.0159 -0.5333
19715SOL    HW260587   1.099   6.171   2.438  0.1076 -0.2507  0.0024
19716SOL     OW60588   6.160   0.445   8.674  0.0185  0.4753 -0.1407
19716SOL    HW160589   6.094   0.376   8.669  0.5507 -0.1660  1.2383
19716SOL    HW260590   6.218   0.427   8.600 -0.6950  0.3631 -0.6851
19717SOL     OW60591   0.501   2.760   5.694  0.3792 -0.5482 -0.0345
19717SOL    HW160592   0.509   2.712   5.611 -1.1950 -0.9296  0.0094
19717SOL    HW260593   0.433   2.713   5.742 -0.6136  1.2218  0.3705
19718SOL     OW60594   1.599   0.338  11.842  0.0178 -0.5434  0.1353
19718SOL    HW160595   1.625   0.251  11.872  1.6889 -0.6673 -1.5014
19718SOL    HW260596   1.523   0.323  11.786 -0.2883 -0.8282  0.6207
19719SOL     OW60597   3.633   4.256   6.820  0.4257  0.4841 -0.5480
19719SOL    HW160598   3.647   4.267   6.726  1.5684  1.6841 -0.2818
19719SOL    HW260599   3.598   4.341   6.849 -0.9116 -0.2181 -0.0386
19720SOL     OW60600   1.940   6.267  10.321  0.0238 -0.5181 -0.2010
19720SOL    HW160601   1.998   6.271  10.245 -0.8111 -1.2856 -0.8991
19720SOL    HW260602   1.927   6.173  10.336 -2.2390 -0.3830 -1.0020
19721SOL     OW60603   1.793   4.226   8.107  0.0686 -0.4381 -0.7010
19721SOL    HW160604   1.704   4.261   8.100  0.2307 -0.1491 -1.4447
19721SOL    HW260605   1.829   4.237   8.019  0.7918 -0.6857 -0.4366
19722SOL     OW60606   0.836   5.087   0.272  0.5458  0.5975  0.1374
19722SOL    HW160607   0.882   5.172   0.270  0.2061  0.7902  0.4572
19722SOL    HW260608   0.827   5.064   0.179 -0.2924  1.4259 -0.0035
19723SOL     OW60609   1.419   7.596   0.186 -0.6820  0.3198 -0.4450
19723SOL    HW160610   1.360   7.525   0.213 -1.0256  0.4026 -0.9750
19723SOL    HW260611   1.431   7.583   0.092  1.6704 -0.8432 -0.0551
19724SOL     OW60612   0.044   1.563   2.353 -0.0744 -0.2300  0.2598
19724SOL    HW160613   0.012   1.650   2.375 -0.6232 -0.1039 -0.9939
19724SOL    HW260614   0.105   1.541   2.424  0.6566  1.4695  0.1923
19725SOL     OW60615   7.867   6.724   4.928 -0.3579 -0.0316  0.3687
19725SOL    HW160616   7.920   6.659   4.974 -1.6530 -1.3468  0.0760
19725SOL    HW260617   7.832   6.780   4.997  0.3637  0.0603  0.6703
19726SOL     OW60618   7.856   3.367   6.002 -0.2777 -0.7253 -0.5132
19726SOL    HW160619   7.894   3.329   5.923 -2.5960 -3.5964 -0.4022
19726SOL    HW260620   7.767   3.392   5.977  0.3378  2.6912  0.1095
19727SOL     OW60621   4.966   5.804   6.985 -0.1267  0.0408  0.0998
19727SOL    HW160622   4.871   5.796   6.995 -0.0488 -0.8251  0.2339
19727SOL    HW260623   4.981   5.803   6.890 -0.4113  2.5085 -0.0422
19728SOL     OW60624   1.439   0.859   5.424  0.2691 -0.6559  0.2989
19728SOL    HW160625   1.352   0.897   5.410 -0.1228 -0.4685  2.7324
19728SOL    HW260626   1.429   0.767   5.401 -0.3818 -0.4888 -0.1192
19729SOL     OW60627   6.508   3.304   4.879 -0.4580 -0.4857 -0.2603
19729SOL    HW160628   6.568   3.379   4.880 -0.9612 -0.0771  0.1039
19729SOL    HW260629   6.421   3.343   4.888 -0.7652 -1.0838 -0.5837
19730SOL     OW60630   2.173   0.646   1.338 -0.2000  0.1360 -0.1195
19730SOL    HW160631   2.221   0.693   1.405 -0.1840  0.2559 -0.2156
19730SOL    HW260632   2.084   0.639   1.373 -0.0741 -0.2436  0.1382
19731SOL     OW60633   6.526   7.038   1.134  0.0149  0.1587  0.6941
19731SOL    HW160634   6.496   7.104   1.196  1.0964  0.2954  1.0928
19731SOL    HW260635   6.461   7.041   1.064 -0.3163  1.1803  1.0128
19732SOL     OW60636   4.890   4.444   2.357 -0.3546  0.3272 -0.6015
19732SOL    HW160637   4.971   4.444   2.408  0.2063 -1.4542 -1.3780
19732SOL    HW260638   4.827   4.395   2.411 -0.1331 -0.4773 -1.0532
19733SOL     OW60639   3.993   2.511  12.053  0.2112  0.6569  0.2920
19733SOL    HW160640   4.002   2.416  12.043  1.1068  0.7067  0.5341
19733SOL    HW260641   4.063   2.536  12.113 -1.5560  1.1359  2.2715
19734SOL     OW60642   6.734   7.179   2.594 -0.5416  0.2444  0.0984
19734SOL    HW160643   6.776   7.197   2.678 -1.4604  0.4132  0.5271
19734SOL    HW260644   6.735   7.083   2.588  0.9469  0.2566 -0.4516
19735SOL     OW60645   7.610   5.629   0.123  0.5759  0.3671  0.4944
19735SOL    HW160646   7.613   5.540   0.089 -0.5991  0.5196 -0.0227
19735SOL    HW260647   7.606   5.685   0.046 -0.5735  0.7824  0.8462
19736SOL     OW60648   0.308   6.055   0.233  0.5775  0.1586  0.2224
19736SOL    HW160649   0.246   6.000   0.185 -0.1594  1.8070 -0.8148
19736SOL    HW260650   0.387   6.055   0.179  0.7530 -0.2524  0.4731
19737SOL     OW60651   4.504   7.915   5.873  0.0763 -0.3771 -0.0851
19737SOL    HW160652   4.538   8.000   5.901  2.5050 -1.2206 -0.2882
19737SOL    HW260653   4.448   7.936   5.798 -1.8581  1.2884  1.6728
19738SOL     OW60654   1.572   7.404  11.776 -0.2880 -0.1322 -0.2542
19738SOL    HW160655   1.515   7.447  11.712 -0.0433 -0.8596 -0.9926
19738SOL    HW260656   1.515   7.381  11.849 -0.4238  1.3928  0.1459
19739SOL     OW60657   7.495   0.800   1.306  0.0843 -0.0608 -0.1881
19739SOL    HW160658   7.493   0.751   1.388 -0.5836 -1.1947 -0.8474
19739SOL    HW260659   7.530   0.886   1.329  0.5099 -0.5815  1.1547
19740SOL     OW60660   1.580   3.881   4.989 -0.3124 -0.1409  0.2222
19740SOL    HW160661   1.646   3.844   5.049  0.4599  0.7096 -0.0904
19740SOL    HW260662   1.564   3.969   5.022 -0.1145  0.2227 -0.6400
19741SOL     OW60663   0.681   2.568   8.873 -0.3528 -0.0757  0.2651
19741SOL    HW160664   0.592   2.576   8.906 -0.3786 -0.2609  0.2401
19741SOL    HW260665   0.709   2.480   8.900 -0.0757  0.0874  0.5262
19742SOL     OW60666   2.304   0.377  10.870 -0.2952  0.0543 -1.0217
19742SOL    HW160667   2.212   0.360  10.848 -1.3182  1.2154  1.7408
19742SOL    HW260668   2.307   0.365  10.965  1.9643  1.8894 -0.7891
19743SOL     OW60669   3.552   0.142   7.245 -0.6713  0.5575 -0.5222
19743SOL    HW160670   3.522   0.195   7.319  0.1629  1.3123 -0.7047
19743SOL    HW260671   3.489   0.069   7.240 -0.3600  0.1158  1.3368
19744SOL     OW60672   1.878   5.099   3.284 -0.1643 -0.3813  0.1040
19744SOL    HW160673   1.894   5.186   3.249  0.9544 -0.4361  0.4291
19744SOL    HW260674   1.829   5.114   3.365 -0.3509 -0.0796 -0.0656
19745SOL     OW60675   1.467   0.785   1.996  0.6629 -0.1013  0.2271
19745SOL    HW160676   1.552   0.817   2.027 -0.5006  2.2775  1.2525
19745SOL    HW260677   1.446   0.843   1.922  0.9869 -2.2854 -1.6855
19746SOL     OW60678   4.786   1.446   8.110 -0.7655  0.0224 -0.1512
19746SOL    HW160679   4.871   1.467   8.149 -1.3085  0.9677  0.5741
19746SOL    HW260680   4.742   1.393   8.176  0.1424 -2.5654 -1.4993
19747SOL     OW60681   7.879   0.437   1.216  0.0573  0.1391 -0.1984
19747SOL    HW160682   7.912   0.462   1.129 -0.7713  1.0434 -0.2643
19747SOL    HW260683   7.857   0.520   1.258  1.5137 -0.1914  1.3385
19748SOL     OW60684   1.651   2.165   4.638 -0.2373 -0.4940 -0.1772
19748SOL    HW160685   1.710   2.090   4.646  0.2695  0.0636  2.0923
19748SOL    HW260686   1.689   2.218   4.568 -0.1706 -1.9531 -1.2894
19749SOL     OW60687   6.673   4.097   2.172  0.0530 -0.4326 -0.1627
19749SOL    HW160688   6.707   4.007   2.175  0.6712 -0.2887 -1.7683
19749SOL    HW260689   6.595   4.092   2.117  0.6464  0.1489 -1.0936
19750SOL     OW60690   6.983   0.476   6.866  0.0567  0.6196  0.0729
19750SOL    HW160691   7.062   0.528   6.881 -1.6467  3.1910  0.6197
19750SOL    HW260692   6.933   0.482   6.947 -0.4187 -1.6216  0.0231
19751SOL     OW60693   2.002   7.002   8.527 -0.1005  0.2472  0.0820
19751SOL    HW160694   1.939   7.068   8.498 -0.4805 -0.2465 -0.2306
19751SOL    HW260695   1.981   6.988   8.619  1.7208  2.5154  0.9413
19752SOL     OW60696   7.858   0.308   6.655  0.1511 -0.1971 -0.2566
19752SOL    HW160697   7.792   0.335   6.591  0.9609 -0.6828 -1.3379
19752SOL    HW260698   7.808   0.272   6.728 -0.8151  0.8162 -0.3957
19753SOL     OW60699   1.855   5.325   1.166  0.3952  0.1780  0.2405
19753SOL    HW160700   1.806   5.351   1.244 -0.2927  0.4438 -0.2708
19753SOL    HW260701   1.804   5.359   1.093  0.8718 -0.3316 -0.3437
19754SOL     OW60702   1.982   6.271   0.096  0.1450  0.2647 -0.0257
19754SOL    HW160703   2.050   6.338   0.109  0.8518 -0.7198  1.6199
19754SOL    HW260704   2.031   6.193   0.067 -0.5576  0.1440 -0.9487
19755SOL     OW60705   4.448   0.912   9.851  0.2013 -0.5844 -0.1247
19755SOL    HW160706   4.481   0.963   9.777 -0.4153 -0.4726 -0.3313
19755SOL    HW260707   4.359   0.946   9.866 -0.3611 -1.8240 -0.4909
19756SOL     OW60708   3.165   6.224   3.674  0.2319 -0.2291 -0.1978
19756SOL    HW160709   3.124   6.203   3.590 -3.3998 -1.7459  1.7000
19756SOL    HW260710   3.191   6.139   3.710  0.1840  0.1838  0.8638
19757SOL     OW60711   4.982   7.977   3.315 -0.3069 -0.3590  0.1550
19757SOL    HW160712   4.910   8.038   3.329  0.0860  0.1403  0.0173
19757SOL    HW260713   5.059   8.023   3.350 -0.1147 -1.0342  0.6419
19758SOL     OW60714   3.962   1.046   1.205 -0.9910 -1.0109  0.1925
19758SOL    HW160715   3.927   1.108   1.269 -1.7181 -0.3972 -0.7743
19758SOL    HW260716   3.886   0.996   1.175 -0.8275 -0.6549 -0.8603
19759SOL     OW60717   5.637   2.125  11.469 -0.1990 -0.4912 -0.5199
19759SOL    HW160718   5.576   2.052  11.477 -0.7938  0.0644  0.2720
19759SOL    HW260719   5.707   2.104  11.530 -0.3115 -0.4602 -0.3786
19760SOL     OW60720   3.602   3.007   9.162  0.2761 -0.3966  0.7180
19760SOL    HW160721   3.598   3.063   9.239 -0.2794 -1.8951  1.8169
19760SOL    HW260722   3.649   3.060   9.097 -1.0723  1.7234  1.3441
19761SOL     OW60723   3.594   4.246  10.675  0.5434 -0.3568 -0.0767
19761SOL    HW160724   3.521   4.188  10.653  1.8311 -1.9432 -0.3911
19761SOL    HW260725   3.565   4.333  10.648 -0.7613 -1.1152 -1.2554
19762SOL     OW60726   5.552   3.218   1.301 -0.2356  0.2991 -0.0546
19762SOL    HW160727   5.512   3.165   1.232  1.2422 -1.0028  0.0393
19762SOL    HW260728   5.530   3.172   1.382 -1.5654  1.5677  0.3545
19763SOL     OW60729   2.295   4.438  11.663 -0.2033  0.3687 -0.2414
19763SOL    HW160730   2.332   4.352  11.684 -0.3956  0.3136 -0.1249
19763SOL    HW260731   2.275   4.477  11.749 -2.7012 -0.5985 -0.3206
19764SOL     OW60732   0.648   7.571   0.103 -0.5003  0.4342 -0.4696
19764SOL    HW160733   0.584   7.509   0.136  1.1940 -1.3031 -0.2922
19764SOL    HW260734   0.732   7.540   0.136  0.5047  2.4723 -0.9151
19765SOL     OW60735   1.135   2.254   8.138  0.2148 -0.2652 -0.0028
19765SOL    HW160736   1.186   2.203   8.201 -1.5102  0.0733  1.7492
19765SOL    HW260737   1.196   2.321   8.106  1.0505 -0.2472  1.5419
19766SOL     OW60738   6.988   7.064   7.570  0.0829  0.2786 -0.4165
19766SOL    HW160739   6.970   6.999   7.502  0.0422 -1.3121  1.0512
19766SOL    HW260740   6.903   7.084   7.608 -0.0542  2.0512 -1.5450
19767SOL     OW60741   1.270   2.245  11.680 -0.1044  0.5559  0.5762
19767SOL    HW160742   1.322   2.250  11.601  0.3766 -1.0740  0.7549
19767SOL    HW260743   1.326   2.280  11.749 -0.2164  1.1946  0.3485
19768SOL     OW60744   6.406   4.866   8.057  0.2924 -0.5023 -0.8723
19768SOL    HW160745   6.380   4.958   8.055  0.2820 -0.4672  0.1950
19768SOL    HW260746   6.324   4.819   8.071  0.6492 -0.4050  2.2959
19769SOL     OW60747   5.236   0.518   5.422 -0.2416 -0.4217 -0.4474
19769SOL    HW160748   5.255   0.425   5.426 -1.5317 -0.6709  1.4352
19769SOL    HW260749   5.153   0.523   5.375 -0.9176 -0.4093  0.6933
19770SOL     OW60750   0.205   0.388   7.014 -0.3761 -0.4958 -0.3560
19770SOL    HW160751   0.269   0.345   7.071 -1.4570 -0.7530  0.7165
19770SOL    HW260752   0.136   0.416   7.073  0.2839  2.8570 -0.9825
19771SOL     OW60753   1.048   5.436   7.691  0.3893  0.6850  0.3882
19771SOL    HW160754   1.024   5.518   7.735  0.5431  0.2136  1.3755
19771SOL    HW260755   0.984   5.373   7.725  0.4789  0.3240 -0.1196
19772SOL     OW60756   3.274   6.070   2.399 -0.5473  0.3781 -0.1322
19772SOL    HW160757   3.319   6.075   2.484  0.0642  1.4277 -0.4938
19772SOL    HW260758   3.344   6.049   2.336 -0.8728  0.3184 -0.4810
19773SOL     OW60759   7.540   7.262   6.254  1.1510  0.0010 -0.1611
19773SOL    HW160760   7.481   7.281   6.182  2.1897 -0.6097 -1.2160
19773SOL    HW260761   7.588   7.184   6.226  1.5767 -0.2620  1.1962
19774SOL     OW60762   1.518   6.294   6.343  0.0782  0.1655  0.5887
19774SOL    HW160763   1.494   6.358   6.276 -1.1318  1.2347  1.9613
19774SOL    HW260764   1.441   6.237   6.351  0.7512 -0.8343  0.1127
19775SOL     OW60765   1.873   7.759   0.963  0.6848  0.1834  0.1656
19775SOL    HW160766   1.901   7.837   1.011 -1.0858 -0.0373  1.6447
19775SOL    HW260767   1.789   7.784   0.924 -0.1992 -1.1504  1.1588
19776SOL     OW60768   1.028   6.821   4.930  0.0997  0.1311 -0.0639
19776SOL    HW160769   0.956   6.777   4.976 -0.0629  0.7075  0.2430
19776SOL    HW260770   1.045   6.899   4.982  0.8584  0.0714 -0.2190
19777SOL     OW60771   3.647   6.209   0.148 -0.1987  0.7411 -0.3271
19777SOL    HW160772   3.718   6.212   0.083 -0.1038  2.2584 -0.1964
19777SOL    HW260773   3.577   6.260   0.108 -0.7786  0.2539  0.0606
19778SOL     OW60774   0.732   4.503  10.233 -0.0523  0.0969  0.0159
19778SOL    HW160775   0.785   4.554  10.172  1.0022 -0.8284  0.1227
19778SOL    HW260776   0.742   4.548  10.317 -0.8425  0.8993 -0.2989
19779SOL     OW60777   3.993   7.807   1.965 -1.0816  0.2419  1.0227
19779SOL    HW160778   3.982   7.811   2.060  1.3980 -2.5913  1.6030
19779SOL    HW260779   4.067   7.865   1.947 -0.1247 -0.8606  1.2372
19780SOL     OW60780   1.751   6.466   4.362 -0.3992 -0.1612 -0.2594
19780SOL    HW160781   1.741   6.390   4.419 -1.5649  0.0142 -0.2051
19780SOL    HW260782   1.661   6.496   4.346 -0.1723 -0.4974 -2.5743
19781SOL     OW60783   5.567   4.855   4.899 -0.1960 -0.0821 -0.1618
19781SOL    HW160784   5.636   4.841   4.835 -0.7004  0.5886 -0.8795
19781SOL    HW260785   5.487   4.830   4.854 -0.9138  3.0261 -0.8726
19782SOL     OW60786   2.656   6.707   4.132  0.4824  0.2433 -0.3847
19782SOL    HW160787   2.650   6.709   4.036  2.0565  1.3176 -0.4937
19782SOL    HW260788   2.717   6.777   4.154 -0.5588  0.6203  1.4913
19783SOL     OW60789   5.265   6.706   0.046 -0.1117  0.4532  0.2196
19783SOL    HW160790   5.197   6.757   0.090 -0.8375 -1.2309  1.1615
19783SOL    HW260791   5.253   6.725  -0.047 -2.2365 -0.1968  0.3215
19784SOL     OW60792   0.343   0.211   8.968 -0.1207  0.1328  0.0201
19784SOL    HW160793   0.333   0.263   8.888  1.4057  1.0430  0.3916
19784SOL    HW260794   0.435   0.188   8.970 -0.3113 -0.5629  1.1245
19785SOL     OW60795   7.623   3.610   1.256  0.6118 -0.2685  0.6197
19785SOL    HW160796   7.620   3.613   1.161  2.5806 -2.0902  0.4363
19785SOL    HW260797   7.541   3.650   1.284  0.3510  1.0673 -1.7931
19786SOL     OW60798   4.706   0.316   3.648 -0.1363  0.1068 -0.2412
19786SOL    HW160799   4.673   0.250   3.708  1.7397 -1.3639 -0.7414
19786SOL    HW260800   4.637   0.383   3.646 -1.2052 -0.8449  1.8151
19787SOL     OW60801   4.100   2.419   1.783 -0.0812 -0.4091 -0.5929
19787SOL    HW160802   4.012   2.453   1.765 -0.0555 -0.7409 -1.3791
19787SOL    HW260803   4.121   2.365   1.707  0.9170 -0.1114 -0.5480
19788SOL     OW60804   4.376   2.536   1.451 -0.4523  0.5816 -0.2788
19788SOL    HW160805   4.315   2.470   1.484 -1.1638  0.1918 -2.2711
19788SOL    HW260806   4.380   2.521   1.357  3.2933  0.1237 -0.2091
19789SOL     OW60807   7.259   0.255  11.576 -0.3337  1.1031  0.3370
19789SOL    HW160808   7.208   0.182  11.543  1.7528 -0.5279  0.4787
19789SOL    HW260809   7.350   0.234  11.553  0.6479  2.3712  2.6065
19790SOL     OW60810   0.736   6.962   5.858 -1.1376  0.4823  0.9272
19790SOL    HW160811   0.702   7.042   5.899 -0.6775  1.2264 -0.1002
19790SOL    HW260812   0.658   6.920   5.820 -1.5353 -0.1121  2.3474
19791SOL     OW60813   7.814   7.732   3.878  0.4891 -0.0801  0.2009
19791SOL    HW160814   7.774   7.817   3.895 -0.1577 -0.7128  2.0869
19791SOL    HW260815   7.742   7.676   3.850  0.8349 -0.1264 -0.6128
19792SOL     OW60816   7.093   1.863   3.053 -0.7940  0.1799  0.2531
19792SOL    HW160817   7.123   1.837   3.140 -0.1897  2.0052  0.6222
19792SOL    HW260818   6.998   1.858   3.058 -0.7475 -0.2598  0.8292
19793SOL     OW60819   3.961   7.663   9.022 -0.1214 -0.3713  0.0230
19793SOL    HW160820   3.872   7.646   9.052 -0.4753  1.6740  0.2679
19793SOL    HW260821   3.957   7.750   8.982  1.5038 -0.7801 -1.1419
19794SOL     OW60822   0.945   1.432   2.549 -0.3628  0.0254  0.4353
19794SOL    HW160823   1.026   1.464   2.508  0.2928  0.3535  1.9259
19794SOL    HW260824   0.878   1.444   2.482  0.5847  0.9313 -0.3898
19795SOL     OW60825   4.488   7.467   0.532  0.5082  0.5270  0.1768
19795SOL    HW160826   4.499   7.393   0.593  0.5211 -0.1445 -0.6168
19795SOL    HW260827   4.398   7.497   0.547 -0.7111 -1.8063 -1.7747
19796SOL     OW60828   0.998   7.318   2.385 -0.5368  0.1631 -0.1021
19796SOL    HW160829   1.010   7.408   2.413  0.3122 -0.5818  2.2365
19796SOL    HW260830   0.904   7.302   2.396 -0.3927  0.2204  1.5216
19797SOL     OW60831   6.995   0.292   4.919 -0.0908 -0.3861 -0.4103
19797SOL    HW160832   7.063   0.226   4.908  1.2500  0.4866  1.9837
19797SOL    HW260833   7.025   0.367   4.868 -0.5768 -0.8650 -1.4288
19798SOL     OW60834   6.835   5.983   1.833 -0.3964  0.4016 -0.4673
19798SOL    HW160835   6.926   5.986   1.861 -0.1083  0.2875 -1.3532
19798SOL    HW260836   6.797   6.064   1.866  0.6225  1.5848 -2.0102
19799SOL     OW60837   5.167   7.604   5.512  0.4226  0.5850  0.6022
19799SOL    HW160838   5.145   7.519   5.474  0.5690  0.2445  1.2609
19799SOL    HW260839   5.085   7.653   5.508  0.5974  0.8218 -0.7820
19800SOL     OW60840   0.449   5.683   0.810  0.0850  0.0793  0.3926
19800SOL    HW160841   0.496   5.766   0.806 -0.1575  0.1798 -1.1716
19800SOL    HW260842   0.361   5.704   0.780  0.0274 -0.7343 -0.0288
19801SOL     OW60843   2.091   7.500   8.800 -0.5758  0.2746 -0.1938
19801SOL    HW160844   2.058   7.567   8.860  0.3263  1.5196 -1.0371
19801SOL    HW260845   2.180   7.529   8.779 -0.2338 -1.1008 -0.7273
19802SOL     OW60846   2.300   1.326   0.531  0.5190 -0.2421 -0.2220
19802SOL    HW160847   2.269   1.383   0.461  0.9859 -0.6671 -0.7860
19802SOL    HW260848   2.395   1.324   0.521  0.5652 -0.5673  0.2227
19803SOL     OW60849   6.266   4.149   3.135 -0.6811 -0.1629 -0.1869
19803SOL    HW160850   6.200   4.095   3.090  0.5879 -0.0135 -2.4185
19803SOL    HW260851   6.335   4.086   3.160 -0.8849 -0.0837  0.5829
19804SOL     OW60852   5.988   4.522   7.177 -0.9891  0.1431 -0.5085
19804SOL    HW160853   5.924   4.586   7.145  0.3116  1.0604 -1.3463
19804SOL    HW260854   5.967   4.513   7.270 -2.7661 -0.1140 -0.8843
19805SOL     OW60855   2.842   5.722   7.879 -0.1228 -0.2681 -0.0443
19805SOL    HW160856   2.872   5.714   7.789  1.1456 -0.8705  0.4133
19805SOL    HW260857   2.856   5.814   7.902 -1.8728  0.2555 -0.9210
19806SOL     OW60858   0.468   7.670   5.938  0.2354 -0.4122  0.2188
19806SOL    HW160859   0.402   7.635   5.998  0.4048  1.1649  1.3911
19806SOL    HW260860   0.423   7.741   5.893  0.7310 -0.2158  0.0332
19807SOL     OW60861   3.431   2.052  11.064 -0.1817 -0.1778  0.6264
19807SOL    HW160862   3.426   1.959  11.045  0.4542 -0.0980  0.0315
19807SOL    HW260863   3.430   2.094  10.978 -0.2314  0.3495  0.8803
19808SOL     OW60864   3.701   7.086   0.184  0.0370  0.1322  0.5741
19808SOL    HW160865   3.672   7.017   0.123 -0.2404  0.1276  0.7087
19808SOL    HW260866   3.641   7.159   0.167  0.8906  0.6796 -0.2030
19809SOL     OW60867   7.477   2.136   1.765 -0.1538  0.0168  0.6841
19809SOL    HW160868   7.383   2.149   1.781 -0.3477 -1.0467  0.4864
19809SOL    HW260869   7.506   2.077   1.834  0.1514 -0.4095  0.2071
19810SOL     OW60870   1.987   6.747   5.902  0.6964 -0.2123  0.0848
19810SOL    HW160871   2.011   6.708   5.818 -0.7563  0.2873 -0.6036
19810SOL    HW260872   1.977   6.840   5.884  2.0099  0.1862  1.2206
19811SOL     OW60873   2.292   6.019   7.414 -0.2417 -0.1108  0.0576
19811SOL    HW160874   2.375   5.987   7.449 -1.0959 -1.7615  0.6844
19811SOL    HW260875   2.266   6.090   7.473  0.3828 -0.0513  0.2652
19812SOL     OW60876   7.132   5.682   6.439 -0.3948  0.0900  0.0594
19812SOL    HW160877   7.057   5.641   6.395 -0.1436  0.8309 -1.1305
19812SOL    HW260878   7.102   5.771   6.457 -0.1759  0.0574  0.5757
19813SOL     OW60879   5.073   5.516   8.741 -0.5300  0.1019  0.3537
19813SOL    HW160880   5.152   5.468   8.767 -0.5854 -0.5437 -0.5925
19813SOL    HW260881   5.001   5.458   8.765 -0.7627  0.8407  1.5360
19814SOL     OW60882   2.497   4.453   6.831 -0.2729  0.1602 -0.1794
19814SOL    HW160883   2.522   4.486   6.745  0.4754 -0.2325 -0.1281
19814SOL    HW260884   2.520   4.360   6.828  1.2903  0.4675  0.9787
19815SOL     OW60885   5.714   2.484   0.915  0.5807 -0.2783  0.2963
19815SOL    HW160886   5.797   2.529   0.930 -0.1012  1.4142 -0.6713
19815SOL    HW260887   5.689   2.449   1.000  1.5625  0.4562  0.9071
19816SOL     OW60888   0.379   0.182   0.126  0.1704  0.0369 -0.5781
19816SOL    HW160889   0.342   0.131   0.198 -0.1895  0.8616 -0.1602
19816SOL    HW260890   0.427   0.119   0.074  1.2121 -0.4359  0.8950
19817SOL     OW60891   2.990   6.595   1.663 -0.1963  0.2765 -0.0363
19817SOL    HW160892   2.947   6.516   1.696 -0.8005  0.5078 -0.2511
19817SOL    HW260893   2.926   6.634   1.604  0.6767  0.1128 -1.1277
19818SOL     OW60894   7.593   7.287   3.840 -0.2150  0.6383  0.3012
19818SOL    HW160895   7.569   7.196   3.824  1.0482  0.1858  0.8552
19818SOL    HW260896   7.526   7.320   3.900 -0.5282  0.0024  0.3086
19819SOL     OW60897   6.840   1.452   8.126  1.2267 -0.8107  0.0997
19819SOL    HW160898   6.927   1.426   8.098  1.2912 -1.6002  0.9909
19819SOL    HW260899   6.783   1.430   8.052  1.8244  0.1360 -0.6696
19820SOL     OW60900   1.040   0.119   0.007  0.1884 -0.1154  0.1789
19820SOL    HW160901   1.105   0.173   0.051 -1.0227  1.6447 -0.0968
19820SOL    HW260902   1.016   0.168  -0.071 -0.3166 -1.4846 -0.5609
19821SOL     OW60903   4.807   1.135   7.121  0.5048 -0.8004 -1.0320
19821SOL    HW160904   4.769   1.125   7.208  1.6504  0.5174 -0.3380
19821SOL    HW260905   4.735   1.166   7.066  0.6084  2.4255  0.4217
19822SOL     OW60906   4.400   7.322   7.290  0.1421  0.3117 -0.0746
19822SOL    HW160907   4.413   7.417   7.289 -1.1312  0.5100 -1.2739
19822SOL    HW260908   4.470   7.289   7.347  1.0733  1.8914 -0.2230
19823SOL     OW60909   0.485   5.484   9.883  0.0597 -0.4372  0.3174
19823SOL    HW160910   0.497   5.409   9.824 -0.5735 -1.3163  1.2682
19823SOL    HW260911   0.431   5.545   9.833 -0.2813 -1.0702 -0.1094
19824SOL     OW60912   1.491   7.552  10.837 -0.3587 -0.8137  0.0202
19824SOL    HW160913   1.575   7.597  10.833 -0.2858 -1.0460 -2.0293
19824SOL    HW260914   1.513   7.462  10.858 -0.2674 -0.5719  1.0683
19825SOL     OW60915   3.454   6.322  11.020 -0.1418 -0.1743  0.6172
19825SOL    HW160916   3.540   6.351  11.050  0.0850  2.2210 -1.9372
19825SOL    HW260917   3.471   6.281  10.935 -1.3311 -1.4918  0.9828
19826SOL     OW60918   3.030   2.225   8.122 -0.3448  0.1347 -0.0943
19826SOL    HW160919   3.020   2.316   8.093  0.2989 -0.4290 -2.3286
19826SOL    HW260920   2.987   2.222   8.207 -0.5234  2.4821 -0.0254
19827SOL     OW60921   7.271   2.586   3.853  0.1373 -0.1415 -0.0006
19827SOL    HW160922   7.332   2.640   3.902  0.6346  2.2225 -2.9846
19827SOL    HW260923   7.298   2.496   3.873  1.6398  0.7203  2.2682
19828SOL     OW60924   6.497   0.252   9.757  0.6440  0.1209 -0.1673
19828SOL    HW160925   6.464   0.165   9.778 -0.1059  0.4797  0.1815
19828SOL    HW260926   6.492   0.300   9.839 -0.0935  0.8420 -0.6190
19829SOL     OW60927   4.261   4.046  12.082  0.3203  0.5438 -0.7997
19829SOL    HW160928   4.294   4.036  12.172  1.6904  1.8514 -1.1223
19829SOL    HW260929   4.204   4.122  12.086 -0.2072  0.1541 -0.8909
19830SOL     OW60930   3.744   1.654   6.194  0.2309  0.2817  0.0509
19830SOL    HW160931   3.778   1.723   6.136 -0.2733 -1.4873 -2.4762
19830SOL    HW260932   3.672   1.696   6.241 -0.0079  1.5164 -1.3468
19831SOL     OW60933   5.212   1.801   0.778 -0.2981  0.0517 -0.3812
19831SOL    HW160934   5.200   1.896   0.781 -1.1664 -0.0723  1.3453
19831SOL    HW260935   5.243   1.784   0.689  0.7663  2.0339 -0.4586
19832SOL     OW60936   2.154   3.108   2.240  0.0419 -0.2791 -0.8863
19832SOL    HW160937   2.175   3.167   2.168  0.7862  0.2198 -0.2846
19832SOL    HW260938   2.139   3.023   2.199  0.3329  0.0287 -1.6377
19833SOL     OW60939   4.760   4.382   2.143  0.0457  0.5560  0.2675
19833SOL    HW160940   4.801   4.417   2.222 -1.4335  0.1938  1.2445
19833SOL    HW260941   4.677   4.430   2.136 -1.4541 -1.7461  0.9310
19834SOL     OW60942   3.266   7.322  12.047  0.3740 -0.1180  0.2520
19834SOL    HW160943   3.322   7.284  12.114 -0.8498 -1.2600  0.6645
19834SOL    HW260944   3.178   7.318  12.084 -0.2897 -0.4329 -1.2701
19835SOL     OW60945   1.849   2.071  11.837  0.2752 -0.2950 -0.3575
19835SOL    HW160946   1.850   2.132  11.763 -0.0914 -0.3656 -0.4231
19835SOL    HW260947   1.757   2.045  11.845  0.3921 -0.6531 -0.1750
19836SOL     OW60948   3.388   4.769  11.084 -0.3381  0.3042 -0.2252
19836SOL    HW160949   3.445   4.753  11.159 -0.9198 -0.0969  0.1444
19836SOL    HW260950   3.363   4.681  11.054  0.9965  0.4015 -1.7768
19837SOL     OW60951   1.584   3.631   7.184  0.9202  0.0376 -0.3209
19837SOL    HW160952   1.494   3.599   7.176 -0.4810  2.7590  2.5395
19837SOL    HW260953   1.623   3.576   7.252  1.1631 -0.5407 -0.9124
19838SOL     OW60954   7.859   7.783   9.353 -0.0245  0.2774 -0.0902
19838SOL    HW160955   7.853   7.785   9.448  1.4691  0.1215  0.0344
19838SOL    HW260956   7.815   7.702   9.328 -1.2164  0.7688  0.3860
19839SOL     OW60957   4.467   5.985   3.447 -0.2108 -0.1589 -0.4983
19839SOL    HW160958   4.423   6.050   3.392  1.0468  0.9917 -0.2143
19839SOL    HW260959   4.559   6.014   3.448  0.8916 -3.1590 -2.1155
19840SOL     OW60960   6.863   4.598   5.787 -0.2531 -0.7942 -0.3514
19840SOL    HW160961   6.803   4.530   5.817 -0.7658  0.0368  0.5952
19840SOL    HW260962   6.813   4.648   5.722 -0.2492 -0.7121 -0.2932
19841SOL     OW60963   1.398   4.131   9.230 -0.0730 -0.0730 -0.0017
19841SOL    HW160964   1.389   4.222   9.204 -0.6167  0.4984  2.0321
19841SOL    HW260965   1.480   4.129   9.280 -1.1274 -0.2008  1.7916
19842SOL     OW60966   2.893   1.008   9.138  0.4299  0.1249 -0.2006
19842SOL    HW160967   2.901   0.946   9.065 -1.1757  1.0287 -1.1962
19842SOL    HW260968   2.940   1.086   9.108 -0.9564  0.8140 -0.6954
19843SOL     OW60969   5.433   0.287   4.935  0.0753  0.1820 -0.9106
19843SOL    HW160970   5.428   0.193   4.951 -0.0983  0.2763 -0.4109
19843SOL    HW260971   5.522   0.302   4.904  0.1448 -0.1225 -0.8551
19844SOL     OW60972   1.051   3.592   4.705  0.0732  0.5487  0.3052
19844SOL    HW160973   0.984   3.635   4.652 -1.6169 -0.3430  1.6099
19844SOL    HW260974   1.029   3.616   4.795  1.3434 -0.0167  0.7808
19845SOL     OW60975   5.109   6.091   7.007  0.3612  0.1461 -0.2359
19845SOL    HW160976   5.145   6.091   6.918  1.2729 -3.3982 -0.0051
19845SOL    HW260977   5.029   6.038   7.000 -0.3410  1.0221  0.8385
19846SOL     OW60978   0.457   4.578  11.466 -0.0902  0.3231 -0.0377
19846SOL    HW160979   0.417   4.496  11.437 -0.4474  0.1555  0.8850
19846SOL    HW260980   0.412   4.599  11.547  2.5832 -0.5979  1.8435
19847SOL     OW60981   2.551   7.630   0.337 -0.3756  0.2622  0.4574
19847SOL    HW160982   2.558   7.672   0.251  0.1956 -0.8223 -0.0514
19847SOL    HW260983   2.581   7.697   0.399  0.4838  0.6295 -0.3230
19848SOL     OW60984   5.266   7.725   6.680 -0.2216  0.1957  0.4165
19848SOL    HW160985   5.229   7.662   6.618 -1.8240  0.1338  1.3721
19848SOL    HW260986   5.309   7.791   6.626 -2.6667  0.8424 -0.8960
19849SOL     OW60987   6.737   1.421   1.895  0.2200 -0.0708  0.4444
19849SOL    HW160988   6.656   1.407   1.944 -2.1549  2.1133 -2.4794
19849SOL    HW260989   6.713   1.406   1.803  2.6808  2.1939 -0.7186
19850SOL     OW60990   3.945   4.362  12.284  0.2880 -0.3133 -0.4421
19850SOL    HW160991   3.852   4.380  12.298  0.5713  0.0157  1.2842
19850SOL    HW260992   3.953   4.267  12.292  0.0485 -0.3894 -1.0485
19851SOL     OW60993   5.129   7.711   4.301  0.2086  0.0117  0.1569
19851SOL    HW160994   5.107   7.683   4.213  0.3004 -1.1896  0.4988
19851SOL    HW260995   5.066   7.667   4.358 -1.2969  2.4871  0.5756
19852SOL     OW60996   1.614   2.481   5.361 -0.3697 -0.0064  0.2980
19852SOL    HW160997   1.703   2.463   5.330 -0.7892 -0.4179 -0.6816
19852SOL    HW260998   1.609   2.437   5.446  0.6521  0.7798  0.7863
19853SOL     OW60999   4.873   6.631   7.285  0.2149  0.2460 -0.6879
19853SOL    HW161000   4.928   6.710   7.290  0.7453 -0.1370 -0.2955
19853SOL    HW261001   4.828   6.638   7.201  1.4235  0.2138 -1.3554
19854SOL     OW61002   3.679   7.714   8.226 -0.4649 -0.7401  0.3659
19854SOL    HW161003   3.695   7.636   8.172 -1.3395 -0.5827 -0.1354
19854SOL    HW261004   3.613   7.686   8.289 -1.6089 -0.1131 -0.5207
19855SOL     OW61005   3.584   0.356   5.605 -0.4062  0.5619 -0.2008
19855SOL    HW161006   3.538   0.388   5.682 -1.6045 -0.3308 -0.5253
19855SOL    HW261007   3.626   0.434   5.568 -0.1696  1.0686  1.1009
19856SOL     OW61008   5.941   3.864   0.924 -0.2665  0.2226  0.1947
19856SOL    HW161009   5.884   3.923   0.875  0.8606  0.8182 -0.4561
19856SOL    HW261010   5.888   3.835   0.998 -1.4534  0.6211 -0.4709
19857SOL     OW61011   3.847   2.154   5.864 -0.3295 -0.3661  0.0388
19857SOL    HW161012   3.806   2.191   5.785  1.4503 -0.9538 -1.2167
19857SOL    HW261013   3.895   2.227   5.902 -1.3475 -0.0315  0.7370
19858SOL     OW61014   6.534   3.227   6.701 -0.0657  0.5332 -0.3803
19858SOL    HW161015   6.520   3.132   6.701  2.3546  0.0995  1.2844
19858SOL    HW261016   6.447   3.264   6.718 -0.5613 -1.5650  2.4147
19859SOL     OW61017   1.319   4.090   5.913 -0.0386 -0.5655  0.0138
19859SOL    HW161018   1.340   4.007   5.955  1.4956  0.1749  0.8067
19859SOL    HW261019   1.239   4.119   5.957 -0.8916 -1.8384 -0.6400
19860SOL     OW61020   0.008   6.153   4.349 -1.2702 -0.1128  0.4432
19860SOL    HW161021  -0.065   6.209   4.322 -1.9283 -0.0882  2.1883
19860SOL    HW261022  -0.013   6.127   4.438  1.3723  0.7304  1.4010
19861SOL     OW61023   1.757   1.473   9.461  0.3124 -0.4949 -0.0028
19861SOL    HW161024   1.736   1.421   9.383  2.8391 -1.0145 -0.4245
19861SOL    HW261025   1.833   1.429   9.500 -0.1614  0.4391  2.1152
19862SOL     OW61026   7.582   5.447  11.727  0.1470 -0.3743  0.4013
19862SOL    HW161027   7.523   5.477  11.797 -0.1085 -2.9687  1.4093
19862SOL    HW261028   7.534   5.376  11.685  1.8886 -1.4903  0.2111
19863SOL     OW61029   5.980   5.069   6.423  0.2817 -0.1658 -0.0087
19863SOL    HW161030   6.020   5.048   6.339  1.7220 -4.0823  1.4660
19863SOL    HW261031   6.046   5.045   6.488 -2.4498 -1.8365  2.3683
19864SOL     OW61032   5.141   7.266  11.581  0.0316 -0.3660  0.5304
19864SOL    HW161033   5.180   7.332  11.639  1.2433  0.2792 -0.9377
19864SOL    HW261034   5.074   7.313  11.532 -1.5279 -1.0888  1.8778
19865SOL     OW61035   1.711   7.571   6.910  0.3680  0.3676  0.1977
19865SOL    HW161036   1.806   7.566   6.903  0.2619 -1.2925 -0.6988
19865SOL    HW261037   1.679   7.549   6.823 -0.8428 -2.2438  1.1868
19866SOL     OW61038   1.546   3.733   3.115 -0.4037  0.3152 -0.1902
19866SOL    HW161039   1.525   3.786   3.039 -0.4095  0.2975 -0.2012
19866SOL    HW261040   1.634   3.759   3.140 -0.9638  1.4123  0.7161
19867SOL     OW61041   5.838   3.706   3.876  0.0298  0.0425  0.9563
19867SOL    HW161042   5.834   3.801   3.862  0.4319 -0.2239 -1.3051
19867SOL    HW261043   5.919   3.692   3.926  1.0990  0.7334 -0.5266
19868SOL     OW61044   3.240   3.684   2.793 -0.0434 -0.1933  0.2384
19868SOL    HW161045   3.218   3.742   2.865 -0.7314 -0.4274  0.2276
19868SOL    HW261046   3.270   3.603   2.835  0.0818 -0.1378  0.2567
19869SOL     OW61047   1.300   1.721   7.031  0.6000  0.1108 -0.2530
19869SOL    HW161048   1.362   1.758   7.094 -1.2753  1.5694  0.8646
19869SOL    HW261049   1.227   1.690   7.085  0.5055 -1.9632 -1.4766
19870SOL     OW61050   7.029   4.962   4.220 -0.2309  0.0462 -0.4076
19870SOL    HW161051   7.060   5.051   4.234 -1.6292  0.2473  1.8380
19870SOL    HW261052   6.939   4.972   4.189  0.0978 -0.5922 -1.6190
19871SOL     OW61053   4.661   5.362  10.606 -0.1407 -0.2718  0.2086
19871SOL    HW161054   4.700   5.449  10.595  3.5617 -1.8121 -0.4160
19871SOL    HW261055   4.598   5.355  10.534 -0.7942  1.9665  0.4827
19872SOL     OW61056   7.764   2.050  11.802  0.3132  0.3714 -0.0598
19872SOL    HW161057   7.781   2.047  11.896  2.5745 -0.9084 -0.4320
19872SOL    HW261058   7.696   2.117  11.792 -0.3399  0.1853  2.5000
19873SOL     OW61059   0.514   0.525   3.756  0.5150 -0.6430  0.3241
19873SOL    HW161060   0.535   0.538   3.849 -1.1327  0.3965  0.5817
19873SOL    HW261061   0.419   0.518   3.754  0.4484  0.3610 -1.4100
19874SOL     OW61062   4.700   6.404   1.201 -0.0417 -0.1839 -0.4573
19874SOL    HW161063   4.637   6.437   1.137 -0.2663 -0.9458 -0.6333
19874SOL    HW261064   4.657   6.329   1.241  0.4068 -0.1794  0.0460
19875SOL     OW61065   1.301   0.451   0.638  0.2232 -0.0516  0.1448
19875SOL    HW161066   1.380   0.474   0.687  1.6676  0.5558 -2.3110
19875SOL    HW261067   1.328   0.453   0.546 -1.9651 -2.5736 -0.6800
19876SOL     OW61068   0.213   7.389   2.281  0.3492  0.2328 -0.5466
19876SOL    HW161069   0.134   7.336   2.278 -0.1479  1.0019 -2.4101
19876SOL    HW261070   0.285   7.326   2.280 -0.2270 -0.4529  0.2211
19877SOL     OW61071   3.391   5.036   0.867  0.2689 -0.3448  0.1374
19877SOL    HW161072   3.367   5.123   0.897 -1.3440 -0.0926 -1.7078
19877SOL    HW261073   3.308   4.990   0.855  1.0927 -2.7409  2.5475
19878SOL     OW61074   4.261   7.576   6.801 -0.2855 -0.3610  0.2025
19878SOL    HW161075   4.189   7.548   6.858  0.0815 -0.7244  0.4933
19878SOL    HW261076   4.331   7.599   6.862 -0.7325  1.7183  0.0156
19879SOL     OW61077   5.320   0.418   7.175  0.4706  0.2340  0.2947
19879SOL    HW161078   5.314   0.403   7.081 -1.2273  3.4178 -0.2698
19879SOL    HW261079   5.413   0.410   7.195  1.0624  0.7458 -1.9453
19880SOL     OW61080   1.176   2.252   3.764  0.1562 -0.4124 -0.0778
19880SOL    HW161081   1.271   2.267   3.761 -0.1037  2.2451  1.4585
19880SOL    HW261082   1.149   2.289   3.848 -2.3607 -0.2956 -0.8473
19881SOL     OW61083   2.506   1.177   1.733 -0.1395 -0.3775  0.0251
19881SOL    HW161084   2.475   1.265   1.753  0.2588 -0.2491  0.0899
19881SOL    HW261085   2.570   1.189   1.663  0.1912 -0.5704  0.2898
19882SOL     OW61086   7.337   0.421   8.922  0.3979 -0.0471  0.6298
19882SOL    HW161087   7.244   0.427   8.947  0.0128  0.3619 -0.8139
19882SOL    HW261088   7.353   0.500   8.870  1.3718 -0.4508  0.2991
19883SOL     OW61089   4.033   7.514   1.077 -0.2863 -0.1964 -0.6742
19883SOL    HW161090   4.126   7.493   1.070 -0.0534  0.2881  0.6967
19883SOL    HW261091   3.992   7.465   1.006  0.5326 -3.3751  0.8440
19884SOL     OW61092   1.698   4.590   5.742  0.2138  0.4781 -0.7404
19884SOL    HW161093   1.721   4.622   5.655  0.1272 -0.1904 -1.0176
19884SOL    HW261094   1.783   4.567   5.781  0.3377  1.6314 -0.2904
19885SOL     OW61095   2.171   1.360  11.531  0.0481  0.1713 -0.6674
19885SOL    HW161096   2.217   1.334  11.611 -1.2270  0.6932  0.2671
19885SOL    HW261097   2.187   1.289  11.469  1.1302 -0.1992  0.0161
19886SOL     OW61098   3.339   1.131   8.567 -0.1717 -0.0316  0.0608
19886SOL    HW161099   3.409   1.085   8.521 -0.6395 -1.6137  0.8563
19886SOL    HW261100   3.374   1.150   8.653 -0.2863  0.3427  0.0268
19887SOL     OW61101   1.859   5.282   2.163 -0.2197 -0.0480 -0.0356
19887SOL    HW161102   1.921   5.218   2.127 -0.1840 -0.2365  0.3562
19887SOL    HW261103   1.914   5.347   2.207 -0.1505  1.1312 -1.7721
19888SOL     OW61104   0.236   6.050   2.605  0.5789 -0.0983  0.2901
19888SOL    HW161105   0.301   6.102   2.558  0.5283 -1.6963 -1.7095
19888SOL    HW261106   0.176   6.020   2.536 -0.5198 -1.1378  1.6436
19889SOL     OW61107   5.805   0.463  10.011  0.0545  0.1305  0.1487
19889SOL    HW161108   5.776   0.502  10.093 -0.4501  1.3765 -0.5911
19889SOL    HW261109   5.795   0.533   9.946  0.5767 -0.7768 -0.9504
19890SOL     OW61110   3.712   0.785  11.703  0.3844  0.1984 -0.4671
19890SOL    HW161111   3.708   0.701  11.748 -2.5398  0.7190  0.4967
19890SOL    HW261112   3.725   0.849  11.773  1.3421  0.6563 -1.0452
19891SOL     OW61113   7.858   1.500   4.363 -0.4754 -0.5853  0.0854
19891SOL    HW161114   7.787   1.555   4.330  0.1865  0.5377  0.4691
19891SOL    HW261115   7.878   1.440   4.291 -1.8197 -0.9571 -0.0113
19892SOL     OW61116   1.938   4.127   1.832 -0.4667 -0.0014  0.6342
19892SOL    HW161117   1.848   4.113   1.802 -0.3753 -0.2023  0.4502
19892SOL    HW261118   1.980   4.176   1.762 -0.7520  1.1415  1.2326
19893SOL     OW61119   1.590   1.022   5.829 -0.1950 -0.0690  0.6478
19893SOL    HW161120   1.582   1.045   5.736  0.1964 -2.1257  0.0564
19893SOL    HW261121   1.507   1.051   5.868 -1.5616 -1.5799 -0.9271
19894SOL     OW61122   0.746   3.835   2.450  0.0050 -0.0910 -0.3491
19894SOL    HW161123   0.753   3.778   2.374  1.9579  0.2484 -0.4556
19894SOL    HW261124   0.666   3.885   2.434 -0.0184 -0.5397 -1.8171
19895SOL     OW61125   3.012   6.863   6.766 -0.4440  0.3010  0.1668
19895SOL    HW161126   3.104   6.864   6.739 -0.9085  2.1576 -1.6057
19895SOL    HW261127   2.994   6.953   6.794 -1.9061  0.1693 -0.2647
19896SOL     OW61128   5.714   0.824  11.037 -0.7270  0.6108  0.1059
19896SOL    HW161129   5.724   0.733  11.065 -1.9883  0.9020  1.6693
19896SOL    HW261130   5.749   0.826  10.948 -0.5789 -1.3707  0.0750
19897SOL     OW61131   7.708   2.828   5.251  0.3217 -0.0226 -0.0780
19897SOL    HW161132   7.681   2.810   5.341  1.1846  1.0359  0.4067
19897SOL    HW261133   7.666   2.758   5.199  1.8425 -2.1568  1.4214
19898SOL     OW61134   2.453   3.124   0.848 -0.1072 -0.0076  0.2767
19898SOL    HW161135   2.416   3.057   0.906  0.6119 -1.7017 -1.1165
19898SOL    HW261136   2.530   3.155   0.895  0.6980 -1.6503  0.1258
19899SOL     OW61137   2.198   6.469   9.275 -0.5429 -0.1684  0.0607
19899SOL    HW161138   2.221   6.517   9.195 -2.4560 -0.3788 -0.6625
19899SOL    HW261139   2.276   6.417   9.294  0.5242  1.0503 -0.7735
19900SOL     OW61140   7.272   2.093   5.140 -0.3732 -0.3022  0.6627
19900SOL    HW161141   7.301   2.006   5.113 -0.7247 -0.3357  0.3924
19900SOL    HW261142   7.183   2.101   5.105 -0.7782 -0.2816  1.6530
19901SOL     OW61143   4.293   6.457   6.759  0.1335 -0.0267 -0.3588
19901SOL    HW161144   4.327   6.371   6.735  1.5660  0.7092 -1.0748
19901SOL    HW261145   4.308   6.511   6.682 -1.1687  0.7602 -0.0835
19902SOL     OW61146   2.911   5.952   0.919 -0.0407 -0.0758 -0.0869
19902SOL    HW161147   2.904   6.045   0.897 -0.6005 -0.4381 -1.5972
19902SOL    HW261148   2.821   5.924   0.936  0.2370 -0.1327  1.3523
19903SOL     OW61149   2.822   2.282   6.776  0.2664 -0.1709  0.5100
19903SOL    HW161150   2.826   2.227   6.697  2.0230  0.1178  0.3536
19903SOL    HW261151   2.873   2.359   6.754 -0.6822  0.7219  1.3605
19904SOL     OW61152   6.034   5.554   7.204  0.1830 -0.3927 -0.4598
19904SOL    HW161153   5.977   5.590   7.273  3.1517 -0.0683  2.0667
19904SOL    HW261154   5.988   5.476   7.173 -2.1953  0.5290  0.4713
19905SOL     OW61155   3.683   3.408  11.057  0.1992 -0.3769 -0.2931
19905SOL    HW161156   3.775   3.409  11.083  0.3241  0.0252 -0.7430
19905SOL    HW261157   3.682   3.367  10.971 -0.2263 -1.7681  0.3437
19906SOL     OW61158   3.315   2.684   7.381  0.7059 -0.1842 -0.1637
19906SOL    HW161159   3.351   2.748   7.442 -0.4018 -0.3412  0.6939
19906SOL    HW261160   3.262   2.626   7.436 -0.5057 -0.1978 -1.2975
19907SOL     OW61161   2.357   3.592   3.647 -0.2852  0.1598 -0.5764
19907SOL    HW161162   2.429   3.640   3.690 -1.9897 -0.5919  3.6427
19907SOL    HW261163   2.279   3.645   3.665 -1.4046 -1.3040 -0.9298
19908SOL     OW61164   5.309   1.897   4.005  0.2794 -0.1087 -0.3628
19908SOL    HW161165   5.247   1.894   3.932  1.0033 -0.9199 -0.9692
19908SOL    HW261166   5.343   1.986   4.004 -0.8777  0.3588  0.0014
19909SOL     OW61167   2.919   1.456   4.728  0.8092  0.1159 -0.4963
19909SOL    HW161168   2.869   1.516   4.672 -0.5712 -0.7666 -0.2625
19909SOL    HW261169   2.940   1.382   4.671 -1.5039 -1.2756  0.3063
19910SOL     OW61170   6.072   4.949  10.056 -0.0049  0.2402  0.1189
19910SOL    HW161171   6.036   4.962   9.968 -0.3048  0.7149  0.3052
19910SOL    HW261172   6.009   4.891  10.099 -0.9475  1.6084  0.6658
19911SOL     OW61173   4.330   2.461   1.183  0.1294 -0.6393  0.4422
19911SOL    HW161174   4.407   2.404   1.176  0.0361 -0.7044 -0.1176
19911SOL    HW261175   4.319   2.497   1.095 -1.4305 -1.8846  0.0852
19912SOL     OW61176   1.028   5.110  10.855  0.5630  0.1657 -0.4008
19912SOL    HW161177   1.076   5.046  10.801 -0.0205  0.9720 -1.9508
19912SOL    HW261178   0.993   5.172  10.791  0.4648  1.6015  1.0007
19913SOL     OW61179   0.706   5.908   5.902  0.3532  0.5225 -0.0995
19913SOL    HW161180   0.748   5.896   5.817 -1.8894 -0.9918 -1.1054
19913SOL    HW261181   0.617   5.875   5.890 -0.1584  0.5369  2.7649
19914SOL     OW61182   4.192   2.847   2.587 -0.9245  0.2330 -0.1856
19914SOL    HW161183   4.230   2.934   2.576 -1.8619  0.4445 -2.2872
19914SOL    HW261184   4.139   2.853   2.666  0.2733  1.0797  0.5861
19915SOL     OW61185   4.464   2.562   9.329 -0.0077  0.3761  0.3699
19915SOL    HW161186   4.435   2.472   9.341  2.0605 -0.3385  0.5262
19915SOL    HW261187   4.513   2.560   9.246 -2.0945  1.9878 -1.0031
19916SOL     OW61188   2.506   3.876   4.879  0.2356  0.5020 -0.0033
19916SOL    HW161189   2.422   3.838   4.854  0.7476 -0.9831  0.4502
19916SOL    HW261190   2.570   3.807   4.861  1.5042  1.9252 -1.2289
19917SOL     OW61191   1.926   2.902   5.264  0.3139 -0.2474 -0.7577
19917SOL    HW161192   1.976   2.958   5.324  1.1751 -0.6751 -1.0577
19917SOL    HW261193   1.862   2.960   5.224  0.5461  0.3067 -0.3407
19918SOL     OW61194   5.425   0.785   9.067 -0.2610  0.1386  0.4487
19918SOL    HW161195   5.466   0.869   9.091 -1.2024  1.1233 -1.1896
19918SOL    HW261196   5.499   0.727   9.049  0.4695  1.3937 -0.8526
19919SOL     OW61197   4.486   5.580   0.529  0.4971  0.1414  0.4126
19919SOL    HW161198   4.400   5.596   0.567 -0.1881 -2.2754  0.0817
19919SOL    HW261199   4.543   5.566   0.605 -0.1622 -1.4874  0.6508
19920SOL     OW61200   4.890   1.057   9.516  0.2608  0.7923 -0.4078
19920SOL    HW161201   4.975   1.097   9.536  0.2850  0.7095 -0.3439
19920SOL    HW261202   4.864   1.015   9.598  1.0020 -0.7330 -0.9094
19921SOL     OW61203   3.044   4.913   7.051  0.1750  0.1391 -0.2083
19921SOL    HW161204   3.120   4.883   7.002 -0.3626 -0.8794 -0.4449
19921SOL    HW261205   2.972   4.911   6.988  0.0438  1.6571 -0.1479
19922SOL     OW61206   3.752   5.198   2.462 -0.4138  0.4440 -0.3134
19922SOL    HW161207   3.736   5.291   2.480 -0.8332  0.1274  1.0542
19922SOL    HW261208   3.735   5.154   2.545 -0.0974 -0.8538 -0.9092
19923SOL     OW61209   7.063   0.618   4.511 -0.3181 -0.0138 -0.3257
19923SOL    HW161210   6.994   0.630   4.446  0.4158 -1.7184 -1.5000
19923SOL    HW261211   7.017   0.606   4.594 -1.4134 -0.5596 -0.9874
19924SOL     OW61212   2.818   2.170   8.867 -0.1529 -0.7393  0.1369
19924SOL    HW161213   2.886   2.139   8.926  0.5125 -0.8943 -0.6948
19924SOL    HW261214   2.736   2.151   8.913  0.2624 -2.7399  0.1701
19925SOL     OW61215   7.949   7.643   2.696 -0.2596 -0.3280  0.1987
19925SOL    HW161216   8.032   7.656   2.741 -0.4609 -0.3501  0.5831
19925SOL    HW261217   7.967   7.666   2.605 -0.0063  0.3477  0.4114
19926SOL     OW61218   2.986   2.941  12.471 -0.1556 -0.1423 -0.2677
19926SOL    HW161219   2.926   2.876  12.507  0.7417 -0.4843  0.6668
19926SOL    HW261220   3.048   2.958  12.542  0.4834  0.6546 -0.9964
19927SOL     OW61221   2.825   0.100   0.102 -0.4572  0.4230 -0.0748
19927SOL    HW161222   2.788   0.185   0.125  1.7876  1.2760  0.7532
19927SOL    HW261223   2.850   0.062   0.187  0.5931 -0.0269 -0.5653
19928SOL     OW61224   7.627   7.056   8.899 -0.0581 -0.4242  0.6462
19928SOL    HW161225   7.622   7.144   8.937  0.2113 -0.4603  0.7680
19928SOL    HW261226   7.721   7.036   8.899  0.1104  0.1392 -1.3302
19929SOL     OW61227   5.610   3.518   8.414 -0.0695 -0.1119 -0.2650
19929SOL    HW161228   5.578   3.432   8.387  0.6334 -0.0122 -1.4729
19929SOL    HW261229   5.532   3.562   8.449 -0.4580 -1.1912  0.2713
19930SOL     OW61230   2.674   1.489   9.571 -0.4511  0.0717  0.6921
19930SOL    HW161231   2.699   1.573   9.531  1.5913 -0.3749  0.9082
19930SOL    HW261232   2.616   1.448   9.507  1.1873  0.2250 -0.9693
19931SOL     OW61233   1.960   3.766   1.140  0.1551  0.3998 -0.5287
19931SOL    HW161234   1.976   3.859   1.157  0.1974  0.1128  1.1135
19931SOL    HW261235   2.045   3.725   1.148 -0.1237 -0.0134  0.5375
19932SOL     OW61236   0.639   7.619  11.340  0.4897  0.3396 -0.3292
19932SOL    HW161237   0.719   7.582  11.302 -0.3151 -2.2911  0.3112
19932SOL    HW261238   0.659   7.632  11.433  0.5749  1.0145 -0.4336
19933SOL     OW61239   5.454   1.206  12.461  0.6623 -0.1233  0.0806
19933SOL    HW161240   5.505   1.180  12.384  2.2944 -0.5082  1.2264
19933SOL    HW261241   5.374   1.155  12.456  0.5355  0.1892 -1.5802
19934SOL     OW61242   3.927   1.418   8.420 -0.5273 -0.0484 -0.3146
19934SOL    HW161243   3.904   1.396   8.510 -0.4697 -0.8860 -0.4962
19934SOL    HW261244   3.951   1.510   8.423 -0.0994 -0.1840  0.6129
19935SOL     OW61245   3.863   4.629   1.297 -0.5615 -0.5544 -0.1202
19935SOL    HW161246   3.803   4.660   1.364 -1.4286 -0.7297 -0.7895
19935SOL    HW261247   3.911   4.707   1.269 -1.0548 -0.2547 -0.1368
19936SOL     OW61248   1.623   1.309   1.437  0.0200  0.2005  0.4410
19936SOL    HW161249   1.647   1.377   1.499  0.8616  1.7871 -1.5124
19936SOL    HW261250   1.704   1.261   1.421 -0.6470 -1.6134  2.0999
19937SOL     OW61251   0.872   3.981   5.287 -0.0618  0.0401  0.3108
19937SOL    HW161252   0.926   4.025   5.221 -0.6711  1.7327  0.8929
19937SOL    HW261253   0.934   3.927   5.336  0.5442 -0.5516 -1.0577
19938SOL     OW61254   1.188   0.073   9.238 -0.5007 -0.2384  0.4916
19938SOL    HW161255   1.198   0.089   9.144 -0.3075  0.4778  0.6204
19938SOL    HW261256   1.252   0.005   9.258 -0.8477 -0.7087  0.0324
19939SOL     OW61257   3.111   4.749   9.814  0.3123  0.2079  0.0813
19939SOL    HW161258   3.107   4.689   9.739  0.4540  1.8303 -1.2916
19939SOL    HW261259   3.156   4.826   9.780 -1.1455  1.6846  1.3365
19940SOL     OW61260   0.386   6.537   4.432 -0.3163  0.2160 -0.2303
19940SOL    HW161261   0.361   6.553   4.341 -1.6965  0.0776  0.0904
19940SOL    HW261262   0.471   6.493   4.426 -0.4739  0.0231 -1.4607
19941SOL     OW61263   6.446   5.631   3.182  0.2079 -0.2342 -0.3324
19941SOL    HW161264   6.481   5.615   3.270  2.3314  0.5386 -0.9762
19941SOL    HW261265   6.446   5.726   3.174  0.9545 -0.3156 -1.4943
19942SOL     OW61266   2.743   2.450   8.384 -0.3196  0.3173  0.0058
19942SOL    HW161267   2.695   2.441   8.466 -1.1212 -2.6407 -0.6669
19942SOL    HW261268   2.834   2.432   8.408 -0.4389  0.1923  0.3782
19943SOL     OW61269   7.519   4.911   7.220 -0.2116 -0.2629  0.3824
19943SOL    HW161270   7.460   4.845   7.183  2.1245 -1.5335 -1.3215
19943SOL    HW261271   7.470   4.948   7.293 -3.0104 -1.3650 -0.7780
19944SOL     OW61272   1.736   0.520   1.017 -0.0624 -0.1390 -0.0739
19944SOL    HW161273   1.654   0.568   1.005 -0.1542 -0.3963 -0.5164
19944SOL    HW261274   1.774   0.557   1.096 -0.5066  0.1265  0.0206
19945SOL     OW61275   7.245   7.325   0.276 -0.2375 -0.4794 -0.1301
19945SOL    HW161276   7.226   7.297   0.366  0.6805 -1.6837 -0.2826
19945SOL    HW261277   7.291   7.251   0.238 -1.8092 -0.5666 -2.0380
19946SOL     OW61278   6.297   4.910  10.618 -0.0433  0.3650  0.1877
19946SOL    HW161279   6.294   5.001  10.588  1.6371  0.4233  0.1007
19946SOL    HW261280   6.380   4.877  10.583 -0.4141 -1.0548  0.6253
19947SOL     OW61281   1.811   1.447  12.290  0.2207 -0.1085  0.4865
19947SOL    HW161282   1.863   1.450  12.209 -1.0104 -2.8074 -0.5246
19947SOL    HW261283   1.769   1.361  12.288 -1.2710  0.4589  3.1573
19948SOL     OW61284   6.191   5.041   7.457 -0.4126 -0.3062 -0.0086
19948SOL    HW161285   6.127   4.975   7.483 -0.1468 -0.4286  0.3367
19948SOL    HW261286   6.166   5.119   7.507 -1.7823  0.4046 -1.6721
19949SOL     OW61287   2.176   2.689   6.839 -0.0998  0.1482  0.3019
19949SOL    HW161288   2.205   2.777   6.860  1.0099  0.4069 -2.0734
19949SOL    HW261289   2.253   2.634   6.853 -0.5462 -0.3499  0.9280
19950SOL     OW61290   0.918   3.436  10.624  0.2279 -0.0137  0.0762
19950SOL    HW161291   0.878   3.411  10.541  1.2302  0.3306 -0.5245
19950SOL    HW261292   0.979   3.365  10.645  1.8425  1.0584 -0.7902
19951SOL     OW61293   4.597   4.511   9.223 -0.1199  0.3104  0.3491
19951SOL    HW161294   4.538   4.498   9.149  0.6431 -0.8879 -0.0782
19951SOL    HW261295   4.558   4.461   9.294 -0.6826  1.1996  0.6835
19952SOL     OW61296   2.908   5.664   9.801 -0.2343  0.0986  0.1430
19952SOL    HW161297   2.815   5.680   9.819 -0.2345  0.6343 -0.2983
19952SOL    HW261298   2.926   5.580   9.842 -0.9358 -0.0445  0.1738
19953SOL     OW61299   6.868   6.612   8.355 -0.1002 -0.4977 -0.5752
19953SOL    HW161300   6.932   6.682   8.368 -0.6413 -0.3880  2.4126
19953SOL    HW261301   6.848   6.613   8.262  2.1143  1.3306 -1.1082
19954SOL     OW61302   3.000   1.282  10.376 -0.7081 -0.0118 -0.2698
19954SOL    HW161303   2.926   1.224  10.393 -0.8301  0.0609 -0.5424
19954SOL    HW261304   3.075   1.223  10.362 -0.2829 -0.0562  1.8820
19955SOL     OW61305   1.263   7.923  10.347  0.4050 -0.1478 -0.1236
19955SOL    HW161306   1.276   7.993  10.283  0.0169  1.1572  1.1719
19955SOL    HW261307   1.260   7.843  10.295  1.6806  0.7000 -1.5703
19956SOL     OW61308   7.411   7.125  11.462 -0.2266  0.3641  0.2111
19956SOL    HW161309   7.503   7.143  11.442 -0.5675  0.5983 -1.2722
19956SOL    HW261310   7.363   7.196  11.420 -1.0303  0.9524  2.0439
19957SOL     OW61311   4.122   4.550  12.178  0.1404  0.3102  0.0033
19957SOL    HW161312   4.051   4.507  12.226 -0.2350  1.7317  0.7826
19957SOL    HW261313   4.152   4.619  12.237  0.7917  1.0463 -1.1517
19958SOL     OW61314   5.067   7.859   9.010 -0.0761 -0.2368 -0.2200
19958SOL    HW161315   5.133   7.928   9.022 -0.3579 -0.0970  0.6041
19958SOL    HW261316   4.983   7.903   9.024 -0.2848 -0.6529 -0.1389
19959SOL     OW61317   3.442   5.780   4.956 -0.4144 -0.1838 -0.2805
19959SOL    HW161318   3.427   5.743   4.869  1.3863  0.3424 -0.8582
19959SOL    HW261319   3.426   5.873   4.946  0.1114 -0.0720 -0.1492
19960SOL     OW61320   0.892   1.152  12.139 -0.1963  0.0217  0.3021
19960SOL    HW161321   0.877   1.226  12.198 -0.0475  0.2182  0.0949
19960SOL    HW261322   0.983   1.160  12.113 -0.4342  0.3282 -0.4833
19961SOL     OW61323   2.758   2.145   8.135 -0.3086  0.2476 -0.2847
19961SOL    HW161324   2.722   2.057   8.127  0.6526 -0.1045 -0.9584
19961SOL    HW261325   2.782   2.169   8.045 -1.8401  1.7691 -0.3252
19962SOL     OW61326   2.834   6.068   8.851 -0.2342 -0.2644 -0.2600
19962SOL    HW161327   2.798   6.156   8.865 -0.8098 -0.7114  1.2277
19962SOL    HW261328   2.914   6.083   8.801 -0.2253  1.1137  0.1182
19963SOL     OW61329   1.213   6.399   0.433 -0.1988  0.5979  0.3705
19963SOL    HW161330   1.131   6.354   0.453 -0.8201  1.0044 -1.1590
19963SOL    HW261331   1.186   6.479   0.387  1.0467  0.7055 -0.2044
19964SOL     OW61332   1.826   7.834   2.818  0.5099  0.0754  0.2987
19964SOL    HW161333   1.920   7.826   2.803  0.4193 -1.4075  0.3647
19964SOL    HW261334   1.788   7.847   2.731  0.5422 -2.3202 -0.1464
19965SOL     OW61335   1.904   2.945  10.096 -0.3646  0.3461  0.6896
19965SOL    HW161336   1.986   2.982  10.131  0.4691 -0.4518 -0.3437
19965SOL    HW261337   1.897   2.859  10.138  0.3173 -0.3534 -0.5544
19966SOL     OW61338   7.414   4.976   3.808 -0.0528  0.5028  0.2779
19966SOL    HW161339   7.368   4.905   3.853 -1.2274  2.1577  1.8164
19966SOL    HW261340   7.346   5.019   3.756  0.3594  1.2511  0.3514
19967SOL     OW61341   7.507   0.220   0.840 -0.1167 -0.0155  0.1715
19967SOL    HW161342   7.549   0.140   0.810 -0.4636 -0.5152  0.9811
19967SOL    HW261343   7.506   0.212   0.936  2.6402  2.3350  0.5367
19968SOL     OW61344   1.342   2.453   0.918  0.0465  0.2862  0.2094
19968SOL    HW161345   1.421   2.399   0.909  0.5528  0.5582  2.3691
19968SOL    HW261346   1.292   2.410   0.989 -0.8359  1.1627  0.1342
19969SOL     OW61347   4.612   5.023   0.286  0.5388 -0.4640  0.0093
19969SOL    HW161348   4.578   4.990   0.202  0.2858  1.2768 -0.6240
19969SOL    HW261349   4.539   5.074   0.322  1.8302  1.9983 -0.5982
19970SOL     OW61350   6.978   6.175   8.260  0.0062 -0.1148  0.3304
19970SOL    HW161351   7.026   6.235   8.316 -0.2378  1.6417 -1.2613
19970SOL    HW261352   7.045   6.120   8.220  0.4112  0.4288  0.2708
19971SOL     OW61353   3.233   1.619  12.410  0.3564 -0.0192  0.2179
19971SOL    HW161354   3.299   1.589  12.473  0.2994  0.4970  0.5221
19971SOL    HW261355   3.150   1.590  12.446  0.3741 -0.2586  0.0694
19972SOL     OW61356   6.511   5.034   4.474 -0.2265  0.1137 -0.1551
19972SOL    HW161357   6.438   5.095   4.484 -1.6575 -1.4183 -0.7439
19972SOL    HW261358   6.471   4.954   4.439  1.7470 -0.7791 -0.5217
19973SOL     OW61359   3.975   0.597   5.271 -0.0609 -0.4216  0.2163
19973SOL    HW161360   3.963   0.622   5.179 -1.2950 -0.2118  0.4254
19973SOL    HW261361   3.988   0.681   5.316  2.5836 -0.6151 -0.0029
19974SOL     OW61362   4.813   7.481  11.196 -0.1164  0.4624 -0.4920
19974SOL    HW161363   4.805   7.397  11.151  3.1756 -0.1894 -0.1096
19974SOL    HW261364   4.778   7.545  11.134 -0.8640 -0.9748 -1.6120
19975SOL     OW61365   2.081   1.563   6.261 -0.5095  0.6126  0.3595
19975SOL    HW161366   2.135   1.629   6.217 -0.1778  0.4862  0.5699
19975SOL    HW261367   2.138   1.528   6.330 -0.3903 -0.4825 -0.2834
19976SOL     OW61368   0.211   0.965   6.068  0.1295 -0.4968  0.2038
19976SOL    HW161369   0.190   0.996   6.156  0.9764  2.4125 -0.5151
19976SOL    HW261370   0.303   0.988   6.056  0.1980 -1.3780 -1.2622
19977SOL     OW61371   1.535   6.863   5.547 -0.2100  0.2461  0.5308
19977SOL    HW161372   1.596   6.844   5.618  0.6237 -0.0839 -0.2484
19977SOL    HW261373   1.518   6.778   5.507  1.4325  0.7142 -1.3041
19978SOL     OW61374   1.672   2.199   5.832 -0.0637  0.4432 -0.4208
19978SOL    HW161375   1.737   2.128   5.835  0.3425  0.8406  1.7940
19978SOL    HW261376   1.598   2.165   5.884  0.1200  1.5728  0.6325
19979SOL     OW61377   7.833   4.065   9.277  0.3157  0.3004  0.4314
19979SOL    HW161378   7.744   4.098   9.268  0.2715 -0.2615 -2.0628
19979SOL    HW261379   7.829   3.976   9.240  2.0160  0.4979 -0.3252
19980SOL     OW61380   5.173   4.626   1.520 -0.1629  0.1443  0.0141
19980SOL    HW161381   5.088   4.668   1.535  1.2096  3.0324  0.4070
19980SOL    HW261382   5.219   4.635   1.604  1.1177  0.0826 -0.6664
19981SOL     OW61383   3.817   1.925   7.089 -0.2113  0.5176  0.0404
19981SOL    HW161384   3.769   1.970   7.159  1.3679  1.0121  0.8565
19981SOL    HW261385   3.874   1.864   7.135 -1.3772 -1.4282 -1.0003
19982SOL     OW61386   0.251   7.363   7.821 -0.4698  0.5872  0.0892
19982SOL    HW161387   0.207   7.279   7.809 -0.9241  0.9729 -1.0437
19982SOL    HW261388   0.342   7.347   7.799 -1.1205  1.0957 -3.5446
19983SOL     OW61389   2.250   5.139   8.697 -0.0545  0.2570  0.2858
19983SOL    HW161390   2.229   5.105   8.785 -1.4382 -0.0966 -0.1632
19983SOL    HW261391   2.267   5.232   8.711 -0.4222  0.2378  0.9054
19984SOL     OW61392   2.682   1.072   0.304  0.5613 -0.0486 -0.0616
19984SOL    HW161393   2.706   1.050   0.393  0.7925 -1.7495 -0.5116
19984SOL    HW261394   2.586   1.066   0.302  0.6102 -0.9192 -0.1332
19985SOL     OW61395   0.201   4.269   8.399  0.7402 -0.6131  0.3497
19985SOL    HW161396   0.124   4.225   8.434  0.9902 -0.5856  0.9460
19985SOL    HW261397   0.270   4.252   8.463  0.4324  2.0983  1.5676
19986SOL     OW61398   0.154   3.717  11.204  0.6975  0.5434 -0.1772
19986SOL    HW161399   0.079   3.724  11.263 -1.3709 -2.4817 -2.1326
19986SOL    HW261400   0.128   3.768  11.127  1.8594  1.6406  0.1354
19987SOL     OW61401   7.892   1.239   1.761  0.1516  0.2867 -0.2383
19987SOL    HW161402   7.838   1.274   1.691 -0.7228 -1.3229 -0.4027
19987SOL    HW261403   7.925   1.317   1.807  1.1536  1.4052 -2.6713
19988SOL     OW61404   7.777   7.426   6.750  0.3483 -0.5749  0.5045
19988SOL    HW161405   7.857   7.376   6.760 -0.2143 -1.5151  0.3953
19988SOL    HW261406   7.738   7.395   6.668 -0.6337 -0.8777  1.0649
19989SOL     OW61407   5.072   2.068   9.952 -0.2817  0.0727 -0.8330
19989SOL    HW161408   5.033   2.010  10.017  0.6417 -0.1929 -0.4892
19989SOL    HW261409   5.053   2.156   9.983  1.1919 -0.0307  0.5072
19990SOL     OW61410   3.021   1.295   1.042 -0.0294 -0.1980  0.1384
19990SOL    HW161411   3.025   1.277   0.948  1.3568 -1.0421  0.3239
19990SOL    HW261412   2.980   1.381   1.048 -1.1646 -0.6133 -1.1684
19991SOL     OW61413   2.634   5.048   7.673  0.2205  0.1342 -0.1134
19991SOL    HW161414   2.729   5.046   7.668  0.2404  0.9385 -0.0548
19991SOL    HW261415   2.612   4.980   7.737  0.6560 -1.1979 -1.3182
19992SOL     OW61416   2.095   5.987   8.629  0.6767  0.0503  0.0915
19992SOL    HW161417   2.002   5.984   8.606  1.2403  1.0789 -2.8377
19992SOL    HW261418   2.118   5.896   8.646 -1.0736 -0.0868  2.1502
19993SOL     OW61419   2.947   6.028   6.563  0.1465  0.1146 -0.2704
19993SOL    HW161420   2.911   6.106   6.605  2.1818  0.6403  0.6294
19993SOL    HW261421   2.885   5.958   6.585 -1.3618  1.3252 -0.5244
19994SOL     OW61422   1.919   6.017   1.058  0.1593 -0.3681  0.8036
19994SOL    HW161423   1.960   6.088   1.008 -0.8004 -1.3881 -1.6206
19994SOL    HW261424   1.942   6.035   1.149 -0.0841  3.0580  0.3215
19995SOL     OW61425   5.175   5.036   1.625  0.1254 -0.1685  0.0621
19995SOL    HW161426   5.109   4.970   1.604 -0.0613  0.0358 -0.0069
19995SOL    HW261427   5.129   5.098   1.682  0.6472 -0.7579  1.1430
19996SOL     OW61428   0.815   3.490  10.074 -0.0365 -0.3845 -0.1760
19996SOL    HW161429   0.840   3.525  10.159 -0.7704  0.4419 -0.2737
19996SOL    HW261430   0.722   3.511  10.066  0.2793  0.6308 -1.6682
19997SOL     OW61431   1.988   7.364   9.064 -0.3407  0.1226  0.0397
19997SOL    HW161432   2.080   7.362   9.088  0.0779 -0.2249 -1.4970
19997SOL    HW261433   1.973   7.452   9.031 -0.1988 -0.2002 -0.9382
19998SOL     OW61434   6.069   5.686   2.523 -0.2235 -0.0364  0.0579
19998SOL    HW161435   6.048   5.594   2.536  0.6461 -0.0479  1.7258
19998SOL    HW261436   6.160   5.686   2.495  0.8819  0.3703  3.2840
19999SOL     OW61437   5.495   6.850   4.211 -0.3230  0.0845 -0.0655
19999SOL    HW161438   5.436   6.903   4.265 -1.2780 -0.7207 -0.2879
19999SOL    HW261439   5.505   6.901   4.130 -0.9520  0.0942 -0.1425
20000SOL     OW61440   6.842   3.870   7.280  0.0038 -0.2993 -0.3844
20000SOL    HW161441   6.887   3.926   7.344  0.1122 -1.7291  0.8571
20000SOL    HW261442   6.901   3.795   7.269 -1.3373 -1.4697  0.0899
20001SOL     OW61443   7.620   3.208   0.200 -0.0826  0.4367 -0.0681
20001SOL    HW161444   7.550   3.261   0.238 -1.0399  0.3607 -1.6255
20001SOL    HW261445   7.589   3.187   0.112  1.4233 -0.5458 -0.4058
20002SOL     OW61446   1.700   6.082   5.752  0.2178 -0.0900  0.3044
20002SOL    HW161447   1.789   6.050   5.761 -0.1829 -1.8786 -1.4050
20002SOL    HW261448   1.692   6.106   5.660 -0.9881  0.2640  0.4775
20003SOL     OW61449   5.049   1.534   4.305  0.1126  0.2800  0.9255
20003SOL    HW161450   4.970   1.568   4.347  0.0441  1.0841  0.1676
20003SOL    HW261451   5.096   1.612   4.276  0.4575 -0.2392  0.0557
20004SOL     OW61452   4.123   0.955   3.137  0.1231  0.0102  0.2384
20004SOL    HW161453   4.134   1.046   3.163 -0.1829  0.0216  0.3384
20004SOL    HW261454   4.030   0.936   3.154  0.5037 -0.7519  1.5702
20005SOL     OW61455   5.365   5.242   6.803 -0.4100 -0.4215 -0.1506
20005SOL    HW161456   5.431   5.267   6.869 -1.4085 -0.9655  1.0976
20005SOL    HW261457   5.408   5.258   6.719  0.7717  0.6669  0.6221
20006SOL     OW61458   7.798   2.791   6.451  0.0559  0.4181 -0.2502
20006SOL    HW161459   7.800   2.741   6.532 -1.3908  0.4673 -0.1549
20006SOL    HW261460   7.799   2.725   6.382  2.2026  0.3936 -0.2580
20007SOL     OW61461   2.558   6.268   2.884 -0.6272 -0.1409 -0.0148
20007SOL    HW161462   2.609   6.339   2.924 -0.3548  0.1223 -0.8147
20007SOL    HW261463   2.613   6.235   2.813 -1.6694  0.3585 -1.0943
20008SOL     OW61464   7.302   1.220  10.642  0.3299  0.3313  0.3333
20008SOL    HW161465   7.252   1.269  10.707 -0.2059  3.0685 -1.9311
20008SOL    HW261466   7.369   1.282  10.611 -0.6880 -0.0428 -3.0769
20009SOL     OW61467   6.628   6.589   6.883 -0.0117 -0.3135 -0.0057
20009SOL    HW161468   6.691   6.542   6.829  0.4099 -0.8500  0.9162
20009SOL    HW261469   6.674   6.669   6.910  0.1323 -0.5041  0.3248
20010SOL     OW61470   1.958   3.397   0.793 -0.5954  0.1661 -0.6846
20010SOL    HW161471   1.875   3.420   0.834 -0.5435 -0.4303 -0.2322
20010SOL    HW261472   1.977   3.471   0.735 -1.2691  0.4627 -0.5419
20011SOL     OW61473   3.287   4.400  10.545 -0.8673 -0.5614 -0.1611
20011SOL    HW161474   3.251   4.434  10.626 -0.9902 -0.7653 -0.1300
20011SOL    HW261475   3.214   4.354  10.503 -0.2926 -2.2012  0.5713
20012SOL     OW61476   3.995   7.677   4.509 -0.4923 -0.0561  0.4146
20012SOL    HW161477   4.013   7.732   4.585  0.2550 -0.3977  0.4966
20012SOL    HW261478   4.016   7.589   4.538  2.4066  0.0731 -0.9366
20013SOL     OW61479   1.577   1.795  10.912  0.0631  0.2011  0.4099
20013SOL    HW161480   1.622   1.803  10.828  0.7435  0.6564  0.8095
20013SOL    HW261481   1.643   1.818  10.977 -0.7041  0.7098  1.0240
20014SOL     OW61482   0.274   5.860   7.351  0.7497  0.0235  0.3720
20014SOL    HW161483   0.199   5.828   7.302  0.9970  0.0799 -0.0530
20014SOL    HW261484   0.344   5.866   7.285  0.7318  1.3499  0.4498
20015SOL     OW61485   0.904   4.777   1.599 -0.0330 -0.0531  0.3265
20015SOL    HW161486   0.841   4.790   1.671  0.5255  0.2245  0.7748
20015SOL    HW261487   0.974   4.725   1.638  0.0922 -0.2303 -0.1316
20016SOL     OW61488   4.175   0.491  10.133 -0.5574  0.4884 -0.2438
20016SOL    HW161489   4.226   0.507  10.213  0.0302 -0.3778 -0.4242
20016SOL    HW261490   4.102   0.435  10.163  0.5712 -1.2347 -0.5473
20017SOL     OW61491   6.227   3.124   1.027 -0.1384  0.1809  0.8236
20017SOL    HW161492   6.207   3.181   0.953  0.9366  0.7327  0.9272
20017SOL    HW261493   6.158   3.142   1.091 -1.9018 -1.3291 -0.5432
20018SOL     OW61494   4.724   3.381   5.496 -0.3117 -0.1212 -0.3271
20018SOL    HW161495   4.707   3.447   5.428 -1.6518 -0.2327 -0.1223
20018SOL    HW261496   4.638   3.360   5.531  0.1295 -1.7808 -0.1746
20019SOL     OW61497   7.884   4.300   8.357 -0.4534 -0.4251  0.0491
20019SOL    HW161498   7.796   4.291   8.394 -0.8262  0.2888 -0.6487
20019SOL    HW261499   7.919   4.379   8.398 -0.4985 -0.1769 -0.3853
20020SOL     OW61500   1.339   1.977   4.760  0.3999  0.0927 -0.3519
20020SOL    HW161501   1.329   1.909   4.693 -0.6862 -0.6805  0.5446
20020SOL    HW261502   1.251   2.015   4.768  1.0899  1.9755 -1.1865
20021SOL     OW61503   2.985   4.546   1.774  0.2575 -0.0736  0.1137
20021SOL    HW161504   2.985   4.512   1.863 -0.2640  0.4649  0.3276
20021SOL    HW261505   3.021   4.475   1.721  1.5376 -0.0197  0.8827
20022SOL     OW61506   6.936   1.209   0.268  0.2560  0.2443 -0.4279
20022SOL    HW161507   6.869   1.181   0.206  0.5538  0.0248 -0.6549
20022SOL    HW261508   6.887   1.246   0.341 -0.1579 -0.8649 -0.1166
20023SOL     OW61509   7.828   0.328   3.610 -0.1142  0.4009 -0.4002
20023SOL    HW161510   7.902   0.332   3.549  0.5438 -0.4518  0.3232
20023SOL    HW261511   7.822   0.236   3.635 -1.1737  0.5302 -0.1338
20024SOL     OW61512   1.270   3.968   7.756 -0.0991  0.3284  0.0386
20024SOL    HW161513   1.281   4.021   7.835 -2.2861  0.4438  0.3169
20024SOL    HW261514   1.315   4.018   7.688 -0.9375  1.8816  0.5698
20025SOL     OW61515   7.184   1.543   1.715  0.5585 -0.1201  0.3411
20025SOL    HW161516   7.128   1.574   1.644  0.0151 -1.4761  0.1380
20025SOL    HW261517   7.260   1.504   1.671  0.7660  0.0472  0.5486
20026SOL     OW61518   2.686   7.977   5.329 -0.0949 -0.1672 -0.2895
20026SOL    HW161519   2.689   8.051   5.269  0.5765  0.0960  0.0644
20026SOL    HW261520   2.630   7.913   5.285 -0.1879  0.3074 -0.8708
20027SOL     OW61521   2.206   0.205   9.966  0.1687 -0.4103  0.3067
20027SOL    HW161522   2.120   0.226   9.929  0.5675 -0.4307 -0.6390
20027SOL    HW261523   2.186   0.176  10.056 -0.8078 -0.3937  0.1091
20028SOL     OW61524   5.264   2.471  10.484 -0.4374  0.1795 -0.2948
20028SOL    HW161525   5.178   2.445  10.517 -0.2912  0.5339  0.3840
20028SOL    HW261526   5.253   2.476  10.389 -1.0990 -0.0165 -0.2334
20029SOL     OW61527   0.667   3.474   7.671  0.2589  0.4700 -0.2068
20029SOL    HW161528   0.662   3.384   7.704  1.6322  0.2986 -0.4208
20029SOL    HW261529   0.761   3.491   7.661  0.0764  2.2124  0.6115
20030SOL     OW61530   6.003   5.571   7.825  0.0024  0.0199 -0.2341
20030SOL    HW161531   5.928   5.604   7.875 -0.6141 -1.1735 -0.3232
20030SOL    HW261532   6.062   5.535   7.892  0.9727  1.7626 -0.0783
20031SOL     OW61533   1.305   0.469  12.276 -0.0882  0.0262  0.4447
20031SOL    HW161534   1.380   0.453  12.218  0.5595  1.5718  0.8070
20031SOL    HW261535   1.230   0.474  12.216 -0.0455 -2.1722  0.1404
20032SOL     OW61536   2.916   6.522   3.513  0.9007  0.6131  0.7048
20032SOL    HW161537   2.989   6.529   3.575  0.5664  2.0648  0.9651
20032SOL    HW261538   2.945   6.569   3.436  0.5692  0.4385  0.4701
20033SOL     OW61539   4.389   6.572   9.287  1.2179 -0.0335  0.3010
20033SOL    HW161540   4.422   6.573   9.198  1.3108  1.8883  0.3123
20033SOL    HW261541   4.294   6.574   9.277  1.2356  1.5445  0.1973
20034SOL     OW61542   4.411   2.178  11.347 -0.7069 -0.0877 -0.0787
20034SOL    HW161543   4.479   2.136  11.294  1.2900  0.8953  1.5637
20034SOL    HW261544   4.428   2.272  11.338  1.3902  0.1656  4.0935
20035SOL     OW61545   2.264   6.303   2.258 -0.3816 -0.1825 -0.4012
20035SOL    HW161546   2.356   6.321   2.237 -0.5845 -1.1131 -2.3062
20035SOL    HW261547   2.269   6.243   2.333  0.5744 -0.2808 -0.5251
20036SOL     OW61548   0.331   0.060   0.368  0.1173 -0.5730 -0.2111
20036SOL    HW161549   0.408   0.004   0.378 -0.7896 -1.5801  1.7011
20036SOL    HW261550   0.328   0.112   0.448 -0.9870 -0.3010 -0.4107
20037SOL     OW61551   0.043   3.237   8.742  0.0383 -0.0441  0.1808
20037SOL    HW161552   0.121   3.287   8.719  0.9656 -0.9142  1.3014
20037SOL    HW261553  -0.030   3.287   8.706  1.1531  0.4066 -1.5630
20038SOL     OW61554   1.216   4.371   2.544 -0.0092  0.2128  0.0182
20038SOL    HW161555   1.159   4.383   2.468 -0.4565 -0.2127  0.2848
20038SOL    HW261556   1.157   4.371   2.619  0.4268  0.5893  0.3711
20039SOL     OW61557   3.024   0.727   7.662 -0.7063  0.0115  0.0932
20039SOL    HW161558   2.964   0.736   7.736  1.4020 -1.5127  2.1386
20039SOL    HW261559   3.057   0.816   7.647 -2.3937  0.6309 -0.1779
20040SOL     OW61560   2.457   7.614  11.745  0.0002 -0.2413  0.0306
20040SOL    HW161561   2.419   7.533  11.778 -0.0732 -0.9227 -1.6341
20040SOL    HW261562   2.467   7.669  11.823 -0.1631 -1.7431  1.1638
20041SOL     OW61563   6.934   1.103  10.004  0.2561  0.4681  0.4095
20041SOL    HW161564   6.998   1.139   9.942  1.0482 -0.3394  0.7327
20041SOL    HW261565   6.963   1.134  10.090  1.2563 -1.2589  0.7616
20042SOL     OW61566   7.111   0.532   1.924  0.1392  0.4245 -0.3335
20042SOL    HW161567   7.083   0.502   2.010  0.3483  0.5926 -0.2062
20042SOL    HW261568   7.106   0.454   1.869 -1.4318  0.6209 -0.5320
20043SOL     OW61569   0.137   2.131  10.007 -0.1709  0.3374 -0.4838
20043SOL    HW161570   0.071   2.116   9.938 -0.2662 -1.5399 -0.0352
20043SOL    HW261571   0.216   2.156   9.959 -0.3778 -0.4260 -1.2541
20044SOL     OW61572   3.220   5.170   1.516  0.1127 -0.0518 -0.3532
20044SOL    HW161573   3.278   5.223   1.571  0.6013 -1.3394  0.3960
20044SOL    HW261574   3.204   5.090   1.566  0.3395 -1.1497 -1.9559
20045SOL     OW61575   6.230   6.495  10.062  0.4976 -0.8256  0.2192
20045SOL    HW161576   6.144   6.454  10.051 -0.0838  0.5177 -0.4138
20045SOL    HW261577   6.292   6.432  10.026 -0.3520 -1.2552 -0.5086
20046SOL     OW61578   5.867   6.351   5.859  0.5630 -0.0291  0.0287
20046SOL    HW161579   5.816   6.272   5.840 -0.0977 -0.0139  1.6056
20046SOL    HW261580   5.905   6.336   5.945  0.7876  1.1870  0.1646
20047SOL     OW61581   3.428   4.672  12.284  0.0034  0.3138 -0.4466
20047SOL    HW161582   3.460   4.746  12.232  0.8184  0.5045  0.2945
20047SOL    HW261583   3.375   4.621  12.223 -1.3577  1.9864 -0.7558
20048SOL     OW61584   1.132   6.444   0.003 -0.4063 -0.1637 -0.0916
20048SOL    HW161585   1.059   6.455  -0.058  0.0061  0.0845 -0.5454
20048SOL    HW261586   1.190   6.381  -0.041 -1.2732 -1.9115  1.1287
20049SOL     OW61587   2.481   1.176   5.171 -0.2210  0.0165 -0.5570
20049SOL    HW161588   2.387   1.160   5.162 -0.4512  0.1102  1.3380
20049SOL    HW261589   2.494   1.266   5.141 -0.0528 -1.1166 -4.4664
20050SOL     OW61590   4.745   3.990   8.697 -0.6072 -0.0482  0.5073
20050SOL    HW161591   4.759   4.020   8.607 -1.5088  1.6693  0.8910
20050SOL    HW261592   4.667   3.934   8.693 -0.7082  0.1137  0.2360
20051SOL     OW61593   0.935   2.294   9.914  0.0331 -0.9653  0.1764
20051SOL    HW161594   0.957   2.259  10.000 -1.0117 -2.4761 -0.1315
20051SOL    HW261595   0.910   2.385   9.931  2.1231 -0.5243  1.1073
20052SOL     OW61596   5.371   2.642  12.352 -0.0767  1.0430  0.0618
20052SOL    HW161597   5.377   2.737  12.358  1.5160  0.8824  1.7749
20052SOL    HW261598   5.459   2.614  12.328 -0.1450 -0.0681  1.0307
20053SOL     OW61599   5.783   2.186   1.610 -0.1837  0.2393 -0.8194
20053SOL    HW161600   5.814   2.173   1.699  2.3509  0.3696 -1.5988
20053SOL    HW261601   5.854   2.232   1.566 -0.7443 -1.0619 -3.2935
20054SOL     OW61602   3.454   5.879  12.405 -0.1126  0.0956 -0.2945
20054SOL    HW161603   3.378   5.934  12.384  0.6943  1.5362  0.3961
20054SOL    HW261604   3.473   5.899  12.497  1.9809  0.9222 -0.8486
20055SOL     OW61605   5.394   5.410   8.081 -0.3852  0.2331 -0.7313
20055SOL    HW161606   5.317   5.370   8.040 -2.0662  2.5557 -0.0214
20055SOL    HW261607   5.429   5.469   8.014 -0.0587  0.2427 -0.5552
20056SOL     OW61608   6.317   6.610  11.360 -0.3800 -0.2819  0.2194
20056SOL    HW161609   6.243   6.580  11.307 -1.1730  1.1458  0.4693
20056SOL    HW261610   6.323   6.704  11.341  0.8194 -0.2081  0.8807
20057SOL     OW61611   4.640   1.669   0.342  0.2355 -0.1957 -0.2443
20057SOL    HW161612   4.734   1.677   0.324  1.0643 -3.0588  2.0036
20057SOL    HW261613   4.628   1.718   0.424 -0.4893  0.9402 -1.0008
20058SOL     OW61614   0.854   4.377   2.904 -0.4579  0.1787  0.5034
20058SOL    HW161615   0.830   4.414   2.989 -1.0766  0.6051  0.1500
20058SOL    HW261616   0.790   4.413   2.843 -0.8319 -1.1781  0.0785
20059SOL     OW61617   7.534   1.777   6.854  0.4754  0.2407 -0.4007
20059SOL    HW161618   7.558   1.870   6.851  0.3111  0.2690 -1.1068
20059SOL    HW261619   7.496   1.760   6.768 -1.1862 -0.0408  0.3559
20060SOL     OW61620   1.104   0.715   2.439 -0.5251  0.6227 -0.2224
20060SOL    HW161621   1.009   0.700   2.433 -0.6276  0.9206  0.5145
20060SOL    HW261622   1.143   0.629   2.423 -0.8712  0.6775 -1.4905
20061SOL     OW61623   7.664   6.420   2.749  0.1629 -0.3105  0.1497
20061SOL    HW161624   7.569   6.429   2.752  0.2712  1.8076 -0.9593
20061SOL    HW261625   7.695   6.469   2.826  0.3827  0.3203 -0.3263
20062SOL     OW61626   6.424   0.598   9.223  0.0555 -0.4059  0.2768
20062SOL    HW161627   6.489   0.543   9.268  0.3881 -1.3166 -1.2194
20062SOL    HW261628   6.397   0.545   9.147  0.3287  1.4502 -1.1939
20063SOL     OW61629   2.250   7.377   5.132  0.2418 -0.6916 -0.3534
20063SOL    HW161630   2.334   7.339   5.160  0.6632  0.8844  0.6210
20063SOL    HW261631   2.201   7.302   5.098  1.3241 -1.9743  0.7615
20064SOL     OW61632   5.747   4.498  10.571  0.6698 -0.0403  0.1261
20064SOL    HW161633   5.770   4.586  10.541 -2.2026 -0.2118 -3.0835
20064SOL    HW261634   5.701   4.513  10.654 -1.3365  1.7800 -1.2013
20065SOL     OW61635   5.597   1.159   2.807  0.4663  0.2516 -0.4685
20065SOL    HW161636   5.549   1.082   2.777  2.1465 -0.9629 -0.2146
20065SOL    HW261637   5.553   1.185   2.888  0.8815 -1.5512  0.3989
20066SOL     OW61638   7.956   5.154   1.987 -0.3948  0.5447 -0.9945
20066SOL    HW161639   7.954   5.136   1.893  1.4850  1.7368 -1.3146
20066SOL    HW261640   8.039   5.117   2.017 -0.6294  0.8234  0.0414
20067SOL     OW61641   1.750   7.664   4.431 -0.1182 -0.1503  0.0702
20067SOL    HW161642   1.764   7.753   4.465 -1.2602  0.2726 -0.5159
20067SOL    HW261643   1.655   7.654   4.429 -0.0316 -2.0068  1.6809
20068SOL     OW61644   6.336   4.935   6.501 -0.1344 -0.1844 -0.0797
20068SOL    HW161645   6.311   4.887   6.579 -0.2722 -0.6645 -0.4141
20068SOL    HW261646   6.351   5.024   6.531  0.6257 -0.5443  0.6362
20069SOL     OW61647   4.366   0.792   6.431  0.6424 -0.0508  0.3537
20069SOL    HW161648   4.418   0.713   6.418  0.7447 -0.4349  2.7299
20069SOL    HW261649   4.413   0.860   6.382  0.4366 -1.4247 -1.9060
20070SOL     OW61650   0.738   0.717   2.143 -0.4767  0.2883 -0.2587
20070SOL    HW161651   0.673   0.785   2.126  0.9623  1.7097 -0.2893
20070SOL    HW261652   0.808   0.734   2.080  0.7881 -0.0059  1.0120
20071SOL     OW61653   1.994   5.527   4.886 -0.5214  0.5384 -0.4099
20071SOL    HW161654   1.908   5.543   4.924 -0.1036  1.3702  0.2201
20071SOL    HW261655   2.025   5.614   4.859  0.3074  0.3139 -0.2114
20072SOL     OW61656   1.156   7.264  11.310 -0.4464  0.2341  0.3286
20072SOL    HW161657   1.171   7.340  11.366 -1.0618  1.4799 -1.1325
20072SOL    HW261658   1.063   7.244  11.320 -0.3760 -0.0689  0.3881
20073SOL     OW61659   0.799   6.990  10.414 -0.1265 -0.3987  0.0249
20073SOL    HW161660   0.777   7.081  10.431  0.5004 -0.2893  0.2714
20073SOL    HW261661   0.716   6.949  10.390 -0.4752  0.1512  0.2829
20074SOL     OW61662   7.217   3.401  10.929  0.9962 -0.2987  0.1650
20074SOL    HW161663   7.179   3.432  10.847 -3.0032  2.3100  2.6505
20074SOL    HW261664   7.252   3.480  10.970 -0.5568 -0.7237  2.5119
20075SOL     OW61665   7.861   1.832  12.297 -0.1677 -0.3901  0.2343
20075SOL    HW161666   7.833   1.768  12.363 -0.5130 -0.4703  0.0146
20075SOL    HW261667   7.949   1.858  12.324  0.4316 -1.7893 -0.2765
20076SOL     OW61668   3.302   5.155   5.096  0.1165  0.3954 -0.3288
20076SOL    HW161669   3.268   5.095   5.029  0.8170  0.5344 -0.8222
20076SOL    HW261670   3.331   5.231   5.047  2.2203 -0.1906 -0.0876
20077SOL     OW61671   6.966   0.271   7.886 -0.0414 -0.4197 -0.0524
20077SOL    HW161672   6.888   0.304   7.841  1.4583 -0.3628 -2.7873
20077SOL    HW261673   6.939   0.186   7.920 -1.2807 -0.4400 -1.0060
20078SOL     OW61674   4.943   6.421   1.310  0.4869  1.1186  0.4610
20078SOL    HW161675   4.856   6.397   1.279  1.4330 -1.8278 -0.2530
20078SOL    HW261676   4.958   6.365   1.385  2.2825  0.5030 -0.2952
20079SOL     OW61677   4.591   3.229   1.536 -0.7988  0.0342 -0.4955
20079SOL    HW161678   4.629   3.288   1.471 -1.5593  2.1271  0.8794
20079SOL    HW261679   4.496   3.242   1.528 -0.9081  0.1147  0.8313
20080SOL     OW61680   6.203   4.896   0.900  0.2756 -0.3833 -0.0729
20080SOL    HW161681   6.274   4.864   0.955  0.9504 -0.8679 -1.1763
20080SOL    HW261682   6.131   4.834   0.913  0.1447 -0.0506  0.8303
20081SOL     OW61683   1.840   7.481   1.638  0.5869 -0.8953 -0.0242
20081SOL    HW161684   1.822   7.526   1.721 -0.2648 -1.7984  0.3036
20081SOL    HW261685   1.914   7.424   1.657  1.1603 -0.2252 -0.2225
20082SOL     OW61686   7.666   2.782   1.714  0.0091  0.5503  0.0994
20082SOL    HW161687   7.738   2.763   1.654  0.3975  2.0104  0.0493
20082SOL    HW261688   7.606   2.836   1.662 -0.1929  0.9054  0.6897
20083SOL     OW61689   3.319   4.610  11.469  0.5708  0.7437 -0.5789
20083SOL    HW161690   3.384   4.606  11.399  0.3166  2.3045 -0.9450
20083SOL    HW261691   3.240   4.570  11.431  0.0650  2.6678 -1.6556
20084SOL     OW61692   5.373   7.743   9.240  0.1676  0.5805  0.1734
20084SOL    HW161693   5.383   7.825   9.288  1.7391  0.7063 -0.2889
20084SOL    HW261694   5.409   7.676   9.298 -0.0797  0.3895  0.1074
20085SOL     OW61695   6.799   3.787   4.617  0.2625  0.2578  0.2295
20085SOL    HW161696   6.851   3.802   4.696 -0.1504 -0.0144  0.5601
20085SOL    HW261697   6.843   3.715   4.572  0.0438 -0.1274  0.6267
20086SOL     OW61698   3.529   6.573   4.658 -0.0660 -0.3241 -0.0405
20086SOL    HW161699   3.536   6.645   4.595 -1.5928  0.3365  0.5089
20086SOL    HW261700   3.479   6.506   4.612 -0.5226 -0.1488  0.1948
20087SOL     OW61701   1.706   7.588   0.137 -0.3058 -0.3082 -0.2510
20087SOL    HW161702   1.621   7.556   0.169 -0.2000 -0.8555 -0.5109
20087SOL    HW261703   1.748   7.625   0.215 -0.0254 -1.6862  0.2751
20088SOL     OW61704   7.985   4.472   5.529  0.2964  0.4126  0.1213
20088SOL    HW161705   8.018   4.434   5.447 -0.2368 -1.0902  0.5693
20088SOL    HW261706   7.975   4.565   5.510  0.2618  0.1064 -1.4972
20089SOL     OW61707   6.711   2.492   0.610 -0.6109 -0.0766 -0.0210
20089SOL    HW161708   6.627   2.448   0.620 -0.9700  0.8429  1.2689
20089SOL    HW261709   6.748   2.494   0.698  0.4629  0.1137 -0.4631
20090SOL     OW61710   3.959   2.246   9.285  0.4304  0.1497  0.2339
20090SOL    HW161711   3.984   2.155   9.301 -0.7848 -0.1252  0.6756
20090SOL    HW261712   4.009   2.297   9.348  0.4181 -0.3073  0.6130
20091SOL     OW61713   6.890   3.284   2.910 -0.2400 -0.2833 -0.4336
20091SOL    HW161714   6.860   3.270   3.000 -1.8623  0.3222 -0.8416
20091SOL    HW261715   6.928   3.372   2.910  0.3227 -0.5248 -0.2093
20092SOL     OW61716   2.255   4.509   9.365 -0.1670  0.8596 -0.0429
20092SOL    HW161717   2.191   4.475   9.303  0.3630 -0.2748 -0.0005
20092SOL    HW261718   2.338   4.470   9.338  0.3366  1.5383  0.4811
20093SOL     OW61719   6.112   1.252  10.396  0.0010 -0.0406 -0.9058
20093SOL    HW161720   6.174   1.179  10.406  0.7902  0.8555  2.0055
20093SOL    HW261721   6.168   1.328  10.380 -0.6294  0.2723 -1.6315
20094SOL     OW61722   6.891   5.735   4.705 -0.8833  0.0712 -0.4829
20094SOL    HW161723   6.878   5.731   4.610  0.6745 -1.4410 -0.6945
20094SOL    HW261724   6.904   5.643   4.731 -0.1109  0.5692  0.9971
20095SOL     OW61725   6.526   7.501   3.100 -0.2304 -0.0254  0.1957
20095SOL    HW161726   6.555   7.410   3.111 -2.3615 -0.9540 -1.2439
20095SOL    HW261727   6.543   7.520   3.008 -1.2169  0.4680  0.1028
20096SOL     OW61728   1.301   7.461   4.329 -0.5542 -0.2340  0.0778
20096SOL    HW161729   1.223   7.441   4.278 -0.2999  0.1821 -0.4833
20096SOL    HW261730   1.284   7.423   4.415 -1.2819 -0.3351 -0.1066
20097SOL     OW61731   1.934   0.891  11.720  0.4766  0.1036  0.1784
20097SOL    HW161732   1.877   0.940  11.662  1.0288  1.4840  0.7489
20097SOL    HW261733   1.891   0.806  11.731 -1.1331  0.8766  0.0966
20098SOL     OW61734   6.879   0.016  11.697 -0.0366 -0.3037 -0.5970
20098SOL    HW161735   6.813  -0.049  11.718  0.4625 -0.9110 -0.8875
20098SOL    HW261736   6.944   0.008  11.767 -0.4446  0.5479 -0.1063
20099SOL     OW61737   1.853   6.970   9.088  0.0332 -0.4991 -0.2131
20099SOL    HW161738   1.849   7.062   9.061 -0.5156 -0.6995 -0.8431
20099SOL    HW261739   1.789   6.963   9.158  1.4214  0.0095  1.1798
20100SOL     OW61740   0.383   6.643  12.269  0.0842 -0.0787 -0.1249
20100SOL    HW161741   0.373   6.615  12.178 -0.9364  1.4082 -0.5006
20100SOL    HW261742   0.377   6.738  12.266 -2.6568 -0.0683  1.7585
20101SOL     OW61743   5.457   3.909   6.487 -0.2365 -0.0927 -0.1374
20101SOL    HW161744   5.446   3.913   6.582  0.7332 -0.5414  0.0114
20101SOL    HW261745   5.507   3.828   6.472 -0.6317 -0.1825 -1.0556
20102SOL     OW61746   7.771   0.600   4.162  0.0049 -0.1449 -0.4055
20102SOL    HW161747   7.760   0.519   4.211 -0.5129 -1.0641 -1.9633
20102SOL    HW261748   7.699   0.601   4.100  0.3068  1.2598 -0.7804
20103SOL     OW61749   2.779   3.925   5.972 -0.0399  0.9927 -0.2264
20103SOL    HW161750   2.706   3.942   6.032  0.1989  0.0657  0.3459
20103SOL    HW261751   2.793   3.830   5.978  2.1204  1.2995  0.7532
20104SOL     OW61752   1.176   2.016   0.750 -0.0902  0.3369  0.0950
20104SOL    HW161753   1.118   2.039   0.677  0.0251 -0.4631 -0.2568
20104SOL    HW261754   1.159   1.923   0.767 -0.4793  0.6224  1.4240
20105SOL     OW61755   3.838   7.691  11.734  0.1190  0.0815 -0.5314
20105SOL    HW161756   3.841   7.776  11.777  0.8982  0.1419 -0.7002
20105SOL    HW261757   3.835   7.712  11.641  2.4142 -0.0674 -0.6880
20106SOL     OW61758   5.989   2.431   3.179  0.3057  0.1070 -0.1772
20106SOL    HW161759   5.998   2.393   3.091 -0.9938 -0.6167 -0.0278
20106SOL    HW261760   5.917   2.382   3.219  0.1514  1.1591  0.9042
20107SOL     OW61761   6.470   2.709   9.857  0.4306  0.2777  0.6537
20107SOL    HW161762   6.421   2.699   9.776  1.6292  0.1593 -0.0769
20107SOL    HW261763   6.440   2.636   9.912 -1.0247  0.8609  0.6881
20108SOL     OW61764   7.827   2.062   9.297 -0.2559  0.0638  0.1094
20108SOL    HW161765   7.821   2.086   9.204  3.7988  1.5904  0.0120
20108SOL    HW261766   7.786   2.135   9.343 -0.4569  0.3104 -0.4529
20109SOL     OW61767   5.568   3.012  12.132 -0.2387 -0.0274  0.3482
20109SOL    HW161768   5.603   2.941  12.185  1.0789  0.9061  0.7834
20109SOL    HW261769   5.629   3.018  12.058 -2.1193 -1.4062 -1.4327
20110SOL     OW61770   6.341   0.900   0.082  0.6771 -0.3116  0.1100
20110SOL    HW161771   6.263   0.918   0.134  1.2310 -0.1296  0.8971
20110SOL    HW261772   6.364   0.984   0.042 -0.4006 -0.6853 -1.3842
20111SOL     OW61773   7.971   0.792   7.325 -0.3877  0.3475 -0.4125
20111SOL    HW161774   7.910   0.760   7.259  0.2901 -1.1152 -0.3758
20111SOL    HW261775   8.044   0.829   7.276  0.8567 -2.1427 -0.5995
20112SOL     OW61776   4.166   7.731   2.874 -0.5026  0.6392  0.0613
20112SOL    HW161777   4.240   7.769   2.922 -0.9208  1.1408  0.3118
20112SOL    HW261778   4.143   7.798   2.810 -0.4419  0.2851 -0.3406
20113SOL     OW61779   3.523   1.996   0.022  0.0835 -0.1353  0.1653
20113SOL    HW161780   3.527   2.060  -0.049  1.7515  0.9227  1.1583
20113SOL    HW261781   3.525   1.911  -0.022  0.5634  0.4920 -1.0725
20114SOL     OW61782   1.873   4.311  10.625 -0.0322 -0.4079 -0.1542
20114SOL    HW161783   1.826   4.233  10.598  0.1049 -0.6341  0.2597
20114SOL    HW261784   1.810   4.361  10.676  0.8656 -1.9279  2.6529
20115SOL     OW61785   7.193   2.339   3.276 -0.5507  0.2741  0.9776
20115SOL    HW161786   7.216   2.250   3.304 -2.4371 -0.2740  0.9208
20115SOL    HW261787   7.255   2.358   3.206 -0.0057 -0.9178  1.0996
20116SOL     OW61788   6.870   1.397   0.906  0.1849 -0.6341 -0.1346
20116SOL    HW161789   6.804   1.396   0.976 -1.1881 -0.4800 -1.3723
20116SOL    HW261790   6.821   1.423   0.828  1.5155 -1.5069 -1.3057
20117SOL     OW61791   2.161   6.358   1.076 -0.4113  0.4381 -0.0209
20117SOL    HW161792   2.113   6.441   1.076 -2.7475 -0.8371  0.9801
20117SOL    HW261793   2.151   6.325   0.987  0.1087  0.9802 -0.2873
20118SOL     OW61794   7.776   3.892   9.646  0.2583  0.0678  0.3583
20118SOL    HW161795   7.688   3.928   9.647  0.0609 -0.3961  0.2975
20118SOL    HW261796   7.767   3.811   9.595  0.4707 -0.5905  1.3463
20119SOL     OW61797   0.584   1.885   9.043  0.2321  0.6356 -0.9716
20119SOL    HW161798   0.642   1.818   9.005  0.9794  0.8457 -0.2242
20119SOL    HW261799   0.635   1.966   9.038  0.0349  0.8085 -0.2136
20120SOL     OW61800   5.516   1.263   5.057 -0.0520 -0.3156 -0.4564
20120SOL    HW161801   5.450   1.310   5.006 -0.9319 -0.4511  0.5141
20120SOL    HW261802   5.583   1.328   5.076 -0.8527  0.3461  0.1621
20121SOL     OW61803   5.084   4.394  11.740 -0.1649  0.3270 -0.0302
20121SOL    HW161804   5.042   4.309  11.732  1.7873 -0.6946  0.0468
20121SOL    HW261805   5.111   4.416  11.651  0.7631  0.0676  0.1724
20122SOL     OW61806   6.387   3.639   7.312 -0.1162 -0.3434  0.3995
20122SOL    HW161807   6.390   3.575   7.241 -1.3232  0.5270 -0.4932
20122SOL    HW261808   6.463   3.696   7.297  0.0035 -0.5611  0.1914
20123SOL     OW61809   1.297   5.040  10.734  0.1259  0.4517  0.2631
20123SOL    HW161810   1.235   5.058  10.664 -1.6594  1.0390  1.8835
20123SOL    HW261811   1.352   5.118  10.738 -1.1668  1.3833  0.8393
20124SOL     OW61812   7.031   0.484   2.486 -0.1585 -0.2126  0.2898
20124SOL    HW161813   7.078   0.467   2.567  1.9557 -0.3359 -0.9038
20124SOL    HW261814   7.003   0.576   2.493  1.4555  0.2962  0.5044
20125SOL     OW61815   3.630   1.268  10.284 -0.3254 -0.6649  0.0114
20125SOL    HW161816   3.705   1.328  10.287 -0.6223 -0.3097  0.4827
20125SOL    HW261817   3.566   1.307  10.344 -0.4141 -1.5867  0.5386
20126SOL     OW61818   6.774   7.582  11.368 -0.0953  0.5028  0.0126
20126SOL    HW161819   6.762   7.670  11.330 -0.3175  0.2100 -0.6213
20126SOL    HW261820   6.687   7.558  11.401 -0.2201  0.2193 -0.5025
20127SOL     OW61821   5.175   4.695   6.955 -0.0353  0.1287 -0.3513
20127SOL    HW161822   5.159   4.675   7.047 -0.0036  0.6308 -0.2347
20127SOL    HW261823   5.140   4.619   6.907 -0.9954  0.3299  0.0109
20128SOL     OW61824   5.779   0.559   0.353 -0.7238  0.0469  0.3868
20128SOL    HW161825   5.846   0.513   0.404  0.4991  1.3519  0.0224
20128SOL    HW261826   5.719   0.595   0.419  0.1625  0.6927  0.8518
20129SOL     OW61827   3.215   0.470  11.722 -0.3323  0.1003  0.3094
20129SOL    HW161828   3.267   0.550  11.729 -0.7778  0.4692 -0.5228
20129SOL    HW261829   3.236   0.421  11.802  0.7432  0.5664  0.3295
20130SOL     OW61830   3.865   5.711   0.709 -0.3247  0.3409 -0.4214
20130SOL    HW161831   3.786   5.764   0.719 -0.5749 -0.1463  0.2721
20130SOL    HW261832   3.921   5.739   0.781 -1.5383 -2.1620  1.6784
20131SOL     OW61833   2.538   4.535   5.989 -0.4668  0.1456  0.1120
20131SOL    HW161834   2.591   4.458   6.008  0.4305  1.1257  1.9141
20131SOL    HW261835   2.584   4.580   5.918  1.2897  1.0239  1.6948
20132SOL     OW61836   6.839   5.786  10.197  0.4557 -0.3137 -0.1875
20132SOL    HW161837   6.870   5.708  10.241 -0.5026 -0.8006 -0.3556
20132SOL    HW261838   6.904   5.803  10.129  1.1006 -0.4712  0.3843
20133SOL     OW61839   3.680   5.734   2.095  0.0703 -0.5826 -0.4809
20133SOL    HW161840   3.665   5.789   2.018 -0.0726 -0.7640 -0.5846
20133SOL    HW261841   3.593   5.724   2.134  0.5837  2.3673  1.6893
20134SOL     OW61842   3.195   5.414   8.982  0.3175 -0.2601  0.3473
20134SOL    HW161843   3.250   5.363   8.922 -0.1452  0.1839 -0.4714
20134SOL    HW261844   3.129   5.454   8.926  0.0951  0.4709  1.1088
20135SOL     OW61845   0.697   5.085   5.201 -0.3217  0.3719 -0.1428
20135SOL    HW161846   0.699   5.180   5.209  0.8386  0.4237 -0.8424
20135SOL    HW261847   0.757   5.054   5.270 -0.3359  0.1748 -0.2188
20136SOL     OW61848   0.314   4.818   1.580 -0.1812  0.1948 -0.1789
20136SOL    HW161849   0.405   4.835   1.553  0.0359 -3.0408 -1.9169
20136SOL    HW261850   0.261   4.848   1.506 -0.3647 -0.0032 -0.1275
20137SOL     OW61851   2.105   1.126   3.520 -0.3720  0.0870  0.1496
20137SOL    HW161852   2.154   1.079   3.587 -0.0357 -1.1025 -0.8708
20137SOL    HW261853   2.034   1.066   3.496 -0.8100  0.7204 -0.1577
20138SOL     OW61854   0.338   4.384  10.001 -0.0029  0.0417  0.3781
20138SOL    HW161855   0.411   4.332  10.033  0.0406  0.0184  0.2390
20138SOL    HW261856   0.262   4.353  10.051  0.2456  0.7122  1.2114
20139SOL     OW61857   1.533   7.335   8.440 -0.0073 -0.1944 -0.2105
20139SOL    HW161858   1.531   7.287   8.523  2.1743  1.7628  1.0997
20139SOL    HW261859   1.455   7.391   8.442 -0.0276 -0.2473  0.4417
20140SOL     OW61860   2.750   3.581   6.771  0.0943  0.1267  0.5128
20140SOL    HW161861   2.836   3.574   6.812  0.8797  0.8714 -0.9497
20140SOL    HW261862   2.704   3.646   6.824  0.5315 -0.0350  1.1063
20141SOL     OW61863   4.208   3.427  12.434  0.3955  0.3604  0.1201
20141SOL    HW161864   4.273   3.366  12.398  0.2114 -0.0801  0.5203
20141SOL    HW261865   4.184   3.389  12.518  0.3212  1.0247  0.4051
20142SOL     OW61866   2.404   2.939   8.321 -0.2530  0.3624 -0.2460
20142SOL    HW161867   2.309   2.928   8.324 -0.4306  0.7847 -2.5847
20142SOL    HW261868   2.433   2.920   8.410 -2.7599  2.5857  1.1918
20143SOL     OW61869   1.150   5.108   0.111 -0.0546  0.1668 -0.6195
20143SOL    HW161870   1.169   5.127   0.203  0.7618  1.1787 -0.9755
20143SOL    HW261871   1.214   5.159   0.062 -0.0975 -0.8082 -1.7486
20144SOL     OW61872   2.706   4.594   1.391  0.3865 -0.6103  0.0412
20144SOL    HW161873   2.767   4.521   1.407  0.8799 -0.2604 -0.2178
20144SOL    HW261874   2.676   4.581   1.302  0.3578 -0.5855  0.0475
20145SOL     OW61875   0.923   6.045   4.124 -0.1984 -0.0339  0.1258
20145SOL    HW161876   0.988   6.066   4.056  0.1092  1.7625  0.9251
20145SOL    HW261877   0.851   6.005   4.075  0.1375  0.9359 -1.2595
20146SOL     OW61878   5.176   7.306   1.835 -0.3178  0.1107 -0.0171
20146SOL    HW161879   5.240   7.276   1.900  1.5058  1.2990 -1.1571
20146SOL    HW261880   5.230   7.342   1.764 -2.2552  3.4258  0.0011
20147SOL     OW61881   3.481   6.662  10.938  0.1829  0.8894 -0.4820
20147SOL    HW161882   3.550   6.702  10.885  1.0959 -1.7264 -1.3963
20147SOL    HW261883   3.513   6.668  11.028  0.1210  2.4620 -0.5395
20148SOL     OW61884   7.249   3.025   9.898  0.0917 -0.0304  0.4989
20148SOL    HW161885   7.340   3.042   9.876  0.9727 -1.9997  2.2796
20148SOL    HW261886   7.245   3.036   9.993 -1.7841  0.9908  0.3421
20149SOL     OW61887   5.979   0.134   6.603  0.4925  0.2426  0.0284
20149SOL    HW161888   5.893   0.161   6.635  0.8390  0.5103  0.7601
20149SOL    HW261889   5.960   0.072   6.533 -0.2994  0.7563 -0.2271
20150SOL     OW61890   5.955   6.648  12.157 -0.6888  0.3365 -0.1618
20150SOL    HW161891   5.925   6.560  12.135  1.2987 -1.0144  1.9822
20150SOL    HW261892   6.051   6.641  12.158 -0.4895  1.5116  3.3948
20151SOL     OW61893   5.868   3.661   3.569 -0.4626 -0.3364  0.1410
20151SOL    HW161894   5.923   3.598   3.522 -1.3273 -1.0797  0.1099
20151SOL    HW261895   5.809   3.607   3.621  0.5867  0.4485  2.2601
20152SOL     OW61896   2.443   4.981   1.188  0.7890  0.5320  0.5024
20152SOL    HW161897   2.504   5.044   1.148  1.7187 -0.3113  0.5490
20152SOL    HW261898   2.499   4.924   1.240 -0.1028 -0.0445  0.8469
20153SOL     OW61899   7.730   0.462  11.495 -0.3447  0.7185  0.2937
20153SOL    HW161900   7.637   0.456  11.474 -0.0867 -0.4818 -0.6534
20153SOL    HW261901   7.732   0.489  11.587 -1.6027  1.4089  0.1458
20154SOL     OW61902   0.197   4.249   5.785 -0.0737 -0.1497 -0.2515
20154SOL    HW161903   0.155   4.191   5.848  0.0721  1.4134  1.3938
20154SOL    HW261904   0.131   4.315   5.765  0.6103  0.6731  0.1054
20155SOL     OW61905   3.105   4.623   6.637 -0.1391 -0.5403 -0.4518
20155SOL    HW161906   3.150   4.553   6.590  1.0747 -1.3284  1.7287
20155SOL    HW261907   3.023   4.636   6.590  1.6225 -0.1212 -3.7029
20156SOL     OW61908   4.335   3.730   5.060  0.2689  0.5372  0.2198
20156SOL    HW161909   4.402   3.721   4.992 -0.5446 -0.4950 -0.4628
20156SOL    HW261910   4.385   3.743   5.141  1.3364 -1.3008 -0.1009
20157SOL     OW61911   4.130   6.576   6.346  0.8059  0.3919 -0.0414
20157SOL    HW161912   4.128   6.649   6.283 -0.0301  0.2101 -0.2427
20157SOL    HW261913   4.082   6.609   6.422 -1.4032 -0.6097 -0.9179
20158SOL     OW61914   2.391   6.768   8.722  0.6612 -0.2962  0.5116
20158SOL    HW161915   2.390   6.718   8.640 -0.7738 -0.0757  0.3688
20158SOL    HW261916   2.484   6.777   8.743  1.0839  0.0156 -1.3067
20159SOL     OW61917   1.873   7.905  10.470  0.2521  0.0015  0.6115
20159SOL    HW161918   1.840   7.825  10.430  0.0158 -0.0928  0.9810
20159SOL    HW261919   1.831   7.976  10.421  0.4948 -0.0976  0.2568
20160SOL     OW61920   3.398   3.144   2.265 -0.1329 -0.2675  0.3230
20160SOL    HW161921   3.389   3.068   2.324 -0.0569  0.5396  1.4010
20160SOL    HW261922   3.476   3.189   2.296  0.7126 -0.5498 -1.2805
20161SOL     OW61923   1.857   1.477   4.210  0.3334 -0.1051 -0.5158
20161SOL    HW161924   1.886   1.397   4.168 -0.9283 -0.5190 -0.6430
20161SOL    HW261925   1.771   1.456   4.246  0.7336  0.6860  0.9683
20162SOL     OW61926   0.278   2.726   3.124 -0.6870  0.2882  0.3084
20162SOL    HW161927   0.318   2.811   3.108 -0.0920  0.1613  1.0521
20162SOL    HW261928   0.188   2.746   3.150 -0.7900  0.6353 -0.3020
20163SOL     OW61929   4.175   7.588   0.800 -0.0090  0.3380 -0.4467
20163SOL    HW161930   4.157   7.676   0.833  0.2416  0.0089  0.6038
20163SOL    HW261931   4.184   7.599   0.705 -0.6617  1.3235 -0.4012
20164SOL     OW61932   2.671   4.594  12.377 -0.0986  0.6462  0.1766
20164SOL    HW161933   2.743   4.649  12.406  0.4909  0.2410 -0.4827
20164SOL    HW261934   2.692   4.572  12.286 -0.8760  0.2363  0.0812
20165SOL     OW61935   0.994   0.004   6.454  0.3584 -0.1981 -0.0555
20165SOL    HW161936   1.061   0.019   6.521  0.3409 -0.5298  0.0358
20165SOL    HW261937   0.915   0.046   6.490  0.3979 -0.2083  0.0443
20166SOL     OW61938   5.437   3.938   0.447 -0.1922 -0.1823  0.0963
20166SOL    HW161939   5.366   4.002   0.449 -1.9841 -2.0718  1.4900
20166SOL    HW261940   5.484   3.952   0.529 -2.0225 -2.0359  1.5698
20167SOL     OW61941   2.274   3.748   5.313  0.0057  0.2658  0.4554
20167SOL    HW161942   2.317   3.675   5.267 -0.0128 -0.0678  0.9591
20167SOL    HW261943   2.286   3.823   5.255  1.2371  0.1754  0.5613
20168SOL     OW61944   6.193   7.308   6.411 -0.1903 -0.5272  0.2345
20168SOL    HW161945   6.141   7.278   6.336  0.5658  0.0565 -0.5365
20168SOL    HW261946   6.131   7.308   6.484 -0.5449 -2.7472  0.0252
20169SOL     OW61947   3.495   7.734   9.443  0.6038 -0.0676 -0.4354
20169SOL    HW161948   3.496   7.702   9.533 -1.9227 -1.3008 -0.7471
20169SOL    HW261949   3.485   7.829   9.451  1.7766 -0.0023  0.5386
20170SOL     OW61950   1.247   1.390   8.203 -0.4997  0.2368  0.7349
20170SOL    HW161951   1.153   1.382   8.188  0.1699 -2.2823 -3.7414
20170SOL    HW261952   1.272   1.307   8.243  0.1167 -0.0240 -0.1852
20171SOL     OW61953   1.774   0.994   6.282 -0.0812 -0.2066 -0.3425
20171SOL    HW161954   1.705   1.059   6.271  0.6499  0.2811 -2.4737
20171SOL    HW261955   1.852   1.035   6.245  1.5560 -0.5219  2.4638
20172SOL     OW61956   4.060   0.238  11.788 -0.4949  0.1849 -0.5720
20172SOL    HW161957   4.028   0.271  11.872 -0.6695 -0.7092 -0.2719
20172SOL    HW261958   4.153   0.221  11.804 -0.4629  0.2881 -0.6481
20173SOL     OW61959   0.574   5.902   1.990  0.1874 -0.0046 -0.6779
20173SOL    HW161960   0.669   5.890   1.991  0.2947  0.5138 -2.1368
20173SOL    HW261961   0.558   5.953   1.911 -1.0784  1.8334  0.6832
20174SOL     OW61962   7.834   4.794   5.249  0.1598  0.0148  0.6496
20174SOL    HW161963   7.774   4.799   5.323  1.3319 -0.9714  1.7001
20174SOL    HW261964   7.920   4.813   5.286  0.8653 -1.1478 -0.3132
20175SOL     OW61965   5.625   6.490   9.835  0.2252  0.5360 -0.1537
20175SOL    HW161966   5.567   6.516   9.907 -1.0354 -0.5834 -0.7402
20175SOL    HW261967   5.651   6.573   9.794 -4.5469  1.1261 -2.6630
20176SOL     OW61968   3.580   1.812   9.575 -0.0107 -0.6651 -0.0085
20176SOL    HW161969   3.626   1.736   9.538 -1.1770 -1.1517 -0.5261
20176SOL    HW261970   3.644   1.883   9.571  0.6111 -1.2505 -0.9398
20177SOL     OW61971   3.178   7.480   7.248  0.1868 -0.6312  0.0575
20177SOL    HW161972   3.142   7.501   7.162 -0.5143 -3.0582 -0.3000
20177SOL    HW261973   3.102   7.459   7.302  0.7278 -0.6899  0.8107
20178SOL     OW61974   6.189   1.247   1.283 -0.2268 -0.3916  0.0563
20178SOL    HW161975   6.102   1.269   1.249 -0.6525  0.2620  1.4722
20178SOL    HW261976   6.191   1.288   1.369  0.7751 -2.0362  0.8442
20179SOL     OW61977   1.617   1.499   0.300 -0.5796  0.2276 -0.5491
20179SOL    HW161978   1.591   1.574   0.352 -1.8056 -2.0225  2.3815
20179SOL    HW261979   1.702   1.474   0.334 -0.3272  0.0572 -1.2744
20180SOL     OW61980   5.752   4.484   9.786  0.2810 -0.0391  0.1996
20180SOL    HW161981   5.796   4.502   9.702 -0.2750 -1.7979 -0.5033
20180SOL    HW261982   5.658   4.492   9.765 -0.0087 -3.1727 -0.1042
20181SOL     OW61983   2.350   5.730   7.560 -0.0912  0.0340 -0.3120
20181SOL    HW161984   2.325   5.803   7.618 -3.3487  0.1508 -1.6800
20181SOL    HW261985   2.342   5.653   7.615 -0.0634  0.4087  0.2303
20182SOL     OW61986   6.840   0.642   1.702  0.1103  0.1444 -0.3318
20182SOL    HW161987   6.820   0.673   1.790 -0.9212  1.1735 -0.9073
20182SOL    HW261988   6.923   0.594   1.712  0.8424  1.5793  0.9224
20183SOL     OW61989   0.223   0.973   2.385 -0.2863 -0.3825  0.1046
20183SOL    HW161990   0.128   0.979   2.395 -0.0709  0.0509  2.3834
20183SOL    HW261991   0.242   0.880   2.391 -0.3248 -0.2991  3.4067
20184SOL     OW61992   2.162   6.557   8.342  0.2312 -0.3990  0.3369
20184SOL    HW161993   2.168   6.635   8.287 -1.4371 -0.4601  0.0042
20184SOL    HW261994   2.225   6.496   8.304  0.3692  0.1900 -0.4172
20185SOL     OW61995   6.745   1.972   5.112  0.0566  0.2241 -0.0064
20185SOL    HW161996   6.719   1.933   5.195 -1.6548  1.4219  0.0852
20185SOL    HW261997   6.777   1.899   5.059 -2.6848 -1.2788  0.2474
20186SOL     OW61998   4.838   3.237  10.411  0.2579  0.3444 -0.2949
20186SOL    HW161999   4.865   3.165  10.355  0.6246  0.1696  0.1022
20186SOL    HW262000   4.755   3.209  10.448  1.2375 -0.6798  1.2629
20187SOL     OW62001   1.692   2.821  11.298 -0.1016  0.0664  0.2325
20187SOL    HW162002   1.599   2.836  11.278 -0.1856 -1.1134 -0.2962
20187SOL    HW262003   1.691   2.784  11.386 -0.5473 -4.0264 -1.2890
20188SOL     OW62004   2.355   7.951   9.161  0.2637  0.6182  0.2564
20188SOL    HW162005   2.426   8.010   9.135  1.4637 -1.4019 -1.3086
20188SOL    HW262006   2.374   7.930   9.252  0.3603  1.8409  0.5456
20189SOL     OW62007   3.912   0.332   4.591 -0.0865 -0.2515 -0.1665
20189SOL    HW162008   3.854   0.278   4.644 -0.0739  0.7643  0.9429
20189SOL    HW262009   3.873   0.419   4.594  1.0795  0.2853 -0.0206
20190SOL     OW62010   7.650   1.837   7.838  0.1105  0.0691  0.6942
20190SOL    HW162011   7.701   1.917   7.839  0.9872 -0.4842  1.3887
20190SOL    HW262012   7.568   1.861   7.794  0.8676  1.0153 -0.2441
20191SOL     OW62013   6.186   3.759   6.107  0.3014 -0.4604 -0.2051
20191SOL    HW162014   6.172   3.711   6.025  0.1961  2.0940 -1.7999
20191SOL    HW262015   6.117   3.727   6.165 -2.4956  0.6811 -2.6239
20192SOL     OW62016   3.224   1.865  11.567  0.5682  0.0550  0.0745
20192SOL    HW162017   3.172   1.945  11.557  1.1078  0.6067  1.4396
20192SOL    HW262018   3.186   1.804  11.504 -0.5332  1.0421 -0.2568
20193SOL     OW62019   7.218   0.194   0.714 -0.1681 -0.3433  0.0828
20193SOL    HW162020   7.165   0.132   0.765  0.4346 -1.2862 -0.4221
20193SOL    HW262021   7.296   0.207   0.767 -0.5995  0.5667  0.5282
20194SOL     OW62022   4.171   3.015   4.800 -0.7718  0.2265  0.5100
20194SOL    HW162023   4.100   3.015   4.736  0.1456 -1.1810 -0.5568
20194SOL    HW262024   4.250   3.013   4.748  0.0091 -0.9342  1.6801
20195SOL     OW62025   2.708   4.979   6.376  0.3537 -0.3788  0.3096
20195SOL    HW162026   2.668   5.045   6.318 -0.2524 -0.2243  0.8888
20195SOL    HW262027   2.734   5.028   6.454  0.1846 -0.7660  0.6136
20196SOL     OW62028   3.892   6.351  11.915  0.5618  0.6945  0.0759
20196SOL    HW162029   3.804   6.363  11.953  0.3662 -0.3792 -0.0181
20196SOL    HW262030   3.876   6.339  11.822  1.0033  2.7414 -0.3137
20197SOL     OW62031   2.335   6.179   5.943 -0.1076  0.6623 -0.6838
20197SOL    HW162032   2.330   6.249   5.878 -0.7842 -0.0915 -1.4617
20197SOL    HW262033   2.394   6.114   5.904 -0.0983  0.4454 -0.3169
20198SOL     OW62034   0.147   0.875   8.330 -0.1746 -0.2615  0.3659
20198SOL    HW162035   0.178   0.832   8.250  3.2823  1.6783  0.4421
20198SOL    HW262036   0.163   0.968   8.314 -1.3135  0.3740  2.6009
20199SOL     OW62037   3.574   0.253   2.300  0.3812 -0.1338 -0.5967
20199SOL    HW162038   3.639   0.203   2.250  2.9667  1.1943  1.1761
20199SOL    HW262039   3.604   0.247   2.391 -1.2032  1.7045  0.1286
20200SOL     OW62040   3.118   5.725  12.219  0.6550  0.0074 -0.2038
20200SOL    HW162041   3.097   5.817  12.203 -2.7148 -0.1241  2.3331
20200SOL    HW262042   3.144   5.721  12.311  1.0923 -1.5314 -0.3612
20201SOL     OW62043   0.957   1.553  12.134 -0.2162  0.1772  0.2914
20201SOL    HW162044   1.036   1.571  12.082 -0.3398  0.1369  0.0877
20201SOL    HW262045   0.886   1.595  12.084 -0.5931 -1.2645 -0.4537
20202SOL     OW62046   3.299   6.036  10.036  0.6121  0.0648  0.0916
20202SOL    HW162047   3.389   6.059  10.015  1.2921 -2.3883  0.0251
20202SOL    HW262048   3.249   6.061   9.958  1.1206  1.8348  0.2934
20203SOL     OW62049   1.108   1.258   1.528 -0.0362 -0.3156 -0.2284
20203SOL    HW162050   1.096   1.163   1.527 -0.9567 -0.2212  0.2296
20203SOL    HW262051   1.021   1.292   1.504 -0.2108  0.4335  1.3764
20204SOL     OW62052   5.779   6.766   4.627 -0.1114 -0.4598  0.3219
20204SOL    HW162053   5.772   6.708   4.551 -0.0407 -0.3732  0.2486
20204SOL    HW262054   5.690   6.772   4.661  0.1527 -2.1282  1.4676
20205SOL     OW62055   7.843   3.972   0.612 -0.8149  0.5333  0.2175
20205SOL    HW162056   7.829   3.886   0.573  3.7436 -0.6314  0.5252
20205SOL    HW262057   7.891   4.021   0.545  1.2134  0.8795  1.8096
20206SOL     OW62058   7.257   3.098   7.429  0.3092  0.2678  0.1413
20206SOL    HW162059   7.171   3.104   7.470  0.4966  2.4050  0.3269
20206SOL    HW262060   7.319   3.106   7.501  0.6638 -0.0757 -0.1204
20207SOL     OW62061   7.449   7.747   9.459 -0.6322 -0.2895 -0.0744
20207SOL    HW162062   7.364   7.791   9.451 -0.4029 -0.1304 -1.9963
20207SOL    HW262063   7.485   7.780   9.542 -1.6732  1.0233 -0.1029
20208SOL     OW62064   4.126   3.700   4.748 -0.1229 -0.0963 -0.4668
20208SOL    HW162065   4.214   3.662   4.742  0.2365  0.7846 -1.0416
20208SOL    HW262066   4.131   3.760   4.823 -0.3250 -0.2797 -0.3072
20209SOL     OW62067   5.400   6.526   7.875  0.0350 -0.3600  0.3830
20209SOL    HW162068   5.383   6.476   7.954 -2.3600 -0.4905 -0.1268
20209SOL    HW262069   5.384   6.464   7.803 -2.7936  0.9485 -0.2567
20210SOL     OW62070   2.250   2.238   4.355 -0.4250 -0.5108  0.1649
20210SOL    HW162071   2.305   2.291   4.298 -1.5887  1.0482  0.3986
20210SOL    HW262072   2.236   2.157   4.307  1.6941 -0.7914 -0.0635
20211SOL     OW62073   3.190   5.958   5.755  0.3767 -0.2298 -0.4174
20211SOL    HW162074   3.182   5.939   5.662 -0.7014  1.0399 -0.6166
20211SOL    HW262075   3.204   6.052   5.760  1.8986 -0.4638  0.6716
20212SOL     OW62076   1.422   4.247  11.765  0.5104 -0.1731  0.3727
20212SOL    HW162077   1.344   4.246  11.820 -0.3187 -0.5228 -0.7521
20212SOL    HW262078   1.496   4.243  11.826 -0.3469  0.2680  1.4597
20213SOL     OW62079   2.145   5.964   6.055  0.1116 -0.2780  0.6494
20213SOL    HW162080   2.059   5.945   6.093  0.2897  0.2266  1.3424
20213SOL    HW262081   2.138   6.055   6.026 -0.1373 -0.7706 -0.8983
20214SOL     OW62082   0.896   7.062   2.697 -0.3112 -0.3709 -0.1780
20214SOL    HW162083   0.856   7.122   2.634  0.2846 -1.0760 -1.2531
20214SOL    HW262084   0.979   7.104   2.720 -0.6564  0.0283  0.3950
20215SOL     OW62085   6.255   2.546   2.071 -0.5490 -0.6883  0.4809
20215SOL    HW162086   6.350   2.535   2.075 -0.4908  0.0538  1.4505
20215SOL    HW262087   6.240   2.636   2.098 -1.4047 -0.1546 -1.6151
20216SOL     OW62088   0.437   7.397  10.550  0.2779  0.3578  0.4743
20216SOL    HW162089   0.499   7.341  10.597 -0.5603 -1.0035 -0.0088
20216SOL    HW262090   0.472   7.402  10.461 -0.5033 -0.7641  0.0879
20217SOL     OW62091   6.526   3.192   2.918 -0.4545 -0.2524 -0.5572
20217SOL    HW162092   6.563   3.270   2.878  1.5969 -0.9571 -0.1941
20217SOL    HW262093   6.437   3.186   2.883 -0.8386  2.4416 -0.2592
20218SOL     OW62094   5.084   1.746  12.105  0.3221 -0.3249 -0.4018
20218SOL    HW162095   5.044   1.823  12.064  0.8434  0.4064  0.4319
20218SOL    HW262096   5.028   1.728  12.180  0.6504 -0.2812 -0.1487
20219SOL     OW62097   0.348   4.436   6.229 -0.4774  0.1896  0.1200
20219SOL    HW162098   0.358   4.384   6.150 -1.8708  2.1506 -1.4591
20219SOL    HW262099   0.434   4.433   6.271  0.3400 -0.8068 -1.5354
20220SOL     OW62100   1.261   1.603   3.456  0.3396  0.2414  0.3761
20220SOL    HW162101   1.305   1.521   3.475  1.0727  0.7395  0.8647
20220SOL    HW262102   1.254   1.605   3.360 -1.6358 -1.3747  0.4012
20221SOL     OW62103   6.074   4.487  11.617  0.1617 -0.0666 -0.5515
20221SOL    HW162104   6.100   4.532  11.537 -0.0829 -0.7430 -1.0220
20221SOL    HW262105   6.032   4.555  11.670 -0.3880  0.2251 -1.3394
20222SOL     OW62106   5.866   3.130   1.762  0.6687  0.0458 -0.2987
20222SOL    HW162107   5.957   3.136   1.734  0.4100 -0.7753 -1.3859
20222SOL    HW262108   5.845   3.217   1.795  1.1365  0.9375 -2.2290
20223SOL     OW62109   7.448   7.323   3.521  0.0425  0.5308 -0.2516
20223SOL    HW162110   7.523   7.280   3.481  0.1701  1.6955 -1.3046
20223SOL    HW262111   7.439   7.406   3.473 -1.5499  0.6731  0.2473
20224SOL     OW62112   6.859   7.657   0.237 -0.1980  0.3145 -0.1055
20224SOL    HW162113   6.891   7.605   0.163 -2.5750  0.6036 -1.4395
20224SOL    HW262114   6.909   7.625   0.312  1.8470 -0.4556 -1.6868
20225SOL     OW62115   7.274   1.814   3.323 -0.3793  0.2952 -0.0487
20225SOL    HW162116   7.248   1.842   3.411  0.5234 -0.1867  0.3846
20225SOL    HW262117   7.277   1.718   3.328 -1.9776  0.1522 -1.0959
20226SOL     OW62118   6.372   4.539  12.031  0.0963 -0.0095  0.0310
20226SOL    HW162119   6.383   4.493  11.948  0.6216 -1.1312  0.7081
20226SOL    HW262120   6.311   4.610  12.011  0.1145 -0.3417 -1.2788
20227SOL     OW62121   2.694   3.661  10.307 -0.0285 -0.2545  0.5375
20227SOL    HW162122   2.702   3.585  10.365 -0.5183 -0.3243  0.5157
20227SOL    HW262123   2.764   3.649  10.242 -0.7613 -1.2350 -0.0910
20228SOL     OW62124   6.252   6.963   1.883 -0.5564 -0.0894 -0.0857
20228SOL    HW162125   6.286   6.994   1.966  2.9996 -0.6097 -1.2070
20228SOL    HW262126   6.226   6.873   1.900  1.6164 -0.7173  0.1900
20229SOL     OW62127   4.417   4.810   3.110  0.2895 -0.5423 -0.2498
20229SOL    HW162128   4.356   4.759   3.057 -1.0820  0.3015  0.4393
20229SOL    HW262129   4.460   4.869   3.048 -1.8257  0.9473 -0.4135
20230SOL     OW62130   3.327   7.534  12.449  0.6916  0.3597 -0.6665
20230SOL    HW162131   3.250   7.484  12.423  0.1164  1.2518 -0.7378
20230SOL    HW262132   3.399   7.496  12.398  0.5050 -1.1413  0.1464
20231SOL     OW62133   1.989   2.438  11.873  0.1668  0.4622  0.4638
20231SOL    HW162134   2.031   2.524  11.874  1.5127 -0.1388 -0.4558
20231SOL    HW262135   1.992   2.411  11.781 -0.4764 -0.4563  0.6909
20232SOL     OW62136   0.101   4.429   7.414  0.0314  0.6876 -0.6775
20232SOL    HW162137   0.062   4.517   7.414  1.0387  1.1710  0.8793
20232SOL    HW262138   0.190   4.442   7.383  0.9772  0.6730  1.7821
20233SOL     OW62139   5.044   2.632   2.547 -0.4088  0.1967  0.2895
20233SOL    HW162140   5.041   2.716   2.591  0.5178  1.1062 -1.3023
20233SOL    HW262141   5.077   2.571   2.613 -0.6738  1.1457  1.3231
20234SOL     OW62142   5.847   0.867   7.042  0.8309 -0.3778  0.1011
20234SOL    HW162143   5.909   0.795   7.045  0.7030 -0.4511  1.1450
20234SOL    HW262144   5.872   0.916   6.963  1.1354 -1.3492 -0.4318
20235SOL     OW62145   7.437   4.082   7.324  0.3028  0.4735  0.0302
20235SOL    HW162146   7.456   4.028   7.248 -1.8770 -1.3738  0.6860
20235SOL    HW262147   7.486   4.040   7.396  1.6785  1.7183 -0.1211
20236SOL     OW62148   3.978   4.144   6.160  0.5172  0.5452 -0.2699
20236SOL    HW162149   3.930   4.172   6.082 -1.2997  0.8623  0.8937
20236SOL    HW262150   3.978   4.221   6.217 -0.8659 -0.4990  1.2585
20237SOL     OW62151   4.811   5.205   6.964 -0.0949 -0.2300 -0.7126
20237SOL    HW162152   4.755   5.200   6.886 -0.3114  1.7547 -0.7522
20237SOL    HW262153   4.897   5.227   6.931  0.5211 -2.1960 -0.5589
20238SOL     OW62154   5.788   1.211   6.306  0.5882  0.5670 -0.0746
20238SOL    HW162155   5.749   1.149   6.243  0.4294  0.0347  0.5318
20238SOL    HW262156   5.839   1.271   6.252  0.1830  0.3247 -0.7462
20239SOL     OW62157   5.142   2.317   0.330  0.3928  0.1755 -0.0630
20239SOL    HW162158   5.082   2.333   0.257  0.9809 -0.3515 -0.6805
20239SOL    HW262159   5.095   2.346   0.408 -0.6929 -0.3199 -0.5249
20240SOL     OW62160   2.051   1.316   4.083 -0.0009  0.2114 -0.2047
20240SOL    HW162161   2.114   1.388   4.094 -0.4467  0.6506 -0.5148
20240SOL    HW262162   2.070   1.281   3.996 -0.6520  0.8068 -0.5948
20241SOL     OW62163   1.592   4.829   8.834  0.1824 -0.4352 -0.6404
20241SOL    HW162164   1.513   4.801   8.882  0.9333 -0.6907  0.4924
20241SOL    HW262165   1.560   4.853   8.748 -1.3291  0.6102  0.1586
20242SOL     OW62166   3.936   3.566   7.897 -0.3652 -0.2522 -0.3144
20242SOL    HW162167   4.022   3.607   7.902 -0.5730  0.0359  1.4274
20242SOL    HW262168   3.874   3.639   7.899 -0.6976 -0.4176 -2.1139
20243SOL     OW62169   1.896   5.923  11.346 -0.5341 -0.1889  0.1133
20243SOL    HW162170   1.844   5.843  11.358  0.4141 -0.5861  1.9031
20243SOL    HW262171   1.842   5.993  11.382 -1.0093 -0.1313 -0.6817
20244SOL     OW62172   5.765   2.174   6.646 -0.3643 -0.1915 -0.7360
20244SOL    HW162173   5.840   2.114   6.646 -0.1382  0.0841 -0.1621
20244SOL    HW262174   5.784   2.235   6.575  2.1791  2.5570  1.9719
20245SOL     OW62175   5.680   0.366   9.115  0.3707  0.3150 -0.1955
20245SOL    HW162176   5.700   0.404   9.201  1.4005  1.2265 -0.8090
20245SOL    HW262177   5.765   0.360   9.072 -0.3689  2.4202 -2.1670
20246SOL     OW62178   0.961   1.572  10.597  0.3388 -0.2948  0.4040
20246SOL    HW162179   0.914   1.503  10.551  0.8693 -1.1855  1.1719
20246SOL    HW262180   0.983   1.534  10.682  1.6422  0.4148  0.4139
20247SOL     OW62181   3.476   5.458   0.658 -0.2207 -0.0300 -0.4259
20247SOL    HW162182   3.394   5.495   0.624  0.5209  2.9762  0.7710
20247SOL    HW262183   3.457   5.438   0.750  0.0203 -0.6874 -0.5110
20248SOL     OW62184   0.037   2.903   3.987 -0.5318 -0.2388  0.2455
20248SOL    HW162185  -0.045   2.912   4.035 -0.3727  0.3207  0.4257
20248SOL    HW262186   0.101   2.877   4.053 -0.6110 -0.9303  0.0583
20249SOL     OW62187   6.428   3.926   3.146  0.0702 -0.1700  0.0453
20249SOL    HW162188   6.408   3.890   3.059 -1.5544 -2.1880  1.1584
20249SOL    HW262189   6.504   3.875   3.175 -0.9258 -1.3025  0.7643
20250SOL     OW62190   3.999   0.947   9.299  0.3366  0.4883  0.2470
20250SOL    HW162191   4.046   0.887   9.242 -2.1243 -1.2988 -0.0962
20250SOL    HW262192   3.991   1.028   9.249 -0.1501 -0.4239 -1.2165
20251SOL     OW62193   3.578   6.576   2.803 -0.0283 -0.0626 -0.3188
20251SOL    HW162194   3.641   6.618   2.745 -1.6588  1.3470 -1.1452
20251SOL    HW262195   3.545   6.646   2.859  0.2063 -1.0641  1.1376
20252SOL     OW62196   3.363   0.256   6.110 -0.0137 -0.3190  0.0559
20252SOL    HW162197   3.389   0.251   6.018 -0.9024  0.4605 -0.2515
20252SOL    HW262198   3.339   0.166   6.133  2.5657 -1.0343  0.2723
20253SOL     OW62199   1.856   1.169  10.424 -0.3485 -0.1777 -0.3355
20253SOL    HW162200   1.947   1.179  10.451 -0.8173 -0.5282  1.4932
20253SOL    HW262201   1.810   1.244  10.463 -1.1618 -1.0492  0.4421
20254SOL     OW62202   4.997   6.627  11.326 -0.0654 -0.0803 -0.0979
20254SOL    HW162203   4.909   6.651  11.356  0.5475  1.0765  0.8893
20254SOL    HW262204   5.052   6.701  11.354  1.2142 -0.7732 -0.7150
20255SOL     OW62205   0.546   3.554  10.056  0.2698 -0.0940  0.3148
20255SOL    HW162206   0.464   3.569  10.102  0.6269 -0.7022  1.1946
20255SOL    HW262207   0.535   3.470  10.013  1.0317 -1.0428  1.8988
20256SOL     OW62208   4.892   6.904   1.343 -0.1164 -0.5790  0.2676
20256SOL    HW162209   4.820   6.950   1.386 -1.7453 -2.2610 -0.5379
20256SOL    HW262210   4.966   6.964   1.351 -1.4924  1.0777  1.4261
20257SOL     OW62211   3.313   6.528   6.534  0.6751 -0.4849 -0.2134
20257SOL    HW162212   3.275   6.532   6.446 -1.6797  2.5996  0.7364
20257SOL    HW262213   3.244   6.491   6.588  1.0669  0.1010  0.7145
20258SOL     OW62214   6.157   4.404   5.356  0.2309 -0.0443 -0.0030
20258SOL    HW162215   6.110   4.486   5.340  1.3680  0.5677 -0.3650
20258SOL    HW262216   6.244   4.433   5.383  0.9097 -1.1406 -0.9552
20259SOL     OW62217   4.170   2.207   8.560  0.3477 -0.0761  0.7286
20259SOL    HW162218   4.106   2.148   8.521 -1.8492  3.1204 -0.9319
20259SOL    HW262219   4.232   2.227   8.490 -1.0587  2.2839  0.0625
20260SOL     OW62220   7.403   6.855   4.089  0.2096  0.2819  0.1734
20260SOL    HW162221   7.401   6.809   4.005  0.8811  0.0917  0.2532
20260SOL    HW262222   7.496   6.858   4.112 -0.0861 -2.2162  2.2587
20261SOL     OW62223   4.941   4.904   8.447 -0.0759 -0.4357 -0.3539
20261SOL    HW162224   4.990   4.823   8.461 -0.1516 -0.4517 -0.1842
20261SOL    HW262225   4.850   4.880   8.464 -0.1481 -0.4134 -0.6991
20262SOL     OW62226   0.901   1.953   5.628 -0.2873  0.1678 -0.4012
20262SOL    HW162227   0.825   2.011   5.622  0.3435  1.3867  2.1513
20262SOL    HW262228   0.864   1.865   5.625 -1.8294  0.7300  0.7697
20263SOL     OW62229   1.458   7.845   7.284  0.0841  0.0886  0.4994
20263SOL    HW162230   1.394   7.785   7.321  0.5696  0.0361  1.2744
20263SOL    HW262231   1.522   7.789   7.241 -1.0288  0.1777 -1.4225
20264SOL     OW62232   1.987   5.687   9.179 -0.0280 -0.3451  0.6347
20264SOL    HW162233   1.905   5.643   9.204  0.6402 -2.0980 -0.0627
20264SOL    HW262234   2.040   5.685   9.259 -0.1895 -0.3315  0.7451
20265SOL     OW62235   3.214   4.542  10.765  0.1736 -0.1306 -0.0027
20265SOL    HW162236   3.196   4.635  10.755 -3.0895 -0.6265  0.3473
20265SOL    HW262237   3.242   4.532  10.856  0.8014  0.5270 -0.1190
20266SOL     OW62238   3.799   6.841   4.610 -0.1932  0.3290 -0.2106
20266SOL    HW162239   3.842   6.926   4.618  0.1946  0.0251  0.9858
20266SOL    HW262240   3.854   6.780   4.659 -1.1579 -0.3660  0.0392
20267SOL     OW62241   5.352   2.585   5.866 -0.5290 -0.1306 -0.1355
20267SOL    HW162242   5.281   2.648   5.877 -0.2067  0.1819  0.1686
20267SOL    HW262243   5.384   2.600   5.777  0.8008  1.4730  0.5466
20268SOL     OW62244   7.838   5.086   4.003 -0.0781  0.3653  0.1865
20268SOL    HW162245   7.805   5.020   4.063 -2.2523  2.0007  0.9353
20268SOL    HW262246   7.774   5.089   3.932 -0.8416  2.5449  0.8744
20269SOL     OW62247   3.719   0.714   3.741 -0.7713  0.0451 -0.3185
20269SOL    HW162248   3.741   0.733   3.650 -3.2275 -0.0293 -0.9739
20269SOL    HW262249   3.791   0.754   3.791 -1.2295  3.4984 -2.0713
20270SOL     OW62250   5.858   6.519   5.212 -0.3197 -0.3797  0.1199
20270SOL    HW162251   5.894   6.599   5.175 -0.2231 -0.5126 -0.0744
20270SOL    HW262252   5.781   6.500   5.158 -0.8005  0.0120  0.6567
20271SOL     OW62253   2.352   5.515   0.756 -0.7437  0.0081  0.4144
20271SOL    HW162254   2.281   5.514   0.820 -0.7927 -0.2880  0.3570
20271SOL    HW262255   2.321   5.573   0.687 -0.6611  0.3809  0.6911
20272SOL     OW62256   5.400   7.686  10.750 -0.0343 -0.8305 -1.0815
20272SOL    HW162257   5.363   7.612  10.702  0.4485 -2.2618  0.6475
20272SOL    HW262258   5.351   7.688  10.832 -0.2484  0.9962 -1.2203
20273SOL     OW62259   1.958   7.738   9.986  0.2955  0.1727 -0.3836
20273SOL    HW162260   2.023   7.759  10.053 -0.0081 -0.0372 -0.0201
20273SOL    HW262261   2.009   7.706   9.912  0.5133 -2.1734  0.6802
20274SOL     OW62262   4.439   6.030   0.642  0.5341 -0.2485 -0.4248
20274SOL    HW162263   4.412   6.119   0.619  0.1701 -0.8517 -2.6519
20274SOL    HW262264   4.362   5.976   0.621  0.9116 -1.1416  0.4167
20275SOL     OW62265   7.205   6.768   6.998  0.3714 -0.0307 -0.0872
20275SOL    HW162266   7.278   6.745   7.055  0.0764  1.2219  0.8522
20275SOL    HW262267   7.183   6.858   7.023 -0.0498  0.4066 -1.9090
20276SOL     OW62268   7.202   0.126   5.213  0.2371 -0.3741  0.6174
20276SOL    HW162269   7.192   0.107   5.120  0.8313 -0.6548  0.6034
20276SOL    HW262270   7.177   0.217   5.222  0.3138 -0.3045  0.1563
20277SOL     OW62271   3.696   4.048  10.436  0.4475 -0.4291  0.0737
20277SOL    HW162272   3.686   4.110  10.508  2.4985 -0.8161  0.7765
20277SOL    HW262273   3.607   4.021  10.414 -0.3067  0.6243  1.6481
20278SOL     OW62274   5.262   7.843   4.524  0.8120 -0.2388  0.6149
20278SOL    HW162275   5.281   7.936   4.522 -0.4061  0.0207 -0.0778
20278SOL    HW262276   5.235   7.822   4.434 -0.0789 -0.9937  1.0448
20279SOL     OW62277   7.807   2.566   4.764  0.1229 -0.0842 -0.1454
20279SOL    HW162278   7.741   2.499   4.781 -0.1010  0.1171 -0.2172
20279SOL    HW262279   7.826   2.558   4.670 -1.3267  1.2284 -0.5942
20280SOL     OW62280   7.139   7.911   9.025 -0.1535 -0.3469 -0.4464
20280SOL    HW162281   7.205   7.913   9.095 -0.1656 -0.2272 -0.4377
20280SOL    HW262282   7.188   7.936   8.946  0.1602 -1.7672 -0.7335
20281SOL     OW62283   2.500   6.355   3.794 -0.0757  0.0170 -0.3838
20281SOL    HW162284   2.435   6.389   3.856 -0.6471 -2.9799  0.8232
20281SOL    HW262285   2.453   6.350   3.711 -1.0158 -0.8268  0.1699
20282SOL     OW62286   3.815   2.311  10.768  0.2216  0.3874  0.2230
20282SOL    HW162287   3.786   2.265  10.846  1.4031  0.8186  0.9451
20282SOL    HW262288   3.761   2.275  10.697 -1.0010  0.1399  1.2531
20283SOL     OW62289   6.788   4.406   1.934  0.5379 -0.1983 -0.0337
20283SOL    HW162290   6.821   4.338   1.994 -2.0820 -0.3265  1.4417
20283SOL    HW262291   6.705   4.433   1.973  0.7267  2.7770 -1.4440
20284SOL     OW62292   0.141   1.405   0.271  0.0656 -0.1317 -0.0298
20284SOL    HW162293   0.105   1.481   0.317 -0.6726  1.0988 -2.4297
20284SOL    HW262294   0.233   1.426   0.259  0.2193 -0.3732  0.6909
20285SOL     OW62295   0.005   2.328   3.690 -0.0219 -0.1954  0.0441
20285SOL    HW162296  -0.088   2.347   3.697 -0.8215 -2.8066 -2.0051
20285SOL    HW262297   0.028   2.286   3.773 -0.6318  0.4927  0.5725
20286SOL     OW62298   0.426   1.041   4.089 -0.2783  0.2767  0.1458
20286SOL    HW162299   0.457   1.112   4.033  0.0209  0.6900  0.8162
20286SOL    HW262300   0.452   1.068   4.177 -0.0703 -0.7246  0.3976
20287SOL     OW62301   5.917   2.672   8.522  0.4197  0.1660 -0.3181
20287SOL    HW162302   5.926   2.686   8.428 -0.7473  0.8641 -0.3540
20287SOL    HW262303   5.832   2.628   8.531 -0.5274  2.0203  0.5220
20288SOL     OW62304   4.806   4.939  12.004 -0.1712  0.1034  0.1944
20288SOL    HW162305   4.804   5.034  12.006  0.4725  0.1371  2.6644
20288SOL    HW262306   4.879   4.916  12.062 -2.1661 -1.8881  2.1103
20289SOL     OW62307   6.469   6.547   8.126  0.6252 -0.1414 -0.1281
20289SOL    HW162308   6.390   6.493   8.128  0.3865  0.2174  0.3005
20289SOL    HW262309   6.526   6.503   8.063  0.0104 -0.3041 -0.5952
20290SOL     OW62310   3.824   3.104   0.589 -0.3098  0.1049 -0.3607
20290SOL    HW162311   3.877   3.131   0.513 -0.9911  1.3280 -0.4388
20290SOL    HW262312   3.768   3.180   0.607 -1.0009 -0.6095  0.6323
20291SOL     OW62313   6.522   2.440   5.465  0.3647  0.0982 -0.2629
20291SOL    HW162314   6.559   2.515   5.417 -1.3990  1.3386  0.2335
20291SOL    HW262315   6.440   2.421   5.420  0.0803 -0.5957  0.5291
20292SOL     OW62316   0.324   5.312   6.982  0.3855 -0.4591 -0.2483
20292SOL    HW162317   0.359   5.332   7.068  1.2029 -1.1029 -0.4214
20292SOL    HW262318   0.342   5.219   6.969  0.8346 -0.2343 -1.3708
20293SOL     OW62319   2.546   4.872  10.007  0.0028 -0.3713 -0.3115
20293SOL    HW162320   2.527   4.813   9.935 -1.3777 -1.0935  0.6002
20293SOL    HW262321   2.463   4.917  10.024  0.2857 -0.2360  0.8284
20294SOL     OW62322   0.593   0.420  11.394  0.1369 -0.6170 -0.7880
20294SOL    HW162323   0.561   0.393  11.480 -0.7423  2.2364 -0.1216
20294SOL    HW262324   0.534   0.490  11.366  3.3372  2.1043 -1.3481
20295SOL     OW62325   6.420   3.537  10.214  0.0869 -0.0518 -0.5185
20295SOL    HW162326   6.393   3.580  10.133 -1.0396  1.6625  0.7185
20295SOL    HW262327   6.434   3.608  10.276  1.0061 -1.3256  0.8061
20296SOL     OW62328   3.851   7.297  12.132 -0.1475 -0.8514  0.7021
20296SOL    HW162329   3.845   7.387  12.098  0.9903 -0.4021  1.6035
20296SOL    HW262330   3.853   7.242  12.053  1.5216  0.0928  0.0229
20297SOL     OW62331   6.725   7.527   8.147  0.0214 -0.5478  0.0798
20297SOL    HW162332   6.743   7.549   8.238  0.2839  2.8211 -0.6522
20297SOL    HW262333   6.805   7.483   8.117  0.9167  0.4723  0.8857
20298SOL     OW62334   2.706   7.111   8.772 -0.2728 -0.6658 -0.0317
20298SOL    HW162335   2.647   7.161   8.716  0.9017 -1.6293 -2.2840
20298SOL    HW262336   2.794   7.140   8.747  0.2934 -0.6176  1.8722
20299SOL     OW62337   3.387   3.497   9.082  0.0178  0.0018 -0.4137
20299SOL    HW162338   3.413   3.582   9.047  2.5707 -0.8586 -0.8042
20299SOL    HW262339   3.390   3.508   9.177  1.4860  0.0678 -0.4478
20300SOL     OW62340   6.905   4.869   3.661 -0.5281  0.0018  0.4013
20300SOL    HW162341   6.839   4.905   3.720 -1.6620 -0.9809 -0.2187
20300SOL    HW262342   6.922   4.938   3.598 -0.1112  0.6652  1.2152
20301SOL     OW62343   5.351   7.181   3.722 -0.1917  0.2480  0.0085
20301SOL    HW162344   5.291   7.142   3.658 -0.0135 -0.5679  0.3217
20301SOL    HW262345   5.299   7.191   3.801 -0.0887  0.1412  0.0901
20302SOL     OW62346   0.697   1.495   4.924 -0.6115  0.3850 -0.4915
20302SOL    HW162347   0.763   1.501   4.993 -1.4020 -0.4994  0.3851
20302SOL    HW262348   0.643   1.420   4.950 -2.8390  1.9444 -0.4028
20303SOL     OW62349   1.646   4.747   5.186  0.0455  0.0383 -0.2495
20303SOL    HW162350   1.647   4.712   5.097  1.4719 -0.0343 -0.2204
20303SOL    HW262351   1.681   4.836   5.178  0.1026  0.0638  0.2337
20304SOL     OW62352   2.927   3.729   2.373  0.3496 -0.3113  0.4785
20304SOL    HW162353   2.856   3.674   2.406  1.4390 -0.9440  1.8476
20304SOL    HW262354   2.912   3.733   2.278 -0.6372 -1.6824  0.5489
20305SOL     OW62355   6.143   0.374   6.559 -0.4518  0.2480  0.4839
20305SOL    HW162356   6.235   0.353   6.544 -0.5623 -0.1053  0.2975
20305SOL    HW262357   6.097   0.290   6.551 -0.9333  0.5966 -0.5378
20306SOL     OW62358   5.412   7.457   1.152  0.4286  0.2639  0.0019
20306SOL    HW162359   5.318   7.443   1.144  0.4447 -0.0765  0.4117
20306SOL    HW262360   5.435   7.423   1.238  0.9588  0.1710 -0.1694
20307SOL     OW62361   2.146   7.895   1.543  0.5082 -0.3500  0.3177
20307SOL    HW162362   2.161   7.859   1.631 -0.4449  1.9020  1.4725
20307SOL    HW262363   2.232   7.930   1.517  0.4056  0.5498  1.1393
20308SOL     OW62364   7.732   2.833   0.072  0.4773  0.1101  0.2167
20308SOL    HW162365   7.719   2.739   0.087 -0.0711  0.2283  0.4846
20308SOL    HW262366   7.697   2.848  -0.016  1.1667 -0.0528 -0.0990
20309SOL     OW62367   5.403   3.449   1.737 -0.4258  0.5531  0.3996
20309SOL    HW162368   5.393   3.463   1.643 -0.8453  4.8463  0.9018
20309SOL    HW262369   5.317   3.420   1.766 -0.7419  0.7387 -0.3178
20310SOL     OW62370   7.042   1.434   5.864  0.2361  0.2659 -0.0963
20310SOL    HW162371   7.003   1.452   5.950 -1.7693 -0.0362 -0.8943
20310SOL    HW262372   7.019   1.510   5.810  1.0134  0.2066 -0.5268
20311SOL     OW62373   0.673   5.233   9.024 -0.0889  0.5014 -0.0645
20311SOL    HW162374   0.638   5.210   9.110  0.7726  1.8522  0.6846
20311SOL    HW262375   0.627   5.314   9.001  0.3948  0.6756 -0.4299
20312SOL     OW62376   6.283   4.075   8.760  0.1706  0.0079 -0.4818
20312SOL    HW162377   6.208   4.052   8.704  1.1211  0.5895 -2.0401
20312SOL    HW262378   6.269   4.023   8.840 -2.9487  1.5597  0.1729
20313SOL     OW62379   5.033   5.207   6.290 -0.1946 -0.0246 -0.1403
20313SOL    HW162380   4.985   5.269   6.234  0.9163  0.3120 -0.7462
20313SOL    HW262381   5.030   5.125   6.242  2.5546  0.7381 -1.8264
20314SOL     OW62382   0.771   5.109   2.280 -0.4744  0.5365  0.0913
20314SOL    HW162383   0.748   5.041   2.216 -1.1183  1.7603 -1.0451
20314SOL    HW262384   0.694   5.116   2.337 -0.4181  0.3205  0.1911
20315SOL     OW62385   2.642   2.443   8.622  0.4714 -0.0167 -0.0190
20315SOL    HW162386   2.650   2.351   8.596 -0.6332 -0.0397 -0.3126
20315SOL    HW262387   2.561   2.447   8.672  0.0067  0.9684 -0.8187
20316SOL     OW62388   0.930   3.197   1.271  0.1931 -0.6115 -0.2075
20316SOL    HW162389   0.933   3.138   1.196 -1.7422 -2.0060  0.7394
20316SOL    HW262390   0.958   3.144   1.345  2.0459  0.7379  0.1503
20317SOL     OW62391   4.121   1.765   4.487 -0.5843  0.2450 -0.8255
20317SOL    HW162392   4.028   1.740   4.484 -0.0807 -1.6601 -2.1230
20317SOL    HW262393   4.168   1.683   4.478  1.2557  1.2393 -0.6511
20318SOL     OW62394   3.472   3.716  12.221  0.1922 -0.1000 -0.3916
20318SOL    HW162395   3.417   3.677  12.289 -0.5590  1.0790 -0.2967
20318SOL    HW262396   3.546   3.753  12.269  0.5762 -0.8119 -0.4161
20319SOL     OW62397   6.642   1.270   2.260 -0.0690 -0.3539 -0.0435
20319SOL    HW162398   6.623   1.300   2.349  0.0401  0.1594 -0.1917
20319SOL    HW262399   6.709   1.202   2.272 -0.3821 -0.6036  0.3014
20320SOL     OW62400   0.914   0.063   4.032 -0.1121 -0.4003  0.0712
20320SOL    HW162401   0.932   0.057   3.938  1.8416 -1.4591  0.4616
20320SOL    HW262402   1.000   0.078   4.072 -0.7121 -1.3140  1.7875
20321SOL     OW62403   7.817   0.032   7.047 -0.1561  0.1240  0.0720
20321SOL    HW162404   7.768  -0.036   7.093 -0.2136  0.7450  0.9599
20321SOL    HW262405   7.901   0.037   7.092  0.8958 -1.1395 -1.6304
20322SOL     OW62406   1.288   6.825   3.165 -0.1856  0.5557  0.5273
20322SOL    HW162407   1.335   6.884   3.106 -1.6708 -0.9519 -2.4184
20322SOL    HW262408   1.213   6.876   3.195  0.5944  1.3505  1.1780
20323SOL     OW62409   3.278   3.957   1.046 -0.3644 -0.4081  0.0743
20323SOL    HW162410   3.231   3.978   0.965  0.1401 -1.3476 -0.4858
20323SOL    HW262411   3.250   3.869   1.068  0.5657 -0.6933  0.1440
20324SOL     OW62412   7.227   7.354   1.926  0.4446 -0.0262 -0.9926
20324SOL    HW162413   7.306   7.314   1.963  0.7781  0.3823 -1.2723
20324SOL    HW262414   7.247   7.367   1.834 -0.6021 -1.5918 -1.4846
20325SOL     OW62415   6.715   5.830   2.267  0.0441  0.4079 -0.4092
20325SOL    HW162416   6.804   5.810   2.238  0.4096 -0.0339  0.9504
20325SOL    HW262417   6.680   5.887   2.198  0.6178 -1.1021 -2.0409
20326SOL     OW62418   7.077   6.422   3.224  0.1204  0.1866  0.3282
20326SOL    HW162419   7.085   6.422   3.129  0.8346  0.2610  0.3852
20326SOL    HW262420   7.062   6.330   3.247 -0.2794  0.1995  0.1333
20327SOL     OW62421   5.811   3.876   6.049 -0.2159 -0.0793 -0.6297
20327SOL    HW162422   5.880   3.934   6.082 -1.0338  1.1134 -0.9240
20327SOL    HW262423   5.858   3.801   6.013  0.8078 -0.3437  1.1558
20328SOL     OW62424   6.906   1.116  10.469 -0.0608  0.0983  0.0466
20328SOL    HW162425   6.881   1.088  10.557 -1.8541  1.0610 -0.1097
20328SOL    HW262426   6.886   1.040  10.413  1.5188 -0.6831  0.4926
20329SOL     OW62427   0.032   2.688   0.819 -0.2614 -0.5338  0.2646
20329SOL    HW162428   0.090   2.734   0.879 -0.5706 -0.7611  0.7449
20329SOL    HW262429  -0.048   2.740   0.817 -1.3761 -1.9974  2.3343
20330SOL     OW62430   2.278   2.053  10.114 -0.3675  0.0616 -0.2521
20330SOL    HW162431   2.365   2.019  10.098 -0.2995  0.3223 -0.4280
20330SOL    HW262432   2.290   2.118  10.183 -0.6108 -0.8282  0.6590
20331SOL     OW62433   0.138   5.361  10.487 -0.4832  0.4245 -0.1181
20331SOL    HW162434   0.211   5.325  10.538  0.0409  1.8447  0.1849
20331SOL    HW262435   0.093   5.420  10.548 -0.0008  1.9535 -1.1755
20332SOL     OW62436   6.014   6.388   5.028 -0.2208 -0.0432  0.0484
20332SOL    HW162437   5.946   6.340   4.981  1.1805 -2.4711  0.3142
20332SOL    HW262438   5.967   6.451   5.081 -2.0321  0.5872 -2.1701
20333SOL     OW62439   5.566   1.080   8.854  0.1627 -0.4756  0.5763
20333SOL    HW162440   5.599   1.152   8.908 -0.1229 -0.2076  0.3980
20333SOL    HW262441   5.644   1.029   8.832  0.5323  0.3878 -0.2012
20334SOL     OW62442   7.576   5.433   3.964 -0.1221  0.2870 -0.0360
20334SOL    HW162443   7.488   5.455   3.934 -0.4808 -1.3871 -0.3037
20334SOL    HW262444   7.596   5.500   4.030 -1.5810  0.6993  0.0319
20335SOL     OW62445   4.782   7.884   4.514 -0.7219  0.0769  0.5136
20335SOL    HW162446   4.690   7.868   4.493 -0.4185  0.6660 -1.5499
20335SOL    HW262447   4.813   7.940   4.443  1.6383 -1.4268  0.2322
20336SOL     OW62448   2.847   0.206   6.015 -0.4007  0.8254  0.0730
20336SOL    HW162449   2.929   0.247   6.043 -0.5364  1.4441 -0.4057
20336SOL    HW262450   2.851   0.207   5.920  0.0970 -1.3324  0.0205
20337SOL     OW62451   2.384   2.088   3.237  0.6178 -0.1614 -0.0048
20337SOL    HW162452   2.326   2.034   3.290  0.5783 -0.3324 -0.2208
20337SOL    HW262453   2.334   2.168   3.221 -0.0778 -0.8061 -1.2429
20338SOL     OW62454   7.114   5.886   4.780  0.2091 -0.0066 -0.0223
20338SOL    HW162455   7.027   5.849   4.766 -0.3630  0.7439  1.3451
20338SOL    HW262456   7.128   5.943   4.704  0.1916 -1.2968 -1.0385
20339SOL     OW62457   1.769   3.706  11.330  0.8381 -0.3980  0.0228
20339SOL    HW162458   1.701   3.670  11.386  2.7576 -0.7698  2.2634
20339SOL    HW262459   1.823   3.631  11.306  1.1044  0.0444 -0.7971
20340SOL     OW62460   1.309   1.615   6.590  0.0987 -0.5815  0.6548
20340SOL    HW162461   1.372   1.596   6.660  1.2227  1.2226  0.1809
20340SOL    HW262462   1.300   1.710   6.591 -2.7588 -0.7741  0.7775
20341SOL     OW62463   1.816   1.451   6.759  0.4506  0.6151 -0.4075
20341SOL    HW162464   1.807   1.544   6.778 -0.4578  0.5180 -0.3371
20341SOL    HW262465   1.897   1.445   6.707  1.4300  1.2287  0.9806
20342SOL     OW62466   0.753   7.912   9.907  0.3090  0.1099  0.2566
20342SOL    HW162467   0.736   7.855   9.831 -0.4470 -0.3026  0.7249
20342SOL    HW262468   0.835   7.879   9.944  0.9621  0.6382 -0.6656
20343SOL     OW62469   1.420   7.162   2.790  0.1051  0.3197  0.3695
20343SOL    HW162470   1.423   7.157   2.695 -1.6355 -0.9627  0.3358
20343SOL    HW262471   1.336   7.121   2.814  0.0665  1.4327  2.3930
20344SOL     OW62472   3.289   5.999   0.385  0.8677 -0.0211  0.3103
20344SOL    HW162473   3.297   5.905   0.403  2.0106 -0.0198 -0.1468
20344SOL    HW262474   3.296   6.040   0.471  2.4293 -0.2531  0.3279
20345SOL     OW62475   1.771   5.580   2.525  0.0926 -0.0995 -0.4411
20345SOL    HW162476   1.677   5.589   2.511  0.0570  2.5885  1.0455
20345SOL    HW262477   1.810   5.609   2.442 -0.3512 -0.5675 -0.8224
20346SOL     OW62478   2.557   1.432   8.903 -0.0908  0.5704 -0.5468
20346SOL    HW162479   2.544   1.527   8.903  0.5786  0.6716 -0.9637
20346SOL    HW262480   2.542   1.406   8.812  1.5430  0.5626 -0.8518
20347SOL     OW62481   6.034   6.445   7.064 -0.2156 -0.0190 -0.2829
20347SOL    HW162482   5.982   6.460   7.142 -1.2335  1.5925 -1.1980
20347SOL    HW262483   5.992   6.372   7.019 -0.2248 -0.2952  0.1799
20348SOL     OW62484   5.609   0.355  10.687  0.0268  0.0499 -0.5778
20348SOL    HW162485   5.664   0.403  10.749  1.0614 -0.2069 -1.2659
20348SOL    HW262486   5.630   0.263  10.703  0.6630  0.0003 -1.6063
20349SOL     OW62487   1.061   0.494   8.292  0.1026  0.0787 -0.0744
20349SOL    HW162488   1.056   0.560   8.362 -3.1151 -0.0392 -0.0779
20349SOL    HW262489   1.142   0.516   8.245  0.3684  2.5533  1.3608
20350SOL     OW62490   5.739   7.297   3.277  0.1410 -0.1419 -0.5893
20350SOL    HW162491   5.730   7.218   3.224  1.0693  0.2331 -1.3439
20350SOL    HW262492   5.792   7.356   3.223  2.2022 -0.2034  1.2258
20351SOL     OW62493   0.910   3.040   2.918  0.1621 -0.3111  0.4948
20351SOL    HW162494   0.926   3.133   2.930  0.6113 -0.3304  0.1149
20351SOL    HW262495   0.832   3.021   2.969  0.1032  0.2622  0.6178
20352SOL     OW62496   2.821   1.952   2.884 -0.1768 -0.0071 -0.1308
20352SOL    HW162497   2.883   1.900   2.833 -0.8373 -0.4818 -0.4656
20352SOL    HW262498   2.737   1.938   2.841 -0.6741 -0.0898  0.8423
20353SOL     OW62499   2.174   1.202   6.310 -0.1208 -1.0234  0.3128
20353SOL    HW162500   2.213   1.117   6.332  0.8953 -0.8877 -0.8802
20353SOL    HW262501   2.211   1.224   6.225 -0.8090  0.3636  0.3515
20354SOL     OW62502   6.958   2.587   9.146  0.3422 -0.1621 -0.6658
20354SOL    HW162503   6.948   2.499   9.183 -1.7592 -0.3349 -1.5194
20354SOL    HW262504   7.052   2.604   9.150  0.7003 -2.1029  0.2867
20355SOL     OW62505   6.874   3.232  12.360  0.0866  0.0971  0.1319
20355SOL    HW162506   6.787   3.247  12.397  0.6322  0.9222  1.1248
20355SOL    HW262507   6.931   3.290  12.409  1.3821 -1.1932  0.2218
20356SOL     OW62508   6.767   0.762  10.566 -0.3622 -0.5743 -0.5140
20356SOL    HW162509   6.757   0.826  10.495 -0.4571  0.3160  0.2840
20356SOL    HW262510   6.848   0.716  10.545 -0.5708 -0.5664 -1.3821
20357SOL     OW62511   7.929   0.569   9.145 -0.3551 -0.7123  0.1517
20357SOL    HW162512   7.937   0.497   9.208  1.3115 -2.9710 -2.4206
20357SOL    HW262513   7.875   0.534   9.074  0.2723  0.6529 -1.0617
20358SOL     OW62514   2.462   0.360   4.190 -0.3749 -0.1745  0.2246
20358SOL    HW162515   2.473   0.362   4.285  1.3384 -1.3826  0.0926
20358SOL    HW262516   2.507   0.439   4.159  0.0397 -0.3697  0.3318
20359SOL     OW62517   6.470   0.195   5.690  0.3614 -0.1638  0.5730
20359SOL    HW162518   6.548   0.234   5.649  1.0137  0.2233  2.1163
20359SOL    HW262519   6.429   0.144   5.620  1.3969  0.5234 -0.5628
20360SOL     OW62520   4.455   1.809  11.232 -0.3658 -0.5055 -0.5088
20360SOL    HW162521   4.549   1.821  11.248  0.0968 -1.9936 -1.8868
20360SOL    HW262522   4.443   1.714  11.227 -2.1802 -0.4029  0.8281
20361SOL     OW62523   1.122   4.137   1.138 -1.1363 -0.7166 -0.0047
20361SOL    HW162524   1.065   4.187   1.079  0.0869  1.5630  0.6285
20361SOL    HW262525   1.175   4.083   1.080 -0.3561  1.0601 -1.0478
20362SOL     OW62526   7.766   3.562  11.651  0.1966  0.0347 -0.0574
20362SOL    HW162527   7.860   3.566  11.667  0.3422 -1.6751 -0.3009
20362SOL    HW262528   7.735   3.489  11.705 -1.1095  0.9365  0.4753
20363SOL     OW62529   0.234   5.255   2.596  0.4405  0.2619  0.4352
20363SOL    HW162530   0.282   5.231   2.675 -0.4840  1.0600  1.2753
20363SOL    HW262531   0.183   5.177   2.574  0.3723  0.1741  0.8875
20364SOL     OW62532   2.017   3.905   8.007 -0.0752  0.3737  0.3347
20364SOL    HW162533   2.039   3.993   8.038 -0.4139  0.2719  0.8808
20364SOL    HW262534   2.016   3.852   8.087  0.7917 -0.2751 -0.0652
20365SOL     OW62535   5.413   1.526   1.462 -0.2000 -0.1491  0.4153
20365SOL    HW162536   5.337   1.525   1.520 -2.1455  1.4589 -1.8999
20365SOL    HW262537   5.446   1.615   1.468  1.6587 -0.8516  1.4549
20366SOL     OW62538   1.635   0.417   7.338 -0.8514 -0.9378  0.1710
20366SOL    HW162539   1.634   0.330   7.299  0.4130 -0.0989 -1.9222
20366SOL    HW262540   1.547   0.428   7.375 -2.0788 -1.9735 -2.2185
20367SOL     OW62541   0.267   0.635  11.495  0.3689 -0.5110 -0.8460
20367SOL    HW162542   0.211   0.628  11.573  0.7431  0.0685 -0.5109
20367SOL    HW262543   0.308   0.549  11.487 -0.4578 -0.9018 -1.0175
20368SOL     OW62544   7.328   7.643   9.681  0.2845  0.4672  0.2632
20368SOL    HW162545   7.406   7.698   9.679  0.8034 -0.2641 -0.5210
20368SOL    HW262546   7.264   7.689   9.626 -0.2669  1.6464  1.8384
20369SOL     OW62547   1.982   4.180  10.038 -0.3619 -0.2216  0.1990
20369SOL    HW162548   2.047   4.142  10.097  0.2550 -0.3557 -0.5480
20369SOL    HW262549   1.939   4.248  10.090  2.8135  2.4004 -0.2936
20370SOL     OW62550   1.280   7.151   6.327  0.2947 -0.3664  0.0587
20370SOL    HW162551   1.318   7.238   6.313  0.2017 -0.4837 -0.9416
20370SOL    HW262552   1.342   7.091   6.286  0.4353 -0.8015  0.8735
20371SOL     OW62553   7.079   6.397   2.032 -0.4641 -0.8602  0.1132
20371SOL    HW162554   7.087   6.306   2.003  0.3454 -0.4642 -0.9940
20371SOL    HW262555   7.157   6.440   1.997 -1.3970  0.5139 -0.3488
20372SOL     OW62556   1.376   1.759   7.802  0.8687 -0.2228  0.2231
20372SOL    HW162557   1.374   1.749   7.897  0.4203 -0.0472  0.2360
20372SOL    HW262558   1.291   1.726   7.773  0.4308  1.0279  0.0178
20373SOL     OW62559   4.758   6.781   6.317 -0.0684  0.1982  0.1742
20373SOL    HW162560   4.761   6.698   6.270  1.0467  0.8653 -0.9977
20373SOL    HW262561   4.818   6.769   6.390  0.3022  0.0587 -0.1496
20374SOL     OW62562   7.436   6.413  10.505  0.0326  0.2133  0.2229
20374SOL    HW162563   7.459   6.441  10.593  1.8162  1.5894 -0.6135
20374SOL    HW262564   7.352   6.457  10.488 -0.1682  0.1900  1.1041
20375SOL     OW62565   7.721   5.299   7.892  0.0937  0.1563  0.8430
20375SOL    HW162566   7.785   5.336   7.953  1.0458 -0.1464  0.0606
20375SOL    HW262567   7.747   5.207   7.884 -1.4474 -0.3945  1.7626
20376SOL     OW62568   3.670   7.502  11.173  0.3878  0.2845 -0.0984
20376SOL    HW162569   3.576   7.516  11.187  0.6002  2.3127 -0.3806
20376SOL    HW262570   3.710   7.521  11.258  0.5111 -1.3450  0.2351
20377SOL     OW62571   4.137   3.883   4.959  0.3545 -0.3969 -0.3667
20377SOL    HW162572   4.176   3.965   4.988  0.7443 -0.8546  0.4193
20377SOL    HW262573   4.181   3.815   5.010 -1.3439 -0.9414  0.4653
20378SOL     OW62574   0.915   3.885   0.188 -0.2047  0.0849 -0.1016
20378SOL    HW162575   0.853   3.887   0.115  0.0860 -0.4241 -0.3646
20378SOL    HW262576   0.998   3.915   0.150 -0.6314  2.3892  0.6093
20379SOL     OW62577   2.638   6.152   1.126 -0.1814  0.1076  0.0711
20379SOL    HW162578   2.703   6.088   1.154 -0.9952 -0.3737  0.9072
20379SOL    HW262579   2.651   6.226   1.186 -1.3041 -0.5494  1.1697
20380SOL     OW62580   5.735   5.587   3.415 -0.0248  0.2678 -0.3929
20380SOL    HW162581   5.744   5.640   3.335  0.1439  1.4007  0.3641
20380SOL    HW262582   5.810   5.528   3.413 -0.8763 -0.8491 -1.8834
20381SOL     OW62583   4.390   1.084  11.034 -0.4968  0.1556  0.3232
20381SOL    HW162584   4.333   1.076  10.957  2.8769  1.1693 -2.5183
20381SOL    HW262585   4.376   1.173  11.065 -0.9170  0.1805  0.0673
20382SOL     OW62586   7.761   7.877  10.802  0.2670 -0.1495  0.4132
20382SOL    HW162587   7.788   7.966  10.782  0.4358 -0.3479 -0.2854
20382SOL    HW262588   7.667   7.875  10.780  0.6079 -0.5651 -1.1444
20383SOL     OW62589   4.013   5.337   8.570  0.0860  0.4547 -0.4346
20383SOL    HW162590   4.042   5.256   8.612 -0.4289 -0.1479 -1.2262
20383SOL    HW262591   4.095   5.381   8.545  0.3854 -0.8318 -1.8929
20384SOL     OW62592   4.853   4.372   9.180 -0.4920 -0.0918 -0.3717
20384SOL    HW162593   4.798   4.448   9.200  1.2492  0.7585  1.6142
20384SOL    HW262594   4.814   4.301   9.231  0.1899  0.5274  1.0971
20385SOL     OW62595   5.652   5.415  11.687  0.0031 -0.0961 -0.3363
20385SOL    HW162596   5.740   5.454  11.686  0.2514 -0.6531 -0.3031
20385SOL    HW262597   5.666   5.326  11.718 -0.3568 -0.7086 -1.8647
20386SOL     OW62598   1.470   4.912   7.535 -0.1284 -0.0192  0.0847
20386SOL    HW162599   1.513   4.996   7.541 -2.7636  1.7422 -2.6241
20386SOL    HW262600   1.406   4.912   7.606 -0.8926  0.8283 -0.5843
20387SOL     OW62601   0.635   4.141  12.161 -0.2060  0.2944  0.0654
20387SOL    HW162602   0.663   4.057  12.125  0.1250 -0.2203  1.4805
20387SOL    HW262603   0.708   4.170  12.214 -1.2237  0.3196  1.4990
20388SOL     OW62604   1.985   4.995  10.069 -0.5767 -0.6633 -0.3063
20388SOL    HW162605   2.013   4.909  10.037 -0.7122 -0.6363 -0.4991
20388SOL    HW262606   1.926   5.028  10.001 -1.0546 -0.7083  0.0805
20389SOL     OW62607   5.870   2.233  11.101 -0.1276  0.0723 -0.1602
20389SOL    HW162608   5.777   2.233  11.124 -0.5820 -1.0696 -1.8287
20389SOL    HW262609   5.902   2.318  11.131 -1.5170  0.1796  1.1273
20390SOL     OW62610   4.488   0.733   4.186  0.0866  0.5016 -0.8535
20390SOL    HW162611   4.445   0.794   4.246 -1.5157 -0.8828 -0.4986
20390SOL    HW262612   4.569   0.708   4.230  0.6597  2.1408 -0.9096
20391SOL     OW62613   7.023   6.413   7.685 -0.6357 -0.4074 -0.0070
20391SOL    HW162614   6.970   6.333   7.682 -2.9336  1.0162 -0.5828
20391SOL    HW262615   7.013   6.445   7.774 -0.1196 -0.5191  0.0901
20392SOL     OW62616   3.885   1.516   9.548 -0.3630  0.3569  0.4706
20392SOL    HW162617   3.922   1.472   9.471 -0.3737 -0.0467  0.6919
20392SOL    HW262618   3.953   1.507   9.615 -0.5615  0.2521  0.6593
20393SOL     OW62619   3.192   4.436   1.610  0.2055 -0.3360  0.4767
20393SOL    HW162620   3.283   4.409   1.591 -0.1957 -1.7377  0.4097
20393SOL    HW262621   3.139   4.371   1.564 -0.8362  0.1666  0.9540
20394SOL     OW62622   6.818   2.920   4.663  0.3128 -0.5286 -0.0345
20394SOL    HW162623   6.867   2.857   4.609  0.0814 -0.2491 -0.5834
20394SOL    HW262624   6.766   2.969   4.600 -0.1845 -0.3871  0.4823
20395SOL     OW62625   1.593   2.660   1.831  0.0280  0.0230  0.1640
20395SOL    HW162626   1.583   2.668   1.925  0.9452  1.6754  0.1546
20395SOL    HW262627   1.688   2.661   1.816 -0.1111  0.7376 -0.8173
20396SOL     OW62628   6.691   4.669  11.916 -0.0594 -0.4357  0.1951
20396SOL    HW162629   6.657   4.607  11.852 -2.2580  1.3791 -0.5174
20396SOL    HW262630   6.723   4.743  11.864 -1.3420  0.8215  1.1220
20397SOL     OW62631   4.288   7.598   4.210 -0.4893 -0.2954  0.3636
20397SOL    HW162632   4.233   7.612   4.133 -1.3445  1.1724  1.2015
20397SOL    HW262633   4.372   7.568   4.174 -1.3589 -1.1953 -1.0241
20398SOL     OW62634   3.907   4.051   2.528 -0.0455 -0.1607 -0.7695
20398SOL    HW162635   3.844   4.113   2.564 -1.4079 -2.2122  0.5688
20398SOL    HW262636   3.927   3.992   2.600  2.0022 -0.7206 -1.6981
20399SOL     OW62637   0.164   6.189  10.368  0.2013 -0.2639 -0.1414
20399SOL    HW162638   0.255   6.217  10.373  0.3280 -0.4676 -1.1388
20399SOL    HW262639   0.130   6.230  10.288 -1.5926  2.6212  1.8951
20400SOL     OW62640   4.930   1.469  11.152  0.5769 -0.5973  0.2813
20400SOL    HW162641   4.867   1.539  11.135 -0.7301 -1.9276 -0.5452
20400SOL    HW262642   5.004   1.514  11.193 -0.4608  1.1700  0.3430
20401SOL     OW62643   6.541   0.163   2.378  0.1938  0.6661  0.2506
20401SOL    HW162644   6.624   0.155   2.425  0.3664  0.6519 -0.0553
20401SOL    HW262645   6.547   0.098   2.308  0.3453  1.3440 -0.3820
20402SOL     OW62646   7.728   3.166   0.755  0.0461 -0.3299  0.8516
20402SOL    HW162647   7.790   3.182   0.683  0.1182 -1.0901  0.7436
20402SOL    HW262648   7.751   3.231   0.821  0.4515 -0.1014  0.4932
20403SOL     OW62649   6.727   4.005   1.662  1.1938 -0.0449  0.2688
20403SOL    HW162650   6.735   4.101   1.663  2.0097 -0.0841 -1.2396
20403SOL    HW262651   6.727   3.981   1.570  2.8705 -1.6500  0.6292
20404SOL     OW62652   6.623   2.418   7.655 -0.0353 -0.2032 -0.4089
20404SOL    HW162653   6.717   2.422   7.670  0.0282  2.0593 -1.1044
20404SOL    HW262654   6.585   2.471   7.725 -0.5102  1.6636 -2.0271
20405SOL     OW62655   7.336   0.496   9.502 -0.0600  0.1627 -0.5520
20405SOL    HW162656   7.275   0.437   9.546  1.8575 -1.7937 -0.3272
20405SOL    HW262657   7.358   0.452   9.420  0.5050  1.1596 -0.9534
20406SOL     OW62658   2.900   7.825   1.002 -0.0616 -0.3241 -0.1929
20406SOL    HW162659   2.915   7.735   0.973 -0.9258 -0.3760 -0.5122
20406SOL    HW262660   2.819   7.820   1.054  0.3174  0.1328  0.4499
20407SOL     OW62661   3.111   2.798   3.727  0.3177 -0.0313  0.1599
20407SOL    HW162662   3.119   2.880   3.678 -2.2839 -0.0925 -0.5147
20407SOL    HW262663   3.133   2.822   3.817  0.7319  1.1551 -0.2394
20408SOL     OW62664   5.379   5.590  12.347  1.1381  0.3967 -0.4647
20408SOL    HW162665   5.417   5.641  12.418  1.5750  1.3036 -1.3168
20408SOL    HW262666   5.386   5.499  12.375  2.6325  0.6360  0.0286
20409SOL     OW62667   3.621   6.539   5.174 -0.1063  0.0051 -0.1638
20409SOL    HW162668   3.600   6.513   5.084 -3.5064  1.3191  0.0992
20409SOL    HW262669   3.609   6.634   5.174 -0.8888 -0.0540  1.8201
20410SOL     OW62670   6.423   1.082   3.730  0.7067  0.0509 -0.2370
20410SOL    HW162671   6.376   1.015   3.780  0.5072  0.7326  0.5141
20410SOL    HW262672   6.365   1.102   3.657 -0.6671  1.5683  1.1940
20411SOL     OW62673   5.881   4.064  12.430 -0.2586  0.0445 -0.5064
20411SOL    HW162674   5.966   4.023  12.447  0.5644  1.0710 -1.9167
20411SOL    HW262675   5.855   4.101  12.515  1.6371  1.3592 -0.4328
20412SOL     OW62676   0.916   7.968   0.302 -0.6010 -0.1401 -0.0414
20412SOL    HW162677   0.924   7.875   0.324 -0.3757 -0.5384 -1.6590
20412SOL    HW262678   1.007   7.996   0.288 -0.3631  1.0831  3.0468
20413SOL     OW62679   6.213   6.121   3.935  0.1914 -0.3833  0.1045
20413SOL    HW162680   6.305   6.121   3.961 -0.1644 -0.4924  1.4330
20413SOL    HW262681   6.192   6.213   3.923  0.4478 -0.3518 -0.1162
20414SOL     OW62682   0.544   2.585   5.127 -0.3585 -0.0636 -0.0293
20414SOL    HW162683   0.489   2.508   5.117 -3.4855  2.0170 -0.2489
20414SOL    HW262684   0.539   2.629   5.043 -0.2773  1.3525  0.6761
20415SOL     OW62685   7.720   0.925   7.173  0.3332 -0.3964 -0.1953
20415SOL    HW162686   7.628   0.926   7.201 -0.3544  2.6042 -2.1220
20415SOL    HW262687   7.724   0.858   7.105 -0.5738 -0.1466 -0.5050
20416SOL     OW62688   2.343   6.168   0.250 -0.4854  0.2352  0.0718
20416SOL    HW162689   2.422   6.207   0.287 -0.4827 -0.1336  0.4619
20416SOL    HW262690   2.306   6.116   0.322 -0.2048 -0.9125 -0.5828
20417SOL     OW62691   7.393   7.887   0.061  0.4641  0.1972  0.5696
20417SOL    HW162692   7.385   7.956  -0.006  2.5741  0.6288  0.7100
20417SOL    HW262693   7.388   7.805   0.012  0.7480  0.4896  0.0448
20418SOL     OW62694   4.009   2.666   0.418 -0.1332 -0.5817  0.1391
20418SOL    HW162695   3.975   2.729   0.482 -0.5977 -0.9749  0.2842
20418SOL    HW262696   4.020   2.585   0.468 -0.3317 -0.8419 -0.2330
20419SOL     OW62697   5.545   4.063   3.107  0.1672  0.5819  0.4617
20419SOL    HW162698   5.467   4.037   3.059  0.4427 -1.0771  0.8372
20419SOL    HW262699   5.543   4.159   3.109 -2.6840  0.5870  1.8254
20420SOL     OW62700   4.719   5.808   3.358  0.0124 -0.4387 -0.8543
20420SOL    HW162701   4.711   5.886   3.303 -0.9260  0.0876 -0.0107
20420SOL    HW262702   4.782   5.834   3.426 -0.2058 -0.4498 -0.6460
20421SOL     OW62703   3.296   7.613   6.306  0.0860 -0.0657 -0.4395
20421SOL    HW162704   3.230   7.619   6.375  2.3672 -1.3447  2.0576
20421SOL    HW262705   3.341   7.530   6.323  2.5008  0.8626 -1.7931
20422SOL     OW62706   7.187   4.494   2.975  0.0305  0.0537  0.4342
20422SOL    HW162707   7.155   4.470   3.062 -0.6600 -0.3024  0.0892
20422SOL    HW262708   7.201   4.589   2.980  1.4728 -0.1653  1.3880
20423SOL     OW62709   2.451   3.474   2.267  0.0296 -0.2769 -0.8195
20423SOL    HW162710   2.463   3.564   2.300  1.2987 -0.5778 -0.3845
20423SOL    HW262711   2.362   3.472   2.233 -0.0940  1.0870 -0.6230
20424SOL     OW62712   7.166   7.319   4.436  0.2395  0.2133 -0.1397
20424SOL    HW162713   7.081   7.343   4.398 -0.7131 -0.2490  1.5808
20424SOL    HW262714   7.228   7.327   4.364 -0.8722  2.7218 -0.9377
20425SOL     OW62715   7.729   5.221   0.816  0.0790  0.1209  0.4332
20425SOL    HW162716   7.733   5.253   0.907  1.7505  0.2092  0.3650
20425SOL    HW262717   7.789   5.278   0.768  1.0715 -1.4197 -0.2323
20426SOL     OW62718   4.969   3.290   2.772  0.5446 -0.3580  0.0694
20426SOL    HW162719   4.976   3.285   2.677 -0.5486 -1.6304  0.0129
20426SOL    HW262720   4.952   3.382   2.791 -0.4900 -0.2893 -1.0816
20427SOL     OW62721   1.729   7.322   7.063  0.3241  0.1317 -0.6723
20427SOL    HW162722   1.687   7.274   6.992  0.1461 -0.4347 -0.1902
20427SOL    HW262723   1.724   7.414   7.036 -0.6481  0.0144 -0.9193
20428SOL     OW62724   7.631   0.852   7.628 -0.3035 -0.1860  0.7000
20428SOL    HW162725   7.603   0.810   7.547  0.1826 -1.4456  1.1527
20428SOL    HW262726   7.716   0.890   7.607 -0.9770  1.0672  0.1435
20429SOL     OW62727   6.490   2.070   9.528 -0.0988  0.2873  0.4278
20429SOL    HW162728   6.565   2.123   9.501  0.0194 -0.6608 -1.1887
20429SOL    HW262729   6.526   2.007   9.591  0.1392  0.8100  0.8246
20430SOL     OW62730   2.605   5.478  10.245  0.8510 -0.0132 -0.1296
20430SOL    HW162731   2.548   5.409  10.280 -1.0850  0.2282 -2.5526
20430SOL    HW262732   2.557   5.559  10.264  2.2732  0.5702  1.1459
20431SOL     OW62733   0.557   1.324  10.614  0.3204 -0.4038  0.2503
20431SOL    HW162734   0.486   1.348  10.554  2.7221  0.5924 -2.4616
20431SOL    HW262735   0.556   1.228  10.615 -2.2003 -0.4575  1.9108
20432SOL     OW62736   2.684   4.388   8.486  0.9188  0.1106 -0.0974
20432SOL    HW162737   2.682   4.336   8.566 -1.5793  1.0243  0.5115
20432SOL    HW262738   2.702   4.477   8.515 -1.0217  0.6362 -0.3600
20433SOL     OW62739   7.136   1.430   2.877 -0.1572 -0.0955  0.0759
20433SOL    HW162740   7.199   1.384   2.933  0.7280 -1.8558 -2.1672
20433SOL    HW262741   7.189   1.496   2.832  0.0251 -1.1306 -1.3142
20434SOL     OW62742   5.801   5.795   7.607 -0.1941  0.3456  0.1774
20434SOL    HW162743   5.707   5.804   7.592 -0.0737  1.4177 -0.0161
20434SOL    HW262744   5.812   5.809   7.701 -0.3320 -0.8129  0.3775
20435SOL     OW62745   2.757   3.144   3.417  0.4650  0.3923  0.7094
20435SOL    HW162746   2.797   3.068   3.376  0.2783  1.9058 -2.5476
20435SOL    HW262747   2.810   3.160   3.496  1.1087 -2.4313  0.9353
20436SOL     OW62748   6.688   3.120   4.486  0.2955  0.7594 -0.0319
20436SOL    HW162749   6.599   3.139   4.515 -0.2080 -1.2508 -0.0631
20436SOL    HW262750   6.681   3.113   4.391  0.4600  0.5706 -0.0322
20437SOL     OW62751   3.842   5.775   2.837 -0.1064 -0.5249  0.2989
20437SOL    HW162752   3.782   5.789   2.910  0.3653 -0.3633  0.6658
20437SOL    HW262753   3.879   5.687   2.853 -1.0000 -1.0615 -0.4861
20438SOL     OW62754   0.457   6.222   9.362  0.2782  0.0591 -0.3900
20438SOL    HW162755   0.505   6.225   9.445  1.7442  1.0056 -1.2357
20438SOL    HW262756   0.523   6.200   9.296 -0.6550  0.3177 -1.4422
20439SOL     OW62757   7.659   1.423   5.924  0.3070 -0.3254  0.1843
20439SOL    HW162758   7.683   1.409   6.016  1.0709 -1.4508 -0.1675
20439SOL    HW262759   7.575   1.378   5.915 -0.6814  1.3186  0.7478
20440SOL     OW62760   4.990   2.215   7.355 -0.0057  0.2913 -0.8562
20440SOL    HW162761   4.955   2.298   7.324  0.4493  0.4949 -0.8422
20440SOL    HW262762   5.077   2.237   7.390  0.7498 -0.4054 -2.1844
20441SOL     OW62763   3.994   1.644   5.412  0.2065  0.0605  0.1920
20441SOL    HW162764   3.961   1.729   5.383  0.8957  0.9962  2.0202
20441SOL    HW262765   4.085   1.642   5.383 -0.5303 -1.3358 -2.3639
20442SOL     OW62766   1.233   0.201   1.322  0.0963 -0.1734 -0.4009
20442SOL    HW162767   1.226   0.106   1.311  1.1983 -0.4587  1.0867
20442SOL    HW262768   1.151   0.226   1.364  0.0236 -0.5421 -0.3173
20443SOL     OW62769   7.665   7.422   3.354  0.8163  0.6595 -0.4630
20443SOL    HW162770   7.599   7.488   3.373 -1.1683 -0.9053 -1.4178
20443SOL    HW262771   7.703   7.449   3.271  0.4334  0.9109 -0.5595
20444SOL     OW62772   0.704   5.948   3.943  0.3879  0.2723  0.1062
20444SOL    HW162773   0.718   5.857   3.916  0.8327  0.7101 -1.2619
20444SOL    HW262774   0.611   5.964   3.922  0.5860  0.4385 -0.6959
20445SOL     OW62775   4.406   5.455   0.291  0.2538  0.6831  0.0161
20445SOL    HW162776   4.484   5.447   0.237 -0.1871 -1.2433 -0.4038
20445SOL    HW262777   4.439   5.481   0.377  1.1149  2.1672 -0.7319
20446SOL     OW62778   7.918   6.723   4.095  0.1005 -0.2805  0.1608
20446SOL    HW162779   7.952   6.810   4.075  0.8380 -0.5125  0.3464
20446SOL    HW262780   7.989   6.681   4.143 -0.5126 -0.7469  0.6765
20447SOL     OW62781   6.897   1.004   9.695  0.1725  0.1017 -0.1455
20447SOL    HW162782   6.924   0.984   9.785  0.7456 -0.6472 -0.4733
20447SOL    HW262783   6.980   1.015   9.647 -0.0954 -1.1807 -0.9397
20448SOL     OW62784   0.409   0.182   7.469 -0.3515 -0.1819 -0.1650
20448SOL    HW162785   0.357   0.110   7.432 -2.1845  0.2112  1.4995
20448SOL    HW262786   0.356   0.215   7.541  1.2912  1.6732  0.2634
20449SOL     OW62787   5.912   5.023   5.227 -0.3141  0.1012 -0.1740
20449SOL    HW162788   5.836   5.077   5.248 -0.6503 -1.1378  2.2406
20449SOL    HW262789   5.892   4.983   5.143 -1.4904  1.2190 -0.4511
20450SOL     OW62790   4.105   6.186   7.448 -0.1140 -0.0148  0.0412
20450SOL    HW162791   4.081   6.278   7.453 -0.4460 -0.0889 -0.2249
20450SOL    HW262792   4.151   6.169   7.531  0.8072  0.6302 -0.3175
20451SOL     OW62793   5.053   4.773  11.586 -0.1360  0.2605 -0.1600
20451SOL    HW162794   5.093   4.808  11.665 -2.4681  1.8070  0.4529
20451SOL    HW262795   4.962   4.756  11.611 -0.6229 -0.3375 -2.1812
20452SOL     OW62796   6.961   6.643  11.079  0.1144  0.1928 -0.1334
20452SOL    HW162797   7.032   6.662  11.017  1.2786 -3.6122 -0.2256
20452SOL    HW262798   6.900   6.589  11.030 -1.1387  0.6410  0.8900
20453SOL     OW62799   0.866   5.916   6.253 -0.3651 -0.2727 -0.2485
20453SOL    HW162800   0.946   5.961   6.281  0.5250 -1.0377 -1.4309
20453SOL    HW262801   0.811   5.985   6.216  0.7377 -0.0169 -1.5160
20454SOL     OW62802   2.386   1.059  11.837  0.4434 -0.1238 -0.4945
20454SOL    HW162803   2.322   1.063  11.766  1.8107  1.5919 -1.7240
20454SOL    HW262804   2.421   0.970  11.833  1.3048  0.2483 -2.7861
20455SOL     OW62805   2.256   0.419  10.252 -0.2162 -0.7185 -0.1626
20455SOL    HW162806   2.198   0.455  10.320 -0.1526 -1.7470  0.4579
20455SOL    HW262807   2.203   0.351  10.210 -0.4394  0.2490 -1.5207
20456SOL     OW62808   4.537   6.850   3.338 -0.3765 -0.7760 -0.2448
20456SOL    HW162809   4.518   6.920   3.276  0.4259  0.8882  1.3166
20456SOL    HW262810   4.633   6.842   3.337 -0.2933 -0.1978  1.3056
20457SOL     OW62811   2.951   5.470   4.455 -0.4440 -0.2670  0.1443
20457SOL    HW162812   3.030   5.416   4.462  0.5291  0.7915 -1.7574
20457SOL    HW262813   2.955   5.526   4.532  1.4434  0.6544 -0.5408
20458SOL     OW62814   5.402   4.397   3.922 -1.3309  0.4089  0.3525
20458SOL    HW162815   5.474   4.417   3.863  0.6167  0.9819  2.7656
20458SOL    HW262816   5.324   4.404   3.867  0.3355  0.5474 -2.1997
20459SOL     OW62817   4.912   3.259   5.666  0.0909  0.5572  0.4385
20459SOL    HW162818   4.922   3.335   5.724 -0.9653 -0.3200  1.8439
20459SOL    HW262819   4.856   3.290   5.596 -0.5332  1.0353  1.1301
20460SOL     OW62820   7.195   4.051   3.783  0.2491  0.4220  0.2769
20460SOL    HW162821   7.241   3.972   3.811  1.4474  1.2828  0.8070
20460SOL    HW262822   7.205   4.052   3.688  0.5693  0.1347  0.3060
20461SOL     OW62823   6.024   1.597  11.850 -0.2883 -0.5591 -0.0533
20461SOL    HW162824   5.982   1.644  11.779 -1.2239 -1.3105 -0.0167
20461SOL    HW262825   5.952   1.558  11.900  0.4004 -1.0443  0.5979
20462SOL     OW62826   6.700   3.407   5.359  0.4777 -0.2879  0.0682
20462SOL    HW162827   6.742   3.464   5.424  1.7680  0.2106 -1.1605
20462SOL    HW262828   6.772   3.366   5.313 -0.4274 -1.0734 -0.6824
20463SOL     OW62829   0.547   4.161   2.746  0.1470 -0.3274  0.3207
20463SOL    HW162830   0.636   4.150   2.711  0.9172  1.1593  1.6639
20463SOL    HW262831   0.491   4.165   2.669  1.4260  0.1299 -0.6165
20464SOL     OW62832   2.438   5.196   5.261 -0.2039 -0.0354  0.1090
20464SOL    HW162833   2.407   5.286   5.247 -0.3907 -0.0366  0.5054
20464SOL    HW262834   2.440   5.186   5.356 -0.2906 -0.4903  0.0631
20465SOL     OW62835   5.405   0.450   7.837 -0.6996 -0.2920  0.0504
20465SOL    HW162836   5.466   0.517   7.806 -2.0906  0.8105 -0.3701
20465SOL    HW262837   5.404   0.384   7.768  0.0699 -0.3695  0.1058
20466SOL     OW62838   4.660   4.906  11.351 -0.0804 -0.2213 -0.0906
20466SOL    HW162839   4.615   4.928  11.269  0.3846 -0.1240 -0.3254
20466SOL    HW262840   4.713   4.983  11.370  2.0435 -1.3026 -1.2483
20467SOL     OW62841   4.703   1.528   2.715  0.3160  0.1156  0.5526
20467SOL    HW162842   4.703   1.559   2.624 -0.8820 -1.0112  0.1421
20467SOL    HW262843   4.728   1.605   2.766  2.5791  0.3985 -0.8297
20468SOL     OW62844   7.066   3.610   0.869 -0.1031  0.1699  0.2554
20468SOL    HW162845   7.003   3.637   0.935 -0.9699  0.4035 -0.6483
20468SOL    HW262846   7.015   3.558   0.806  0.4940  0.7565 -0.7453
20469SOL     OW62847   6.970   5.629   7.283  0.1182 -0.4804 -0.6680
20469SOL    HW162848   7.055   5.628   7.327 -0.0355  1.2249 -0.2671
20469SOL    HW262849   6.911   5.583   7.343  0.4204 -0.2347 -0.1777
20470SOL     OW62850   2.619   3.046  10.793  0.1814  0.6032 -0.7370
20470SOL    HW162851   2.628   2.985  10.720  3.2859  0.4822 -0.3897
20470SOL    HW262852   2.567   2.999  10.858 -0.5265 -0.2397 -1.8830
20471SOL     OW62853   2.579   0.184   3.402  0.0458 -0.1038 -0.3818
20471SOL    HW162854   2.505   0.195   3.461 -0.4769 -1.0036 -0.8559
20471SOL    HW262855   2.558   0.106   3.351  0.4283  0.7025 -1.8268
20472SOL     OW62856   3.174   0.980   6.061 -0.0034 -0.0700  0.3381
20472SOL    HW162857   3.150   1.046   5.995  0.3125  1.0118  1.2633
20472SOL    HW262858   3.262   0.952   6.035 -0.9603 -1.7593 -1.2895
20473SOL     OW62859   2.349   2.316   6.321 -0.1157 -0.1397  0.0390
20473SOL    HW162860   2.352   2.355   6.408 -1.3152 -0.0136  0.0399
20473SOL    HW262861   2.324   2.388   6.263  0.8153 -0.1857 -0.4538
20474SOL     OW62862   5.698   2.454   3.743  0.0801 -0.2474  0.1237
20474SOL    HW162863   5.626   2.505   3.780  0.7762 -0.5908  2.0600
20474SOL    HW262864   5.736   2.408   3.818  1.1816 -1.4975 -1.1365
20475SOL     OW62865   1.083   6.079  12.441  0.0820 -0.2450  0.0444
20475SOL    HW162866   1.143   6.139  12.398  1.1012 -0.2016  1.4666
20475SOL    HW262867   1.004   6.131  12.457  0.4622  0.3237  0.0760
20476SOL     OW62868   1.446   6.039   8.805  0.0110 -0.2975  0.7995
20476SOL    HW162869   1.531   6.083   8.798  0.7379 -1.7845 -0.3287
20476SOL    HW262870   1.438   5.989   8.724 -3.0702  1.6226 -0.2490
20477SOL     OW62871   5.151   2.685   7.891 -0.1645  0.3608  0.0499
20477SOL    HW162872   5.136   2.771   7.930 -1.4987  0.3807 -0.4501
20477SOL    HW262873   5.183   2.631   7.963 -1.3246  0.7394  0.8814
20478SOL     OW62874   7.076   7.079   1.673  0.1171 -0.3760  0.4714
20478SOL    HW162875   7.161   7.062   1.715  0.0872 -1.9296  0.0004
20478SOL    HW262876   7.071   7.012   1.605 -1.0550  0.3480 -0.1747
20479SOL     OW62877   2.669   7.313   6.395 -0.1625  0.1790 -0.0223
20479SOL    HW162878   2.609   7.259   6.446  0.1179 -0.3023 -0.1968
20479SOL    HW262879   2.613   7.375   6.348 -0.5320 -0.3637 -0.2985
20480SOL     OW62880   1.563   6.412   8.656  0.1287 -0.5315 -0.2153
20480SOL    HW162881   1.620   6.482   8.686 -0.0924  0.0131 -1.0315
20480SOL    HW262882   1.545   6.433   8.564 -0.2273 -1.4657 -0.3739
20481SOL     OW62883   0.255   6.433   2.612  0.0510 -0.1337 -0.0192
20481SOL    HW162884   0.299   6.352   2.586  1.8896  0.7179  0.2692
20481SOL    HW262885   0.217   6.413   2.698  0.0794 -0.8127 -0.1540
20482SOL     OW62886   4.377   2.035   3.603 -0.3023  0.3030  0.4022
20482SOL    HW162887   4.311   1.990   3.549  0.8289  0.3729 -1.0965
20482SOL    HW262888   4.439   2.072   3.540  0.5910  1.1812  1.7324
20483SOL     OW62889   7.259   2.690   4.335 -0.2080 -0.0909 -0.2049
20483SOL    HW162890   7.284   2.603   4.364  1.3342  0.4639  0.2300
20483SOL    HW262891   7.219   2.677   4.249 -3.2543 -1.5940  1.2666
20484SOL     OW62892   1.303   2.435   0.188  0.0563  0.2842  0.0254
20484SOL    HW162893   1.377   2.469   0.138  0.2305 -1.2225 -0.7758
20484SOL    HW262894   1.273   2.359   0.138  0.0044 -1.0576  2.0018
20485SOL     OW62895   7.520   3.246  11.091  0.0023 -0.0073  0.1423
20485SOL    HW162896   7.580   3.222  11.162  0.7506  0.4905 -0.3146
20485SOL    HW262897   7.526   3.341  11.085 -3.5222  0.5618  2.4661
20486SOL     OW62898   3.919   0.160  11.564 -0.4850 -0.5857  0.0377
20486SOL    HW162899   3.861   0.094  11.602 -0.9904  0.0372  0.3855
20486SOL    HW262900   3.942   0.216  11.638 -2.2861  1.2457 -0.6993
20487SOL     OW62901   1.062   2.755   5.005 -0.1134  0.0050 -0.2586
20487SOL    HW162902   0.978   2.733   4.963  0.6070 -1.3659 -1.0350
20487SOL    HW262903   1.072   2.690   5.075 -0.0664  0.6766  0.3776
20488SOL     OW62904   1.922   7.473   7.674  1.1032 -0.0839 -0.2593
20488SOL    HW162905   1.890   7.495   7.761  4.4066 -0.7881  1.3057
20488SOL    HW262906   2.017   7.474   7.683  1.5566 -2.3765 -3.3008
20489SOL     OW62907   4.493   4.088   9.167  0.3156  0.4376  0.5400
20489SOL    HW162908   4.496   4.066   9.074 -1.3585 -0.4105  0.6529
20489SOL    HW262909   4.522   4.008   9.211 -0.9670  0.0950  0.7936
20490SOL     OW62910   6.250   0.139   8.215  0.2172  0.8467  0.4015
20490SOL    HW162911   6.163   0.117   8.182  1.6779 -0.5979 -2.9500
20490SOL    HW262912   6.274   0.065   8.270  0.9757 -1.1009 -2.3406
20491SOL     OW62913   4.699   2.869   8.907 -0.2715  0.8906 -0.1508
20491SOL    HW162914   4.794   2.856   8.915 -0.0885  0.8137 -1.9145
20491SOL    HW262915   4.685   2.878   8.812 -1.9458  1.5627  0.1356
20492SOL     OW62916   6.640   0.571   3.306  0.1926  0.3392 -0.2864
20492SOL    HW162917   6.597   0.487   3.289  0.7910  0.0215 -0.2255
20492SOL    HW262918   6.571   0.636   3.289 -0.0857 -0.1211 -0.9611
20493SOL     OW62919   5.422   4.884   7.864  0.0741  0.0913 -0.7031
20493SOL    HW162920   5.434   4.977   7.880 -0.2091  0.3588 -1.9492
20493SOL    HW262921   5.333   4.865   7.894 -0.5836  0.6642 -2.1840
20494SOL     OW62922   3.531   6.196   5.520  0.5836 -0.1259 -0.2991
20494SOL    HW162923   3.525   6.227   5.429  0.5133 -0.4022 -0.3906
20494SOL    HW262924   3.498   6.106   5.516  0.1590  0.0087  0.0764
20495SOL     OW62925   4.070   1.628   4.766 -0.3035 -0.3907  0.1709
20495SOL    HW162926   4.004   1.639   4.835  1.2254  2.6276  1.3532
20495SOL    HW262927   4.053   1.701   4.706  1.5618  0.1198  0.2163
20496SOL     OW62928   6.992   4.720   4.342  0.1262 -0.4373 -0.1688
20496SOL    HW162929   7.004   4.809   4.308  0.1045 -0.5627 -0.5106
20496SOL    HW262930   7.047   4.716   4.420 -0.0083 -0.0675 -0.0527
20497SOL     OW62931   4.848   5.386   9.958 -0.1369 -0.0714 -0.0247
20497SOL    HW162932   4.880   5.424   9.876  3.2485 -0.7577  0.7997
20497SOL    HW262933   4.921   5.332   9.989 -2.1793 -1.7275  2.2808
20498SOL     OW62934   6.923   3.732  11.878  0.2178 -0.5137 -0.2676
20498SOL    HW162935   6.864   3.718  11.952 -0.9590  0.7135 -0.9321
20498SOL    HW262936   6.913   3.825  11.856  0.8449 -0.7552 -1.7172
20499SOL     OW62937   7.300   6.969   4.794  0.6402  0.3220  0.1607
20499SOL    HW162938   7.224   7.026   4.787  0.2776 -0.0549  0.8953
20499SOL    HW262939   7.264   6.883   4.817  1.2649  0.0965  0.3208
20500SOL     OW62940   4.279   0.514   1.358 -0.3362  0.3202  0.1198
20500SOL    HW162941   4.330   0.439   1.328 -1.1651 -0.1549 -0.1368
20500SOL    HW262942   4.260   0.563   1.278  1.4212  1.6215  0.4335
20501SOL     OW62943   4.085   0.987  10.228 -0.4420 -0.0228  0.2733
20501SOL    HW162944   4.097   1.038  10.148 -2.7959 -0.7075 -0.6197
20501SOL    HW262945   4.172   0.955  10.250  0.3551  0.6423 -1.7021
20502SOL     OW62946   7.027   1.160   5.899  0.2202  0.2163  0.6587
20502SOL    HW162947   7.046   1.254   5.901 -0.7846  0.5120 -1.2549
20502SOL    HW262948   7.058   1.131   5.813  0.7172 -1.2716  1.3099
20503SOL     OW62949   7.156   1.538   3.378  0.4017  0.3372 -0.2200
20503SOL    HW162950   7.106   1.557   3.457 -0.7591  1.7459 -1.2518
20503SOL    HW262951   7.091   1.515   3.313  1.4660 -3.6457 -0.1433
20504SOL     OW62952   2.710   5.121   7.070  0.0877  0.2197 -0.1195
20504SOL    HW162953   2.741   5.049   7.015 -0.5480 -0.4967  0.4136
20504SOL    HW262954   2.629   5.087   7.109 -0.3712  1.3320 -0.0565
20505SOL     OW62955   4.269   4.007   2.646 -0.0209 -0.2406  0.1110
20505SOL    HW162956   4.354   3.966   2.632  0.9591  0.8990  2.2044
20505SOL    HW262957   4.211   3.936   2.673 -0.5851 -1.5263 -3.8765
20506SOL     OW62958   4.793   4.141   2.710 -0.0622  0.0638  0.2131
20506SOL    HW162959   4.805   4.052   2.741  1.2455  0.0736 -0.2184
20506SOL    HW262960   4.756   4.188   2.784  0.3569 -0.5624  0.8237
20507SOL     OW62961   4.051   7.394   2.524  0.1219 -0.2721  0.1278
20507SOL    HW162962   4.120   7.400   2.458 -1.7494  0.4992 -1.8798
20507SOL    HW262963   4.025   7.485   2.539 -1.7550 -0.6308 -0.6823
20508SOL     OW62964   1.997   5.983  10.300 -0.2757 -0.4158 -0.1691
20508SOL    HW162965   2.046   5.964  10.220  1.3852 -0.0863  0.7199
20508SOL    HW262966   2.026   5.917  10.362 -2.4012 -1.3699 -0.1224
20509SOL     OW62967   4.018   4.444   5.755 -0.0397  0.4218 -0.6392
20509SOL    HW162968   3.998   4.351   5.763 -0.5879  0.5821 -0.0044
20509SOL    HW262969   3.951   4.479   5.697  0.5255  0.3201 -1.3713
20510SOL     OW62970   4.996   0.248   9.728  0.0230 -0.6228 -0.2167
20510SOL    HW162971   4.914   0.261   9.777 -0.3302 -1.3814 -0.5895
20510SOL    HW262972   5.006   0.153   9.723 -0.6743 -0.6191 -2.7637
20511SOL     OW62973   6.672   6.622   2.634 -0.0506 -0.0190 -0.0864
20511SOL    HW162974   6.675   6.526   2.633 -2.9676 -0.1737 -1.0529
20511SOL    HW262975   6.739   6.648   2.570 -0.5902 -1.5065 -1.3253
20512SOL     OW62976   6.646   2.965   8.910 -0.5514 -0.4062 -0.0348
20512SOL    HW162977   6.592   3.024   8.962 -1.5496 -1.1097 -0.2431
20512SOL    HW262978   6.635   2.879   8.952  0.5092 -0.5347 -0.0026
20513SOL     OW62979   1.612   3.155  12.021  0.6650  0.4649  0.3919
20513SOL    HW162980   1.690   3.134  12.073  0.6878  2.1752  1.1080
20513SOL    HW262981   1.614   3.250  12.012 -1.3891  0.5567  0.4763
20514SOL     OW62982   1.174   4.334   2.022  0.4948 -0.0627  0.4900
20514SOL    HW162983   1.219   4.281   2.087 -0.9827 -2.1510 -0.0755
20514SOL    HW262984   1.081   4.319   2.038  0.0737 -0.5410 -1.9320
20515SOL     OW62985   4.959   6.437   5.202 -0.2253  0.4042 -0.4051
20515SOL    HW162986   5.043   6.452   5.159 -0.1019  0.9796  0.0322
20515SOL    HW262987   4.931   6.524   5.232 -0.6808  0.1256 -0.0009
20516SOL     OW62988   1.352   5.956   9.300 -0.6416  0.1548  0.1887
20516SOL    HW162989   1.386   6.042   9.325 -2.0911  0.5795  0.8647
20516SOL    HW262990   1.398   5.894   9.357 -0.5675  0.6439  0.6783
20517SOL     OW62991   1.897   2.735   2.155  0.3873  0.4305 -0.0109
20517SOL    HW162992   1.820   2.678   2.160 -0.6004  1.7905  1.0853
20517SOL    HW262993   1.894   2.786   2.236  2.4304  0.5762  0.0285
20518SOL     OW62994   1.994   2.341   2.728 -0.1112 -0.1020 -0.1791
20518SOL    HW162995   2.028   2.371   2.812 -1.0059  1.6637 -0.3924
20518SOL    HW262996   1.900   2.361   2.732  0.0176  1.0909 -2.0164
20519SOL     OW62997   4.541   4.972  11.098  0.1981 -0.0030  0.0879
20519SOL    HW162998   4.493   5.043  11.055 -0.2128  0.0223  0.5849
20519SOL    HW262999   4.625   4.970  11.052 -0.0267  0.3790 -0.3612
20520SOL     OW63000   6.200   1.375   3.762 -0.5264  0.1202  0.5065
20520SOL    HW163001   6.244   1.393   3.845 -0.2363  1.1058  0.1550
20520SOL    HW263002   6.106   1.377   3.784 -0.5260  2.1299  0.5245
20521SOL     OW63003   2.142   3.146   0.948  0.1278  0.0182 -0.1016
20521SOL    HW163004   2.198   3.155   0.871  1.0092  1.0854  0.6376
20521SOL    HW263005   2.110   3.235   0.965  2.6463  0.5448  2.6992
20522SOL     OW63006   2.240   2.450  12.244 -0.3760 -0.2072 -0.2127
20522SOL    HW163007   2.250   2.491  12.330 -0.1687 -2.1773  0.7596
20522SOL    HW263008   2.154   2.407  12.249 -0.5600  0.0394 -1.1748
20523SOL     OW63009   4.198   4.133   5.040  0.0517 -0.2735  1.0612
20523SOL    HW163010   4.252   4.209   5.018  1.9111 -1.7487  0.2531
20523SOL    HW263011   4.119   4.170   5.078  0.8794  2.0603  0.6671
20524SOL     OW63012   0.480   4.755   4.209 -0.4952 -0.4472  0.1543
20524SOL    HW163013   0.433   4.837   4.218 -0.4203 -0.2879 -0.8464
20524SOL    HW263014   0.411   4.689   4.201 -0.5840 -0.6514  1.9848
20525SOL     OW63015   5.654   3.895  10.438  0.0712  0.2081  0.2246
20525SOL    HW163016   5.671   3.810  10.398 -1.3601  0.0114 -0.0130
20525SOL    HW263017   5.591   3.877  10.508 -0.9651  1.1654 -0.4144
20526SOL     OW63018   7.510   3.179   3.473  0.2519  0.3520  0.0963
20526SOL    HW163019   7.421   3.215   3.481  0.2259  0.2172  0.4460
20526SOL    HW263020   7.562   3.251   3.439 -0.3892 -0.1319 -2.0724
20527SOL     OW63021   6.514   4.110   2.823 -0.0457  0.6305 -0.1719
20527SOL    HW163022   6.560   4.081   2.902 -0.1871  0.4464 -0.1566
20527SOL    HW263023   6.579   4.105   2.753 -0.2909 -0.5207 -0.3363
20528SOL     OW63024   3.093   5.196  10.597 -0.2275  0.4199 -0.0629
20528SOL    HW163025   3.140   5.216  10.516  0.9972 -1.2452  0.1660
20528SOL    HW263026   3.016   5.148  10.568 -0.6315  1.2052 -0.3161
20529SOL     OW63027   5.873   6.446   2.590 -0.0626  0.0767 -0.4018
20529SOL    HW163028   5.816   6.519   2.615 -0.5836  0.0903 -1.5698
20529SOL    HW263029   5.955   6.463   2.636 -1.4207 -0.7727  2.6121
20530SOL     OW63030   7.689   0.057   2.581  0.3798 -0.0934  0.2169
20530SOL    HW163031   7.723   0.011   2.658  0.0566  0.8159  0.9176
20530SOL    HW263032   7.606   0.014   2.562 -0.3152  0.6764  1.3615
20531SOL     OW63033   7.157   5.733  11.224  0.8530  0.0884  0.4460
20531SOL    HW163034   7.113   5.817  11.240 -0.5596 -0.6260  0.4950
20531SOL    HW263035   7.205   5.746  11.143 -1.3281  0.2508 -0.8911
20532SOL     OW63036   6.460   6.291  10.044  0.1692 -0.7758 -0.5322
20532SOL    HW163037   6.529   6.356  10.034 -0.1466 -0.3133  0.2514
20532SOL    HW263038   6.479   6.247  10.127 -2.1332  1.4500  1.3507
20533SOL     OW63039   2.379   1.850   6.485  0.1157  0.7664 -0.1587
20533SOL    HW163040   2.444   1.800   6.436 -0.6135  0.8834 -1.3026
20533SOL    HW263041   2.307   1.863   6.422  0.1611  3.0319  0.1595
20534SOL     OW63042   0.529   1.524   2.546 -0.0636 -0.3491 -0.4082
20534SOL    HW163043   0.605   1.495   2.495  1.0243 -1.3913  1.6715
20534SOL    HW263044   0.502   1.605   2.504  1.9105 -0.1938 -1.5139
20535SOL     OW63045   1.777   4.968   7.278 -0.5056  0.2286 -0.3623
20535SOL    HW163046   1.721   4.911   7.330  1.6125  0.6991  2.7348
20535SOL    HW263047   1.800   4.916   7.201 -0.7735 -2.0670  1.0211
20536SOL     OW63048   6.194   2.911  11.876  0.0647 -0.3188  0.0183
20536SOL    HW163049   6.121   2.879  11.928 -1.6755  0.7359 -1.6305
20536SOL    HW263050   6.214   2.997  11.913 -0.8517  0.2183 -0.6601
20537SOL     OW63051   4.628   6.019   6.393  0.1853 -0.2587 -0.7666
20537SOL    HW163052   4.607   5.998   6.301 -1.4203  1.5817 -0.9068
20537SOL    HW263053   4.596   5.944   6.442 -2.9378  0.4551 -1.4302
20538SOL     OW63054   3.881   6.601   9.874 -0.1700  0.6499 -0.4785
20538SOL    HW163055   3.840   6.670   9.821  0.0984  1.2498  0.0805
20538SOL    HW263056   3.890   6.640   9.961 -1.6704 -0.7208  0.3464
20539SOL     OW63057   6.223   7.719  12.102  0.5238  0.0178 -0.4584
20539SOL    HW163058   6.316   7.729  12.084  0.0256  2.3352 -2.2479
20539SOL    HW263059   6.192   7.656  12.037  0.7617 -0.4111 -0.1556
20540SOL     OW63060   2.886   3.106  10.417 -0.1318  0.3897 -0.5119
20540SOL    HW163061   2.978   3.089  10.440  0.2765  0.1639 -2.1788
20540SOL    HW263062   2.891   3.169  10.345 -1.2601 -0.1464 -1.0813
20541SOL     OW63063   4.886   0.215   6.994 -0.1549 -0.1541  0.5679
20541SOL    HW163064   4.817   0.280   7.007 -0.5119 -0.6516  1.2407
20541SOL    HW263065   4.938   0.248   6.921 -0.6542  0.6102  0.5571
20542SOL     OW63066   5.119   3.211   3.987  0.2751  0.1020 -0.1464
20542SOL    HW163067   5.044   3.240   3.935  0.2599  1.3867  0.5716
20542SOL    HW263068   5.191   3.267   3.960  1.1901 -1.5123 -1.2706
20543SOL     OW63069   7.652   7.773   2.216 -0.2012  0.1218 -0.3211
20543SOL    HW163070   7.624   7.688   2.181  1.0543 -0.2992 -0.3583
20543SOL    HW263071   7.667   7.757   2.309  1.3633 -0.0697 -0.5871
20544SOL     OW63072   7.402   5.646   9.432 -0.1696  0.1366 -0.4553
20544SOL    HW163073   7.317   5.685   9.410 -0.6260 -0.4869  0.1467
20544SOL    HW263074   7.455   5.719   9.462 -1.1257  0.2763  0.9989
20545SOL     OW63075   6.463   7.750   9.479  0.3404  0.6082  0.4382
20545SOL    HW163076   6.412   7.701   9.415  1.7504 -0.1431 -0.1765
20545SOL    HW263077   6.519   7.684   9.520  0.4240  1.3080  1.4634
20546SOL     OW63078   4.501   6.183   8.739 -0.0555  0.2136  0.0208
20546SOL    HW163079   4.539   6.096   8.726 -1.9042 -0.5217 -0.7848
20546SOL    HW263080   4.426   6.168   8.797 -0.0660  1.3739  0.3313
20547SOL     OW63081   6.393   1.905   7.802  0.2338 -0.1373  0.2995
20547SOL    HW163082   6.340   1.886   7.724 -1.0365  1.2899  0.7551
20547SOL    HW263083   6.399   1.821   7.847  1.5771 -1.1534 -1.6302
20548SOL     OW63084   5.763   7.284   6.422  0.4730  0.3060 -0.4902
20548SOL    HW163085   5.840   7.238   6.455  0.9704  0.2146 -1.7512
20548SOL    HW263086   5.689   7.233   6.456  1.0058 -2.0417 -2.6105
20549SOL     OW63087   7.192   7.289   9.753  0.1692  0.8173  0.2916
20549SOL    HW163088   7.186   7.216   9.814  0.2171  1.2005  0.7654
20549SOL    HW263089   7.281   7.322   9.764  0.8307 -0.2889 -1.3736
20550SOL     OW63090   5.487   3.519   9.798  0.1354 -0.3259  0.3033
20550SOL    HW163091   5.481   3.443   9.855  0.9026  0.1109  0.9847
20550SOL    HW263092   5.479   3.484   9.710  0.2911 -1.1696  0.6193
20551SOL     OW63093   6.395   0.788  12.304  0.2526  0.4820  0.3877
20551SOL    HW163094   6.308   0.769  12.268  0.4379 -0.7708  0.5572
20551SOL    HW263095   6.380   0.805  12.397  0.3193 -1.0620  0.7048
20552SOL     OW63096   5.969   7.676   1.108  0.4446  0.5358  0.7535
20552SOL    HW163097   6.040   7.615   1.130  0.9651  1.1159  0.7265
20552SOL    HW263098   6.009   7.735   1.044  0.0708  1.1527  1.0908
20553SOL     OW63099   6.147   0.231   2.537  0.2147 -0.3823 -0.0681
20553SOL    HW163100   6.238   0.252   2.513  0.5802 -0.9068  0.8150
20553SOL    HW263101   6.098   0.310   2.515  0.7806 -0.3023 -1.1165
20554SOL     OW63102   1.740   0.209   7.906 -0.0627 -0.0677 -0.5903
20554SOL    HW163103   1.775   0.298   7.920  0.5036 -0.3001 -0.4711
20554SOL    HW263104   1.747   0.195   7.812  0.6409 -0.2960 -0.5100
20555SOL     OW63105   2.195   4.105  10.223 -0.0120  0.4785 -0.4807
20555SOL    HW163106   2.259   4.049  10.179 -0.9026 -0.0456 -1.1548
20555SOL    HW263107   2.148   4.046  10.283 -1.1227  0.4131 -1.3759
20556SOL     OW63108   6.014   3.323   2.255 -0.1081 -0.0521  0.1317
20556SOL    HW163109   6.105   3.299   2.239  0.2294  0.2377  1.5040
20556SOL    HW263110   6.003   3.407   2.210  0.3607  0.0088  0.1316
20557SOL     OW63111   0.199   0.964   5.352 -0.0502  0.5931 -0.1842
20557SOL    HW163112   0.130   0.904   5.324  0.8421 -0.5752  0.0646
20557SOL    HW263113   0.200   1.032   5.284  0.2218 -0.7074 -1.5422
20558SOL     OW63114   3.833   4.182   1.458  0.1561 -0.0704 -0.0815
20558SOL    HW163115   3.766   4.144   1.515  1.1218 -1.0547  0.4181
20558SOL    HW263116   3.873   4.107   1.414  0.1838  0.5892 -1.2341
20559SOL     OW63117   4.725   7.041   4.039  0.0770  0.2807 -0.1262
20559SOL    HW163118   4.750   7.132   4.023 -1.2166  0.7146  0.1553
20559SOL    HW263119   4.629   7.044   4.049 -0.4137 -1.4992 -3.0030
20560SOL     OW63120   1.573   7.679   2.697 -0.4044  0.4402  0.0923
20560SOL    HW163121   1.555   7.749   2.634 -0.3699  0.2611 -0.1195
20560SOL    HW263122   1.661   7.648   2.675 -0.7480 -0.2321 -0.3595
20561SOL     OW63123   6.142   1.368   6.407 -0.3199  0.4753 -0.0476
20561SOL    HW163124   6.180   1.424   6.339 -0.4963  1.1020  0.3601
20561SOL    HW263125   6.217   1.335   6.456 -0.1855 -0.0665 -0.6081
20562SOL     OW63126   2.659   1.526   3.228  0.3636 -0.4038  0.4128
20562SOL    HW163127   2.693   1.616   3.230 -0.0424 -0.1595 -1.6338
20562SOL    HW263128   2.564   1.536   3.235 -0.0694 -0.2758 -3.4776
20563SOL     OW63129   4.312   3.087   9.260  0.0593  0.0454 -0.2981
20563SOL    HW163130   4.300   3.177   9.232 -0.1328  0.5878  1.4185
20563SOL    HW263131   4.245   3.073   9.327  0.4642 -1.1897 -0.1144
20564SOL     OW63132   2.326   3.988   1.556 -0.2907  0.2101  0.8561
20564SOL    HW163133   2.419   4.007   1.565 -0.6382  1.4076  2.3872
20564SOL    HW263134   2.291   4.063   1.508 -0.3002 -0.8648 -0.9148
20565SOL     OW63135   6.336   2.464   7.705  0.2476 -0.2999 -0.4203
20565SOL    HW163136   6.388   2.495   7.779 -0.4671  0.3506 -0.1691
20565SOL    HW263137   6.372   2.378   7.684  1.4815  0.1748 -0.3270
20566SOL     OW63138   5.511   5.922   9.587 -0.1057 -0.0507 -0.8131
20566SOL    HW163139   5.443   5.984   9.612  0.0959  0.1022 -0.6375
20566SOL    HW263140   5.573   5.924   9.660  0.5167  0.4408 -1.3441
20567SOL     OW63141   3.665   1.658   5.402 -0.2921 -0.5405 -0.6051
20567SOL    HW163142   3.642   1.568   5.379 -1.0071 -0.5133 -0.0526
20567SOL    HW263143   3.759   1.655   5.420  0.0791 -0.7670 -2.4418
20568SOL     OW63144   0.526   5.749   7.323 -0.2845  0.6120  0.3146
20568SOL    HW163145   0.570   5.734   7.406 -0.0860 -1.3191 -0.0811
20568SOL    HW263146   0.505   5.661   7.291 -0.3730  1.3042 -1.6673
20569SOL     OW63147   7.104   2.794   5.589  0.0637  0.2647  0.4360
20569SOL    HW163148   7.098   2.849   5.511 -0.2981  2.0570  1.6695
20569SOL    HW263149   7.148   2.849   5.654 -0.4205 -0.8552  1.7636
20570SOL     OW63150   6.880   4.301  10.095 -0.4393  0.2106 -0.1099
20570SOL    HW163151   6.826   4.347  10.159  1.5426  1.9312  0.4204
20570SOL    HW263152   6.868   4.350  10.014 -2.7937 -1.8493 -1.1558
20571SOL     OW63153   4.445   4.893   9.123  0.5966  0.1388 -0.1909
20571SOL    HW163154   4.398   4.946   9.188  0.5755  2.7942 -2.2030
20571SOL    HW263155   4.377   4.867   9.060  1.1382  0.5690 -0.9712
20572SOL     OW63156   0.476   6.598   9.524 -0.3461 -0.0011 -0.2120
20572SOL    HW163157   0.546   6.535   9.514  0.6938  0.7630  1.7695
20572SOL    HW263158   0.467   6.638   9.438 -0.4026 -2.1552 -1.2563
20573SOL     OW63159   3.524   6.918   6.120 -0.2306  0.0821 -0.3455
20573SOL    HW163160   3.543   6.869   6.041  1.6227 -1.5453  1.0215
20573SOL    HW263161   3.520   6.852   6.190 -1.0486  1.5262  1.0473
20574SOL     OW63162   6.254   1.974   1.677 -0.4220 -0.4413  0.0973
20574SOL    HW163163   6.316   2.047   1.671  0.1568 -0.7029  2.0762
20574SOL    HW263164   6.309   1.897   1.688 -1.0538 -1.0929 -1.1255
20575SOL     OW63165   0.948   5.880   7.568  0.1595 -0.1403 -0.1135
20575SOL    HW163166   1.007   5.851   7.639 -4.2791 -0.8244  3.7732
20575SOL    HW263167   0.949   5.975   7.574  1.4531 -0.0794 -0.7820
20576SOL     OW63168   6.072   4.976  11.077 -0.3445 -0.5047  0.9224
20576SOL    HW163169   6.000   5.015  11.127  0.3222  1.1694  0.6335
20576SOL    HW263170   6.084   5.034  11.002  1.2546 -0.7939  0.9252
20577SOL     OW63171   5.266   6.901   2.166  0.1652  0.5117  0.1994
20577SOL    HW163172   5.228   6.966   2.225 -0.3023  1.4689 -1.1151
20577SOL    HW263173   5.294   6.830   2.224 -0.3966  1.3495  1.5507
20578SOL     OW63174   5.432   3.827   2.374  0.0395 -0.3637  0.1107
20578SOL    HW163175   5.445   3.921   2.361 -0.8069 -0.2351  0.1000
20578SOL    HW263176   5.443   3.789   2.287  0.1781 -0.2469  0.0767
20579SOL     OW63177   0.992   4.957   6.558 -0.3073  0.1868 -0.5608
20579SOL    HW163178   1.039   4.917   6.484  0.4653  1.6428 -0.8964
20579SOL    HW263179   0.976   4.885   6.618  0.0062 -0.8364 -1.6694
20580SOL     OW63180   7.267   7.053   1.356 -0.2785  0.2315 -0.0198
20580SOL    HW163181   7.198   6.989   1.377  1.2082 -1.4048  0.1374
20580SOL    HW263182   7.341   7.027   1.411  1.4960 -0.0148 -2.3602
20581SOL     OW63183   4.406   3.092   4.650  0.1350  0.2738 -0.4745
20581SOL    HW163184   4.482   3.058   4.602 -1.1414 -1.2265 -1.5033
20581SOL    HW263185   4.355   3.139   4.584 -0.0417  0.9416  0.1267
20582SOL     OW63186   0.669   6.146   2.458  0.0092  0.1902 -0.4264
20582SOL    HW163187   0.736   6.142   2.390  0.7228 -1.0236  0.2984
20582SOL    HW263188   0.623   6.062   2.451 -1.2022  0.8519 -0.6582
20583SOL     OW63189   1.128   2.787   6.745 -1.0499  0.0610  0.4363
20583SOL    HW163190   1.034   2.787   6.730 -1.3772 -1.0154  2.1442
20583SOL    HW263191   1.157   2.701   6.714 -0.8226 -0.0229  0.8729
20584SOL     OW63192   4.566   7.467   6.056  0.0608  0.3175 -0.3770
20584SOL    HW163193   4.580   7.429   5.969 -1.0885 -0.6378 -0.1730
20584SOL    HW263194   4.645   7.443   6.105 -0.0218 -0.6025 -0.6756
20585SOL     OW63195   5.540   6.203  12.413 -0.2320  0.5858  0.3172
20585SOL    HW163196   5.539   6.122  12.463 -0.4476  0.6574  0.4313
20585SOL    HW263197   5.449   6.214  12.384  0.0257  0.1663 -0.6927
20586SOL     OW63198   0.902   6.402   2.234  0.0020 -0.4128  0.4909
20586SOL    HW163199   0.904   6.493   2.264 -2.9734  0.8034 -2.3674
20586SOL    HW263200   0.811   6.375   2.247  0.5955 -2.6654  0.3360
20587SOL     OW63201   6.232   7.710   0.147  0.3167  0.3754  0.1885
20587SOL    HW163202   6.301   7.645   0.162 -0.1314 -0.0440  0.4972
20587SOL    HW263203   6.225   7.715   0.052 -0.5462 -1.0444  0.1381
20588SOL     OW63204   5.977   6.262   3.009 -0.1567  0.2408  0.0456
20588SOL    HW163205   6.013   6.346   3.038  0.4729  0.6950 -1.8454
20588SOL    HW263206   5.883   6.277   3.003  0.0474  1.2410 -1.3534
20589SOL     OW63207   6.488   3.688   2.958  0.4789 -0.5264  0.2509
20589SOL    HW163208   6.451   3.643   3.033 -1.0861 -1.3111 -0.9395
20589SOL    HW263209   6.413   3.723   2.911  1.4356  0.1992 -0.7922
20590SOL     OW63210   1.378   0.792   9.594 -0.2211  0.3877  0.0932
20590SOL    HW163211   1.452   0.732   9.581  0.1081  0.5551  1.1260
20590SOL    HW263212   1.345   0.809   9.505 -0.1618 -1.1099 -0.2338
20591SOL     OW63213   7.071   3.229   2.524 -0.0584  0.2869 -0.4565
20591SOL    HW163214   7.017   3.182   2.588  0.8357  0.6214  0.5834
20591SOL    HW263215   7.052   3.321   2.540  1.5430  0.4750  0.6589
20592SOL     OW63216   1.976   4.298   4.552  0.0401  0.2820  0.5282
20592SOL    HW163217   1.940   4.261   4.633  2.3989 -2.6160  0.4168
20592SOL    HW263218   2.056   4.342   4.579  1.5149 -1.7751 -0.2690
20593SOL     OW63219   2.547   6.636  10.501 -0.2510  0.2026 -0.3611
20593SOL    HW163220   2.465   6.646  10.548  0.2606  0.2053  0.5496
20593SOL    HW263221   2.599   6.577  10.555 -0.1071 -0.7884 -1.5390
20594SOL     OW63222   4.907   1.661   1.034  0.1257 -0.2268 -0.4071
20594SOL    HW163223   4.941   1.573   1.019  0.6537  0.2997 -2.5659
20594SOL    HW263224   4.966   1.718   0.985 -0.7946  1.2368  0.1453
20595SOL     OW63225   6.515   1.265   9.428 -0.0102 -0.2524 -0.6662
20595SOL    HW163226   6.584   1.332   9.430 -0.0982 -0.1731  0.6842
20595SOL    HW263227   6.560   1.184   9.455  0.4004 -1.1019 -3.5428
20596SOL     OW63228   3.101   0.942   2.432  0.2260 -0.3455 -0.3265
20596SOL    HW163229   3.133   1.021   2.476 -0.7202  0.7814 -1.5858
20596SOL    HW263230   3.007   0.940   2.452  0.5923 -2.4580  1.5963
20597SOL     OW63231   7.788   6.130   8.144  0.7053  0.4987  0.9415
20597SOL    HW163232   7.748   6.096   8.064  1.0243  1.6183  0.2864
20597SOL    HW263233   7.768   6.223   8.143 -0.1661  0.3735  2.7100
20598SOL     OW63234   1.148   3.291   2.654 -0.1371 -0.5990 -0.5562
20598SOL    HW163235   1.106   3.373   2.679  0.4984 -0.5555  0.4426
20598SOL    HW263236   1.242   3.309   2.661  0.0044 -1.5864  0.3017
20599SOL     OW63237   5.870   0.758   6.356 -0.1486  0.5136 -0.1534
20599SOL    HW163238   5.875   0.671   6.396 -0.3233  0.1724 -0.8517
20599SOL    HW263239   5.839   0.741   6.267  1.6625  1.1063 -0.9309
20600SOL     OW63240   6.736   6.322   4.426  0.0836  0.6936  0.4793
20600SOL    HW163241   6.719   6.261   4.354 -0.9734  0.8601  0.5637
20600SOL    HW263242   6.776   6.398   4.384 -0.7048  0.8712  0.0126
20601SOL     OW63243   4.082   1.732   9.287 -0.5187 -0.0617 -0.2734
20601SOL    HW163244   4.061   1.697   9.200 -0.7287 -1.1733  0.2142
20601SOL    HW263245   4.113   1.656   9.337  1.3075  0.8727  0.1140
20602SOL     OW63246   6.012   3.153  10.359 -0.6007  0.5948  0.0985
20602SOL    HW163247   5.955   3.168  10.435 -1.3501 -1.0384 -0.0870
20602SOL    HW263248   6.100   3.174  10.390 -0.9571  0.4712  1.2512
20603SOL     OW63249   6.825   3.602   5.064 -0.1163  0.1890  0.0173
20603SOL    HW163250   6.892   3.564   5.121 -2.0518 -0.6122  1.8795
20603SOL    HW263251   6.810   3.689   5.100  0.4963  0.7127 -0.9428
20604SOL     OW63252   3.406   5.862   7.276 -0.4858  0.0584 -0.2605
20604SOL    HW163253   3.481   5.897   7.323  0.2237 -0.2978 -1.1010
20604SOL    HW263254   3.433   5.862   7.185 -1.3072 -0.5827 -0.5123
20605SOL     OW63255   1.997   0.915   1.802 -0.0477  0.2739 -0.1467
20605SOL    HW163256   2.086   0.945   1.820  0.0091  0.5272 -0.8316
20605SOL    HW263257   2.006   0.821   1.787  0.1861  0.3928 -0.7605
20606SOL     OW63258   6.971   3.536   7.317 -0.1868 -0.0923  0.7325
20606SOL    HW163259   6.981   3.519   7.411 -1.6528 -1.3536  0.6994
20606SOL    HW263260   7.008   3.458   7.275  0.7941  0.6272  0.2238
20607SOL     OW63261   4.377   5.164   0.349  0.1103 -0.5444 -0.4406
20607SOL    HW163262   4.358   5.251   0.314  0.7797 -0.1276  0.1876
20607SOL    HW263263   4.337   5.165   0.436  0.5815 -0.6654 -0.2195
20608SOL     OW63264   1.988   6.050   3.467  0.7426 -0.7310 -0.0592
20608SOL    HW163265   1.990   6.002   3.550  0.3151 -2.2592 -0.8894
20608SOL    HW263266   1.906   6.023   3.426  0.9861 -0.0597 -1.0241
20609SOL     OW63267   3.773   2.336   3.205  0.5991  0.0914 -0.3368
20609SOL    HW163268   3.708   2.406   3.194  1.9422  1.4860  0.2194
20609SOL    HW263269   3.747   2.291   3.285  0.1753  0.4897 -0.2446
20610SOL     OW63270   4.436   6.459   6.077  0.2189  0.4189  0.0123
20610SOL    HW163271   4.532   6.456   6.069  0.2749  2.9139 -0.9876
20610SOL    HW263272   4.421   6.474   6.171  0.7108 -0.8951  0.3375
20611SOL     OW63273   5.160   4.657   5.373  0.3509  0.0562 -0.3355
20611SOL    HW163274   5.176   4.748   5.349  0.9765  0.4645  1.5349
20611SOL    HW263275   5.092   4.628   5.311 -0.5100  2.0462 -0.3942
20612SOL     OW63276   0.414   6.240  11.115 -0.2872  0.3817  0.3805
20612SOL    HW163277   0.450   6.319  11.075 -0.9101  0.3794 -0.2088
20612SOL    HW263278   0.423   6.172  11.048 -2.1815  0.5955 -0.1545
20613SOL     OW63279   4.552   5.986   8.004  0.4672 -0.1122  0.4971
20613SOL    HW163280   4.599   6.024   8.078 -0.9682  1.7668  0.4964
20613SOL    HW263281   4.616   5.986   7.932  0.6317  2.0592  0.5929
20614SOL     OW63282   4.677   1.493  11.712  0.1473  0.4606 -0.0514
20614SOL    HW163283   4.695   1.444  11.792 -0.5182 -0.7233 -0.5955
20614SOL    HW263284   4.624   1.434  11.659  1.9973  0.5114 -2.1286
20615SOL     OW63285   5.716   5.011   6.332  0.4655  0.1873 -0.0832
20615SOL    HW163286   5.752   5.020   6.243  1.3065 -0.4855  0.1796
20615SOL    HW263287   5.788   5.035   6.390  0.0979  0.0576  0.4348
20616SOL     OW63288   2.962   6.810   4.949  0.2173 -0.2679  0.2096
20616SOL    HW163289   3.043   6.858   4.931  1.3756 -1.8293  0.9224
20616SOL    HW263290   2.988   6.718   4.945 -1.6498 -0.8333  0.0129
20617SOL     OW63291   0.002   6.239   9.087  0.2418  0.0587 -0.4334
20617SOL    HW163292  -0.019   6.332   9.097  0.7923  0.0012  1.9042
20617SOL    HW263293   0.097   6.235   9.094  0.1155 -0.8074  1.6245
20618SOL     OW63294   6.929   6.817   3.638  0.0795 -0.1495  0.0589
20618SOL    HW163295   6.872   6.741   3.649  0.4703 -0.4542 -0.0076
20618SOL    HW263296   6.935   6.829   3.543  0.9108 -0.7204  0.0319
20619SOL     OW63297   5.770   4.451   8.466 -0.0756  0.5825  0.3069
20619SOL    HW163298   5.805   4.366   8.494 -0.9039 -0.1454 -0.7843
20619SOL    HW263299   5.691   4.463   8.518  0.9334  1.5319  1.7030
20620SOL     OW63300   3.570   0.554   0.004  0.1684 -0.1937 -0.4470
20620SOL    HW163301   3.650   0.582   0.048 -0.3419 -0.6221  0.8028
20620SOL    HW263302   3.529   0.492   0.065 -1.3728  0.4071 -0.8125
20621SOL     OW63303   0.804   2.920   1.921  0.4100  0.0033  0.5307
20621SOL    HW163304   0.761   2.979   1.859 -1.5585  0.2249  1.9903
20621SOL    HW263305   0.826   2.843   1.869 -0.2594  0.5834 -0.6511
20622SOL     OW63306   0.050   3.666   6.532  0.2662  0.1964  0.2482
20622SOL    HW163307   0.078   3.583   6.494  1.0321  0.0921  1.0103
20622SOL    HW263308   0.021   3.718   6.457 -0.9398 -1.0137 -0.1667
20623SOL     OW63309   0.778   7.193   6.139 -0.3007 -0.5067  0.2542
20623SOL    HW163310   0.858   7.139   6.135 -0.8320 -1.4073  1.3534
20623SOL    HW263311   0.781   7.235   6.225  0.1039  1.2772 -0.5848
20624SOL     OW63312   7.847   2.868  12.124 -0.4355  0.2828 -0.0225
20624SOL    HW163313   7.940   2.852  12.105 -0.4647  0.3474 -0.2313
20624SOL    HW263314   7.810   2.894  12.039 -0.7123 -0.0590 -0.0057
20625SOL     OW63315   6.301   0.897   5.302  0.0031  0.4243  1.0030
20625SOL    HW163316   6.255   0.977   5.276 -0.5081  0.3101  1.5361
20625SOL    HW263317   6.233   0.830   5.304  0.4999 -0.1261  0.1532
20626SOL     OW63318   5.373   7.557   4.137 -0.0930  0.0543 -0.1509
20626SOL    HW163319   5.447   7.617   4.136 -1.0516  1.2575 -0.6959
20626SOL    HW263320   5.354   7.544   4.230  0.0969  0.6377 -0.0280
20627SOL     OW63321   1.357   0.814   4.680 -0.5836  0.2450  0.1334
20627SOL    HW163322   1.403   0.774   4.607  0.5446  0.7596  0.5330
20627SOL    HW263323   1.422   0.820   4.750 -1.6901 -0.4534  1.2794
20628SOL     OW63324   3.472   6.178   3.450 -0.3980  0.1101 -0.1346
20628SOL    HW163325   3.467   6.147   3.541 -0.0053  1.8813  0.5391
20628SOL    HW263326   3.420   6.116   3.400  1.9279 -2.7831  0.7517
20629SOL     OW63327   4.959   3.209   5.161  0.0158  0.0181  0.5165
20629SOL    HW163328   4.969   3.126   5.208  2.2533  1.6224  3.2611
20629SOL    HW263329   4.865   3.218   5.147 -0.4853 -1.9657  2.1536
20630SOL     OW63330   1.721   1.821   5.543 -0.1701  0.4129 -0.1851
20630SOL    HW163331   1.777   1.782   5.610 -0.6058  2.2316  1.3060
20630SOL    HW263332   1.642   1.767   5.543  0.0297  0.1139  0.4280
20631SOL     OW63333   6.705   4.393   5.856  0.0742  0.1868  0.9468
20631SOL    HW163334   6.635   4.431   5.908 -0.8903 -2.3093  1.6234
20631SOL    HW263335   6.712   4.303   5.888  1.0205 -0.7585 -1.7043
20632SOL     OW63336   4.430   1.537   3.914 -0.8281  0.3729 -0.0828
20632SOL    HW163337   4.431   1.632   3.900 -1.0063  0.4573  0.4377
20632SOL    HW263338   4.338   1.513   3.905 -0.8211  0.2953  0.0413
20633SOL     OW63339   7.190   4.739   1.477 -0.5418  0.2042  0.3631
20633SOL    HW163340   7.134   4.667   1.447 -1.7032  0.9678  0.6516
20633SOL    HW263341   7.164   4.814   1.424  0.3504  0.5380  0.3750
20634SOL     OW63342   0.690   2.146  12.159 -0.1836  0.6125 -0.0699
20634SOL    HW163343   0.630   2.134  12.085  0.2497 -0.5456 -0.2614
20634SOL    HW263344   0.672   2.234  12.191 -0.2068  1.2331 -1.7060
20635SOL     OW63345   2.480   1.072   3.452  0.1101 -0.3240  0.4638
20635SOL    HW163346   2.571   1.061   3.425  0.1100 -0.4628  0.5167
20635SOL    HW263347   2.481   1.053   3.546  0.0939  0.0566  0.5397
20636SOL     OW63348   5.281   6.302  12.336  0.0228  0.4825  0.1855
20636SOL    HW163349   5.343   6.373  12.349 -0.0871  0.7511 -0.6939
20636SOL    HW263350   5.209   6.341  12.286 -1.0513  0.2736  1.5189
20637SOL     OW63351   3.442   6.997   3.271 -0.1569 -0.0462 -0.3576
20637SOL    HW163352   3.419   7.062   3.337  0.8124  0.9015 -0.9245
20637SOL    HW263353   3.366   6.939   3.267 -0.9463  0.9121  0.3179
20638SOL     OW63354   3.772   0.441   8.935  0.1807  0.0862  0.3692
20638SOL    HW163355   3.752   0.501   9.008 -0.3167  0.7951 -0.3290
20638SOL    HW263356   3.805   0.362   8.978 -0.9347  0.1548  1.4197
20639SOL     OW63357   5.639   3.119   2.478  0.2253 -0.1994  0.1451
20639SOL    HW163358   5.632   3.028   2.507  0.1974 -0.1220  0.3857
20639SOL    HW263359   5.727   3.146   2.503  0.1399 -0.0773  0.3197
20640SOL     OW63360   3.941   1.783  11.638 -0.3131 -0.4250 -0.1080
20640SOL    HW163361   3.994   1.793  11.559 -0.6832 -0.9745 -0.4301
20640SOL    HW263362   3.852   1.804  11.610 -0.3179  0.2317  0.3702
20641SOL     OW63363   5.846   1.558   0.125  1.0167  0.3165  0.5475
20641SOL    HW163364   5.791   1.481   0.138  2.4166 -0.8441 -0.0787
20641SOL    HW263365   5.791   1.633   0.149 -0.4822 -0.8576  0.8374
20642SOL     OW63366   4.242   5.429  12.059 -0.7409  0.3993  0.0788
20642SOL    HW163367   4.219   5.519  12.085 -3.4352  0.5139 -2.2620
20642SOL    HW263368   4.279   5.438  11.971  0.4443 -0.6879  0.4391
20643SOL     OW63369   2.624   4.157   8.086 -0.4044 -0.4208  0.2373
20643SOL    HW163370   2.623   4.252   8.074  0.8236  0.1765  3.6881
20643SOL    HW263371   2.633   4.145   8.181  1.1315 -3.9530 -0.2005
20644SOL     OW63372   7.787   2.129  11.552 -0.5313 -0.1337 -0.3192
20644SOL    HW163373   7.786   2.086  11.638  1.6189 -0.2589 -0.2919
20644SOL    HW263374   7.734   2.207  11.564 -0.7137 -0.4239  0.9649
20645SOL     OW63375   3.399   5.640   3.001  0.1720  0.8324 -0.5823
20645SOL    HW163376   3.312   5.670   2.975 -1.2500 -2.1279  0.3825
20645SOL    HW263377   3.450   5.642   2.920 -1.1328  1.4276 -1.4187
20646SOL     OW63378   7.729   6.052   9.678  0.3708  0.3009  0.6011
20646SOL    HW163379   7.726   5.978   9.739  0.6568  0.1790  0.4709
20646SOL    HW263380   7.822   6.063   9.658  0.2830  0.3640  0.2187
20647SOL     OW63381   7.096   2.128   7.211  0.1666 -0.3724  0.0553
20647SOL    HW163382   7.145   2.046   7.208  0.0717 -0.5863  2.4859
20647SOL    HW263383   7.005   2.102   7.193  0.2473 -0.6910  0.0977
20648SOL     OW63384   2.974   5.410   8.422  0.2281 -0.5051  0.1341
20648SOL    HW163385   3.051   5.467   8.430 -0.6187  0.3231  4.0004
20648SOL    HW263386   2.900   5.470   8.419 -0.4897 -1.3511  0.6318
20649SOL     OW63387   0.269   6.907  12.140  0.7409  0.1315 -0.0638
20649SOL    HW163388   0.215   6.929  12.064  1.1050 -0.8296 -0.6204
20649SOL    HW263389   0.228   6.954  12.213  1.4241  2.5759 -1.1285
20650SOL     OW63390   7.476   4.621   2.938 -0.3387 -0.1259  0.2173
20650SOL    HW163391   7.442   4.543   2.981 -1.6801  0.2106 -0.1656
20650SOL    HW263392   7.571   4.614   2.946 -0.4911 -0.5535  2.3682
20651SOL     OW63393   2.354   3.651   0.256  0.3648  0.2462 -0.0091
20651SOL    HW163394   2.320   3.741   0.255 -1.9272 -0.5232  1.7185
20651SOL    HW263395   2.435   3.656   0.205 -0.1492  3.0951 -0.7189
20652SOL     OW63396   2.814   4.959   5.961 -0.0484  0.0526  0.5373
20652SOL    HW163397   2.864   5.041   5.961 -1.0826  0.7058  1.3703
20652SOL    HW263398   2.837   4.916   6.043  1.5714 -1.2135 -0.5158
20653SOL     OW63399   5.534   2.091   4.037 -0.2637  0.1981  0.3202
20653SOL    HW163400   5.516   2.181   4.012  2.0962  0.1063 -2.1913
20653SOL    HW263401   5.617   2.094   4.084  0.2753 -0.6982 -0.5198
20654SOL     OW63402   2.766   2.760   0.037  0.3720  0.3220  0.2767
20654SOL    HW163403   2.748   2.675   0.076  1.2280 -0.3864 -0.8233
20654SOL    HW263404   2.680   2.792   0.008 -0.1648  0.5112  1.9538
20655SOL     OW63405   5.585   5.525   2.766 -0.1834 -0.5918 -0.0335
20655SOL    HW163406   5.493   5.539   2.745 -0.6198 -0.1074  1.9520
20655SOL    HW263407   5.630   5.602   2.730 -0.1138 -1.9173 -3.0708
20656SOL     OW63408   0.713   6.007   4.729  0.2661 -0.1480 -0.0284
20656SOL    HW163409   0.723   5.916   4.700 -0.9660  0.1491 -1.4978
20656SOL    HW263410   0.619   6.017   4.744  0.3481  0.9607 -0.1580
20657SOL     OW63411   6.568   0.004   2.163  0.2054  0.0296  0.4673
20657SOL    HW163412   6.500  -0.000   2.096 -0.5641  0.5710  1.1964
20657SOL    HW263413   6.640  -0.049   2.128 -0.1608  0.3373 -0.7960
20658SOL     OW63414   5.321   4.895   9.481 -0.4734  0.5687 -0.0337
20658SOL    HW163415   5.401   4.855   9.514 -0.4640  0.5732 -0.0512
20658SOL    HW263416   5.295   4.840   9.407 -0.5616  0.4898  0.0571
20659SOL     OW63417   7.838   6.262   1.178 -0.0745 -0.0474  0.4834
20659SOL    HW163418   7.792   6.308   1.248  0.0387  1.5871 -0.4808
20659SOL    HW263419   7.816   6.310   1.098  2.6805  0.3994 -0.1338
20660SOL     OW63420   3.974   1.995   9.375  0.6162  0.4421 -0.0846
20660SOL    HW163421   3.967   1.921   9.314 -0.0385  0.6292 -0.2503
20660SOL    HW263422   3.984   1.955   9.461 -1.6156  0.0782  0.0841
20661SOL     OW63423   3.125   1.936   6.516 -0.2221  0.2925  0.0811
20661SOL    HW163424   3.148   1.889   6.596 -0.8452  0.9141  0.6400
20661SOL    HW263425   3.034   1.910   6.499  0.1497 -0.4428 -0.8740
20662SOL     OW63426   3.173   2.581   3.168  0.5105  0.2944  0.1181
20662SOL    HW163427   3.184   2.664   3.122  0.1230  0.9147  1.1053
20662SOL    HW263428   3.082   2.556   3.150 -0.2992  1.5713  2.1325
20663SOL     OW63429   2.782   2.901   2.787  0.1233  0.0976  0.1392
20663SOL    HW163430   2.691   2.928   2.775 -0.0224 -0.9752 -1.4285
20663SOL    HW263431   2.833   2.966   2.739  0.0177 -0.4694 -0.7571
20664SOL     OW63432   3.109   0.720   0.488  0.1554  0.1080  0.2364
20664SOL    HW163433   3.112   0.674   0.404 -0.8940 -0.6674  0.5987
20664SOL    HW263434   3.138   0.809   0.469  0.1527 -0.1271 -0.8993
20665SOL     OW63435   4.206   7.315  10.605  0.3222  0.4326 -0.0075
20665SOL    HW163436   4.146   7.291  10.675  0.4262  0.2766  0.0264
20665SOL    HW263437   4.255   7.390  10.639  0.2371  0.4806  0.0112
20666SOL     OW63438   3.347   5.395   3.895  0.6118  0.3302 -0.5937
20666SOL    HW163439   3.370   5.453   3.822  1.7439  0.9828  0.2537
20666SOL    HW263440   3.429   5.384   3.943  0.5278 -2.2653 -0.9070
20667SOL     OW63441   4.990   2.757  11.692 -0.1959  0.3241  0.3170
20667SOL    HW163442   4.965   2.747  11.784  1.3707  1.2709  0.8865
20667SOL    HW263443   5.069   2.704  11.683  0.2546  1.0745 -0.2112
20668SOL     OW63444   6.258   0.023   7.481  0.1226  0.1266 -0.0309
20668SOL    HW163445   6.335   0.079   7.477 -0.3393  0.7641 -0.1237
20668SOL    HW263446   6.266  -0.034   7.404  1.1953 -0.7422  0.7019
20669SOL     OW63447   5.879   7.489   8.972 -0.4010 -0.3319  0.1594
20669SOL    HW163448   5.842   7.523   8.891  1.6408 -0.9140 -1.0973
20669SOL    HW263449   5.969   7.465   8.949 -0.1026 -1.5541  2.3289
20670SOL     OW63450   3.227   1.585   5.195 -0.0888  0.1530  0.1492
20670SOL    HW163451   3.193   1.663   5.150 -0.9405 -0.3203 -0.0600
20670SOL    HW263452   3.250   1.616   5.283 -0.7265  0.5727  0.1758
20671SOL     OW63453   2.957   2.995   9.341 -0.4122 -0.1167 -0.3787
20671SOL    HW163454   2.908   3.077   9.351 -0.3991 -0.0930 -0.5119
20671SOL    HW263455   2.963   2.961   9.430  0.0198  0.2821 -0.2488
20672SOL     OW63456   7.540   2.461  12.064 -0.0694 -0.4146  0.2583
20672SOL    HW163457   7.463   2.406  12.078 -1.4270  1.3056 -0.0802
20672SOL    HW263458   7.506   2.537  12.018  1.9977  0.0426 -0.6145
20673SOL     OW63459   6.809   2.025   6.364 -0.5925 -0.0989  0.2700
20673SOL    HW163460   6.789   2.056   6.452  0.0129  1.6790 -0.1827
20673SOL    HW263461   6.832   2.104   6.315 -0.5679 -1.0901 -1.3947
20674SOL     OW63462   5.261   4.646   2.766 -0.4273  0.2257  0.2071
20674SOL    HW163463   5.211   4.626   2.844  1.1199 -2.5272  0.6174
20674SOL    HW263464   5.308   4.565   2.746  2.9635  2.2131 -0.7526
20675SOL     OW63465   1.936   3.453   3.314  0.5156 -0.4545 -0.4936
20675SOL    HW163466   1.879   3.466   3.238  0.0126  0.4290  0.0212
20675SOL    HW263467   2.002   3.392   3.284  0.6289  0.2883 -1.8128
20676SOL     OW63468   2.223   4.555   5.870 -0.2704  0.3936 -0.7112
20676SOL    HW163469   2.232   4.515   5.783 -0.4634  2.3707 -1.7015
20676SOL    HW263470   2.313   4.571   5.898 -0.2159  0.1068 -0.7203
20677SOL     OW63471   4.331   1.182  11.707  0.1230  0.0662  0.0666
20677SOL    HW163472   4.337   1.272  11.673 -2.1188 -0.2054 -1.2074
20677SOL    HW263473   4.261   1.142  11.657  0.3342 -2.0997  1.3817
20678SOL     OW63474   3.089   4.570   2.448 -0.6905  0.1498  0.2488
20678SOL    HW163475   3.075   4.493   2.502 -2.2807 -0.3568 -0.8176
20678SOL    HW263476   3.155   4.543   2.384 -0.9178 -0.1763  0.1524
20679SOL     OW63477   1.480   4.093   8.285 -0.8377 -0.2648  0.2545
20679SOL    HW163478   1.468   4.177   8.330 -1.0636  0.6326 -1.4174
20679SOL    HW263479   1.575   4.081   8.280 -0.7480  0.8441 -1.1457
20680SOL     OW63480   6.219   6.543  12.377 -0.4470 -0.0636 -0.6133
20680SOL    HW163481   6.177   6.457  12.371  0.0091 -0.5200  1.9268
20680SOL    HW263482   6.160   6.595  12.432  0.8404  0.2184  0.5391
20681SOL     OW63483   1.621   5.485   1.957 -0.2619 -0.7058  0.0551
20681SOL    HW163484   1.631   5.505   2.050 -0.8600 -0.4683  0.0709
20681SOL    HW263485   1.527   5.482   1.943 -0.1975  0.9799 -0.9078
20682SOL     OW63486   6.487   1.087   5.903  0.1746 -0.4961 -0.4954
20682SOL    HW163487   6.473   1.180   5.889  1.5483  0.0983  1.6068
20682SOL    HW263488   6.463   1.072   5.994  1.1662 -1.9348 -0.4290
20683SOL     OW63489   7.627   1.639   0.172  0.7049 -0.1253 -0.1855
20683SOL    HW163490   7.699   1.645   0.109  2.1540 -0.4182  1.3488
20683SOL    HW263491   7.639   1.554   0.214 -1.1249 -0.5760 -0.5357
20684SOL     OW63492   3.251   3.329   1.145 -0.4607  0.2493 -0.0564
20684SOL    HW163493   3.295   3.412   1.129 -1.0827  0.4501 -0.8017
20684SOL    HW263494   3.314   3.277   1.193  0.9430  0.2110 -1.8387
20685SOL     OW63495   3.751   5.905   4.415 -0.2904  0.3092  0.1032
20685SOL    HW163496   3.706   5.824   4.390 -0.1274 -0.3088  1.7249
20685SOL    HW263497   3.766   5.950   4.332 -1.6415 -0.6509 -0.7082
20686SOL     OW63498   2.268   4.545   3.162  0.2427 -0.1778 -0.2937
20686SOL    HW163499   2.231   4.458   3.180 -0.6425  0.0206 -1.0931
20686SOL    HW263500   2.309   4.536   3.075 -1.1485  0.5842 -1.0576
20687SOL     OW63501   6.387   6.516   2.690  0.4045 -0.0139 -0.0649
20687SOL    HW163502   6.467   6.568   2.681  0.0441  0.3578 -1.2475
20687SOL    HW263503   6.411   6.446   2.752  1.5706  0.2186 -0.2310
20688SOL     OW63504   5.910   3.240  11.038  0.2234  0.0354  0.6887
20688SOL    HW163505   5.979   3.285  10.989  0.7768  1.5953  2.7673
20688SOL    HW263506   5.950   3.157  11.064 -0.5272 -1.4639 -2.4780
20689SOL     OW63507   7.897   4.177  10.191 -0.2243 -0.3707 -0.3839
20689SOL    HW163508   7.874   4.091  10.157  1.6635 -1.0012 -0.1602
20689SOL    HW263509   7.814   4.214  10.221 -1.3048 -1.4383 -1.9342
20690SOL     OW63510   4.783   2.373   5.912  0.0024  0.2611 -0.3508
20690SOL    HW163511   4.794   2.286   5.949 -0.3184  0.6585  0.7135
20690SOL    HW263512   4.848   2.377   5.841 -0.5901 -1.1423 -1.0027
20691SOL     OW63513   1.619   6.812   5.102  0.1220  0.0755 -0.4194
20691SOL    HW163514   1.677   6.741   5.074 -0.9177 -0.3432 -1.5958
20691SOL    HW263515   1.613   6.802   5.197  0.9622 -0.6341 -0.4253
20692SOL     OW63516   0.115   1.483  12.307 -0.0737 -0.7529 -0.2979
20692SOL    HW163517   0.120   1.559  12.365 -2.9257 -1.1257  0.5778
20692SOL    HW263518   0.118   1.520  12.219 -0.2151  0.2525  0.1047
20693SOL     OW63519   3.431   4.277   1.948  0.2684  0.1820  0.4551
20693SOL    HW163520   3.341   4.258   1.975 -0.0268 -0.0593 -0.6289
20693SOL    HW263521   3.434   4.251   1.856  1.4243  0.2867  0.4468
20694SOL     OW63522   6.862   5.025   0.706  0.0776 -0.2494 -0.9100
20694SOL    HW163523   6.843   5.113   0.739  0.0484 -0.1045 -1.3051
20694SOL    HW263524   6.901   5.040   0.619 -3.1175 -0.7057 -2.5639
20695SOL     OW63525   7.024   1.357  10.533 -0.5367  0.2232 -0.0499
20695SOL    HW163526   6.930   1.374  10.546 -0.7241 -0.5160 -0.3340
20695SOL    HW263527   7.029   1.261  10.524 -0.1482  0.4520 -3.1398
20696SOL     OW63528   0.466   1.047  11.139  0.1238 -0.8438  0.3659
20696SOL    HW163529   0.429   1.132  11.115  2.5565  0.0060 -0.7405
20696SOL    HW263530   0.391   0.988  11.144 -1.4179  0.9138 -0.8538
20697SOL     OW63531   2.404   6.253   6.340  0.5411 -0.5603 -0.1664
20697SOL    HW163532   2.341   6.232   6.410  0.1059  1.7930  0.2388
20697SOL    HW263533   2.372   6.336   6.304  1.0342 -1.4540 -2.8841
20698SOL     OW63534   3.136   5.670   7.739 -0.0245  0.0962 -0.2855
20698SOL    HW163535   3.214   5.682   7.793  0.5002 -0.7276 -0.8283
20698SOL    HW263536   3.127   5.575   7.730 -0.8070  0.1911 -0.6306
20699SOL     OW63537   4.534   2.677  10.900 -0.0314 -0.0608 -0.0706
20699SOL    HW163538   4.566   2.683  10.810  0.4269 -0.2988  0.0710
20699SOL    HW263539   4.445   2.710  10.896 -0.1998 -0.5624 -0.7148
20700SOL     OW63540   2.931   1.232   8.848  0.4289 -0.2394  0.1526
20700SOL    HW163541   2.837   1.223   8.833  0.4772 -0.1815 -0.1818
20700SOL    HW263542   2.971   1.167   8.790  0.4436 -2.7300  2.6975
20701SOL     OW63543   0.418   7.341   0.245 -0.1707  0.0559 -0.2768
20701SOL    HW163544   0.484   7.285   0.287 -0.0189 -0.4850 -1.1950
20701SOL    HW263545   0.346   7.281   0.224 -0.1586  0.2734 -0.9599
20702SOL     OW63546   5.709   0.183   1.561  0.1417  0.1061 -0.0883
20702SOL    HW163547   5.627   0.184   1.610 -0.0572  2.4959 -0.3439
20702SOL    HW263548   5.753   0.103   1.590 -2.1427 -1.1123  0.2337
20703SOL     OW63549   2.375   2.583   4.394  0.0841  0.6826 -0.1472
20703SOL    HW163550   2.374   2.679   4.388  0.6198  0.6688 -0.4576
20703SOL    HW263551   2.409   2.554   4.310  1.2438  0.2664  0.4551
20704SOL     OW63552   1.462   2.000   2.040  0.3676  0.7171  0.4170
20704SOL    HW163553   1.536   2.013   1.981 -0.2055 -2.4318 -1.2524
20704SOL    HW263554   1.396   1.956   1.985 -0.0462 -2.8611  3.3881
20705SOL     OW63555   2.102   6.670   3.820  0.0203  0.3621 -0.4287
20705SOL    HW163556   2.016   6.645   3.787  0.4757 -2.4071  0.2245
20705SOL    HW263557   2.148   6.587   3.832  2.6635  1.7340 -0.3878
20706SOL     OW63558   7.439   6.536  12.229  0.4047 -0.6590 -0.3689
20706SOL    HW163559   7.359   6.569  12.189  0.0234 -0.3925  0.5767
20706SOL    HW263560   7.428   6.554  12.323  2.0949  0.4843 -0.3432
20707SOL     OW63561   6.729   7.907   3.345  0.9896  0.1534 -0.3770
20707SOL    HW163562   6.748   7.854   3.267 -3.0655  0.6251 -1.9638
20707SOL    HW263563   6.691   7.988   3.310  1.6652  1.6699  2.1229
20708SOL     OW63564   5.641   2.728   5.651  0.4781 -0.1653  0.5324
20708SOL    HW163565   5.657   2.726   5.745  0.1925 -0.7662  0.5706
20708SOL    HW263566   5.555   2.688   5.641  0.3735  0.1784  0.0433
20709SOL     OW63567   4.360   6.350   4.555 -0.1154 -0.4278  0.0724
20709SOL    HW163568   4.359   6.295   4.477 -0.6471 -0.1003 -0.1612
20709SOL    HW263569   4.410   6.428   4.528  1.4423 -1.1762  0.6850
20710SOL     OW63570   6.204   6.227  10.803 -0.3168  0.5196 -0.3491
20710SOL    HW163571   6.258   6.163  10.757 -0.4341 -1.0964  1.6281
20710SOL    HW263572   6.262   6.303  10.815  0.7935 -0.3244 -0.2320
20711SOL     OW63573   5.611   1.971   5.045 -0.3795 -0.3202 -0.2450
20711SOL    HW163574   5.552   1.987   5.119 -1.9147 -0.8542 -1.3080
20711SOL    HW263575   5.626   2.058   5.007  0.9335  0.0456  1.0280
20712SOL     OW63576   5.126   1.741   1.646  0.2131 -0.0571 -0.5001
20712SOL    HW163577   5.171   1.773   1.569 -0.0394 -0.9969 -1.0514
20712SOL    HW263578   5.039   1.717   1.615 -0.3242  0.7373  0.3373
20713SOL     OW63579   4.547   5.234   3.758 -0.2661  0.7152 -0.2152
20713SOL    HW163580   4.481   5.172   3.726  0.5251 -0.2283 -0.0603
20713SOL    HW263581   4.501   5.285   3.825 -0.2253 -1.5427  1.6328
20714SOL     OW63582   6.879   6.134   6.483 -0.1458  0.3279 -0.1386
20714SOL    HW163583   6.967   6.130   6.520 -0.0740  1.4794 -0.1371
20714SOL    HW263584   6.822   6.148   6.558 -0.1142  1.5510 -0.3235
20715SOL     OW63585   7.425   3.530   8.374  0.5468 -0.2910 -0.0127
20715SOL    HW163586   7.350   3.575   8.335  1.3039  0.8126 -0.2687
20715SOL    HW263587   7.456   3.470   8.306 -2.0857 -3.3350  1.2391
20716SOL     OW63588   0.282   3.519   9.094  0.1275  0.8606  0.1959
20716SOL    HW163589   0.281   3.584   9.024  0.5347 -0.6888 -1.3172
20716SOL    HW263590   0.361   3.539   9.145  0.7361  1.0070 -0.7925
20717SOL     OW63591   7.935   4.504  12.073 -0.8470 -0.0580  0.1332
20717SOL    HW163592   7.871   4.433  12.068 -0.0049 -1.0013  1.9615
20717SOL    HW263593   8.014   4.467  12.033 -0.2936 -0.3269  1.4299
20718SOL     OW63594   2.168   7.534   7.796  0.1074 -0.4284 -0.2813
20718SOL    HW163595   2.129   7.528   7.883  0.2863 -2.1427 -0.2858
20718SOL    HW263596   2.245   7.477   7.800  2.5260  2.5794 -0.3772
20719SOL     OW63597   6.412   0.908   7.988  0.1092 -0.3074  0.1309
20719SOL    HW163598   6.340   0.877   8.043  0.1739  0.7458  0.8260
20719SOL    HW263599   6.447   0.828   7.949 -1.8075 -0.8127 -0.7128
20720SOL     OW63600   3.453   7.762   1.193 -0.7793  0.2627 -0.0289
20720SOL    HW163601   3.498   7.847   1.185 -0.2111 -0.0863 -0.7182
20720SOL    HW263602   3.519   7.703   1.229 -1.6479  0.4546  2.0119
20721SOL     OW63603   1.138   7.674   8.508 -0.3631 -0.0688 -0.2850
20721SOL    HW163604   1.048   7.663   8.541 -1.2860  3.0530 -1.4052
20721SOL    HW263605   1.128   7.725   8.428  2.4759  1.4008  0.1702
20722SOL     OW63606   2.148   6.385   7.135  0.3254  0.4009 -0.2654
20722SOL    HW163607   2.211   6.431   7.080  0.1390 -1.8283 -2.5040
20722SOL    HW263608   2.063   6.405   7.096  0.0169  0.2042  0.3001
20723SOL     OW63609   2.819   6.326   4.371  0.4096 -0.4859  0.6566
20723SOL    HW163610   2.849   6.262   4.306 -1.3131  1.2322 -2.0205
20723SOL    HW263611   2.751   6.280   4.420 -1.2790 -0.6376 -1.6695
20724SOL     OW63612   6.985   0.694   7.172 -0.5692  0.1062 -0.2637
20724SOL    HW163613   7.015   0.769   7.121  2.4230 -1.3754 -0.9430
20724SOL    HW263614   6.929   0.645   7.112  0.2874  0.0702 -1.0689
20725SOL     OW63615   7.876   5.381   6.903  0.8349  0.1580 -0.2866
20725SOL    HW163616   7.840   5.296   6.925  1.0506 -0.0141 -0.5918
20725SOL    HW263617   7.843   5.399   6.815  0.2389  0.6960  0.0396
20726SOL     OW63618   2.797   6.009   0.591 -0.4332 -0.4188  0.0434
20726SOL    HW163619   2.785   5.991   0.684 -1.1327 -1.8935 -0.3069
20726SOL    HW263620   2.746   6.089   0.576 -1.8639 -1.1726  0.5963
20727SOL     OW63621   3.464   6.731   1.024 -0.4424 -0.5466 -0.1568
20727SOL    HW163622   3.521   6.741   1.101 -1.0385 -1.8791  0.4867
20727SOL    HW263623   3.468   6.816   0.980  0.4618  0.0187  0.9684
20728SOL     OW63624   7.444   2.775   8.673 -0.1012 -0.3744 -0.3213
20728SOL    HW163625   7.519   2.777   8.732  0.8082 -1.7237 -1.3542
20728SOL    HW263626   7.481   2.749   8.588 -1.8520 -1.9857 -0.6678
20729SOL     OW63627   4.404   7.876   9.129  0.1107 -0.4647  0.4705
20729SOL    HW163628   4.412   7.815   9.055 -0.2749  0.4611 -0.3567
20729SOL    HW263629   4.353   7.828   9.194 -0.8114 -0.7816 -0.4574
20730SOL     OW63630   6.018   0.015   4.657  0.3831 -0.0117 -0.9042
20730SOL    HW163631   6.010  -0.080   4.658 -0.2824  0.0231  0.7747
20730SOL    HW263632   5.933   0.046   4.625  0.4739  0.0215 -1.1128
20731SOL     OW63633   4.523   6.842   8.201 -0.0665  0.2981  0.4186
20731SOL    HW163634   4.520   6.910   8.133 -0.3881 -0.4887 -0.3736
20731SOL    HW263635   4.610   6.804   8.193  0.0513  0.4980  0.7435
20732SOL     OW63636   7.468   2.725   3.995 -0.4454 -0.3411 -0.0499
20732SOL    HW163637   7.493   2.706   4.085 -0.0269 -1.4046 -0.3697
20732SOL    HW263638   7.549   2.756   3.953 -0.5244 -0.2989 -0.1735
20733SOL     OW63639   0.955   2.788   8.162 -0.2324 -0.1065  0.2131
20733SOL    HW163640   0.995   2.870   8.133  0.0613  0.5756  2.3742
20733SOL    HW263641   0.862   2.799   8.141 -0.1215  0.5701  0.0421
20734SOL     OW63642   6.990   3.928   5.991 -0.5360 -0.3381  0.5661
20734SOL    HW163643   7.047   4.001   5.965 -0.3256  0.1125  2.1237
20734SOL    HW263644   6.941   3.906   5.912 -0.4518  1.3575 -0.0122
20735SOL     OW63645   3.637   0.712   5.320  0.5664 -0.2234 -0.2267
20735SOL    HW163646   3.694   0.760   5.260  0.1726 -1.4303 -1.6177
20735SOL    HW263647   3.653   0.620   5.301 -1.4332 -0.6105 -0.2718
20736SOL     OW63648   0.022   1.489  11.750  0.0660  0.0514  0.0479
20736SOL    HW163649   0.025   1.569  11.803  1.0691 -1.4537  2.3813
20736SOL    HW263650  -0.071   1.474  11.736 -0.1495  1.5032 -0.2810
20737SOL     OW63651   6.586   2.266   2.287  0.1519  0.4434  0.7446
20737SOL    HW163652   6.521   2.196   2.286 -0.7677  1.2374 -1.1377
20737SOL    HW263653   6.541   2.340   2.327  0.4631  0.5193  0.9538
20738SOL     OW63654   6.442   4.754   7.342 -0.3399  0.5682  0.2448
20738SOL    HW163655   6.487   4.821   7.290  0.5260  0.2104  0.5028
20738SOL    HW263656   6.358   4.793   7.365 -0.0294  1.3940  0.0108
20739SOL     OW63657   7.583   7.415  10.622  0.1024 -0.1497  0.5709
20739SOL    HW163658   7.577   7.488  10.561  2.1946 -1.2292 -1.0419
20739SOL    HW263659   7.492   7.392  10.640 -0.6005  0.4366 -1.8951
20740SOL     OW63660   1.683   7.280   4.166  0.1137 -0.3579 -0.4499
20740SOL    HW163661   1.769   7.253   4.198  0.0957 -0.5497 -0.5601
20740SOL    HW263662   1.631   7.293   4.245  0.4503  0.4604 -0.3549
20741SOL     OW63663   0.683   1.198  10.971 -0.4015  0.4969  0.1277
20741SOL    HW163664   0.605   1.149  10.999 -0.3804  0.0436 -0.5937
20741SOL    HW263665   0.647   1.274  10.924 -0.4170 -0.4994 -1.5347
20742SOL     OW63666   7.005   3.321   0.712  0.2704 -0.1689 -0.1142
20742SOL    HW163667   7.007   3.374   0.633 -1.0387  0.0277 -0.0302
20742SOL    HW263668   6.929   3.264   0.701 -0.8767  0.9364  1.6715
20743SOL     OW63669   3.538   7.226   5.227  0.2727 -0.5638  0.4622
20743SOL    HW163670   3.506   7.170   5.298 -0.4065 -2.1735 -1.0245
20743SOL    HW263671   3.528   7.172   5.148  0.5825  1.3040 -0.9205
20744SOL     OW63672   4.922   5.977   1.698 -0.1340  0.6220 -0.0186
20744SOL    HW163673   4.973   6.005   1.622 -0.5374  0.6136 -0.2918
20744SOL    HW263674   4.973   5.904   1.734 -0.6282 -0.2736 -1.0806
20745SOL     OW63675   6.572   3.085   9.142 -0.0887 -0.4362  0.2864
20745SOL    HW163676   6.647   3.145   9.144 -0.7909  0.4413  1.0516
20745SOL    HW263677   6.596   3.015   9.202  0.4383 -0.5598 -0.0633
20746SOL     OW63678   1.732   0.822  10.748  0.0687  0.1959  0.0459
20746SOL    HW163679   1.767   0.765  10.679 -0.7366 -1.3894  0.9042
20746SOL    HW263680   1.809   0.845  10.801  0.5672  0.8152 -0.9030
20747SOL     OW63681   0.052   3.117   8.302 -0.4637 -0.5594  0.2286
20747SOL    HW163682   0.047   3.211   8.283 -1.0535 -0.7175 -0.4589
20747SOL    HW263683  -0.026   3.099   8.355 -0.4621 -0.6983  0.1839
20748SOL     OW63684   3.247   7.292   8.162 -0.0819  0.0746 -0.0587
20748SOL    HW163685   3.269   7.223   8.098 -1.0087 -1.7509  1.4932
20748SOL    HW263686   3.156   7.274   8.186 -0.5789  2.2929 -0.0696
20749SOL     OW63687   3.179   5.454   0.315 -0.3609 -0.2860  0.1417
20749SOL    HW163688   3.245   5.436   0.382 -1.3650 -2.4683  0.6260
20749SOL    HW263689   3.153   5.545   0.331  2.7444  0.8121 -0.3440
20750SOL     OW63690   2.698   3.640  11.060  0.3130  0.5360 -0.1391
20750SOL    HW163691   2.722   3.606  10.974  0.6055  0.3063  0.0299
20750SOL    HW263692   2.685   3.734  11.046 -1.3531  0.2420 -0.7822
20751SOL     OW63693   7.739   2.509   6.633 -0.0176 -0.1436 -0.0439
20751SOL    HW163694   7.754   2.430   6.685  0.1649 -0.5644 -0.7295
20751SOL    HW263695   7.742   2.581   6.697  0.6019 -0.6150  0.4646
20752SOL     OW63696   2.768   4.815  12.126  0.7977  0.3864  0.0068
20752SOL    HW163697   2.737   4.779  12.043  1.0928 -1.8775  0.8158
20752SOL    HW263698   2.773   4.909  12.111 -2.2261  0.4191 -1.5353
20753SOL     OW63699   6.746   5.222   7.968 -0.1472 -0.0725 -0.2780
20753SOL    HW163700   6.813   5.154   7.969  0.4013  0.4002 -1.7969
20753SOL    HW263701   6.789   5.297   7.927 -1.1470  0.7438  0.1269
20754SOL     OW63702   5.259   4.086   6.443  0.2334  0.3301 -0.2716
20754SOL    HW163703   5.322   4.014   6.434 -0.5771 -0.4531  0.1702
20754SOL    HW263704   5.196   4.071   6.373  1.0268  1.6589 -1.3139
20755SOL     OW63705   4.381   3.485   8.535 -0.0382  0.6672  0.2292
20755SOL    HW163706   4.435   3.411   8.560 -1.7655 -0.5009  0.6862
20755SOL    HW263707   4.437   3.537   8.478  0.8811 -1.5552 -1.0176
20756SOL     OW63708   6.896   6.629   2.166  0.1888  0.4368  0.7362
20756SOL    HW163709   6.977   6.671   2.194  0.1373 -0.0730  1.6829
20756SOL    HW263710   6.925   6.560   2.105  0.3707  0.9738  0.2050
20757SOL     OW63711   3.325   2.430  10.339  0.0070  0.9817 -0.2936
20757SOL    HW163712   3.296   2.344  10.371  1.8727 -0.2635 -1.7359
20757SOL    HW263713   3.254   2.459  10.281 -0.8725  0.6732  0.6097
20758SOL     OW63714   4.957   5.345   0.453  0.0179 -0.1374  0.4705
20758SOL    HW163715   5.036   5.290   0.455  1.2494  1.5537  1.5142
20758SOL    HW263716   4.966   5.397   0.374  1.1158  1.5790  1.6623
20759SOL     OW63717   5.946   5.070   2.320  0.1455 -0.3135 -0.0134
20759SOL    HW163718   5.971   5.063   2.412  1.7329  1.1017 -0.2885
20759SOL    HW263719   5.865   5.020   2.313 -2.0098  2.4343  2.9070
20760SOL     OW63720   2.727   4.523   6.232  0.5248 -0.2251  0.2326
20760SOL    HW163721   2.753   4.576   6.157  0.2326  0.8113  0.8319
20760SOL    HW263722   2.806   4.517   6.286  0.1688  0.9685  0.9296
20761SOL     OW63723   1.188   0.582   7.503 -0.2844 -0.7660 -0.0734
20761SOL    HW163724   1.163   0.499   7.463 -0.3590 -1.3683  1.1785
20761SOL    HW263725   1.152   0.577   7.592 -0.7990  0.8522 -0.1639
20762SOL     OW63726   2.057   2.119   5.129 -0.2800 -0.3058 -0.0348
20762SOL    HW163727   1.999   2.130   5.204 -0.0934 -0.8650  0.1995
20762SOL    HW263728   2.002   2.081   5.061 -0.6061  0.8019 -0.4069
20763SOL     OW63729   4.074   7.263   6.223  0.4740 -0.3559  0.2298
20763SOL    HW163730   4.027   7.203   6.165  0.2169 -0.8849  0.9721
20763SOL    HW263731   4.164   7.262   6.191  0.1426  0.1135 -0.7636
20764SOL     OW63732   3.895   7.877   6.715  0.2498 -0.2502 -0.7020
20764SOL    HW163733   3.869   7.966   6.690  0.2017  0.0578  0.3681
20764SOL    HW263734   3.913   7.884   6.809 -0.0559 -1.4398 -0.5435
20765SOL     OW63735   2.836   4.771   3.127  0.3539  0.1084  0.1459
20765SOL    HW163736   2.775   4.705   3.095  0.7677 -0.5732  0.7385
20765SOL    HW263737   2.802   4.797   3.213  0.3700  0.4365  0.0566
20766SOL     OW63738   7.742   6.622   3.883 -0.8533  0.1815  0.1365
20766SOL    HW163739   7.771   6.673   3.959  2.6573 -0.5418 -0.5566
20766SOL    HW263740   7.763   6.532   3.905 -1.4481 -0.2507 -1.0090
20767SOL     OW63741   4.950   7.126   9.254 -0.6514  0.4482  0.4932
20767SOL    HW163742   4.984   7.070   9.323 -1.0165 -0.3963  0.0050
20767SOL    HW263743   4.856   7.130   9.269 -1.0055 -1.2021 -0.9425
20768SOL     OW63744   5.025   6.752   4.350  0.7200 -0.2467 -0.3537
20768SOL    HW163745   4.944   6.797   4.373  1.9254  1.9587 -0.1672
20768SOL    HW263746   5.025   6.750   4.255  0.0156 -1.1090 -0.3405
20769SOL     OW63747   4.876   5.496   3.669 -0.3334 -0.1035 -0.1641
20769SOL    HW163748   4.917   5.413   3.649  0.8682  0.6124 -0.7869
20769SOL    HW263749   4.820   5.515   3.594  0.7589  0.4705 -0.8580
20770SOL     OW63750   7.952   0.557   5.048 -0.6029  0.0165 -0.5800
20770SOL    HW163751   7.877   0.539   5.105  0.0055 -0.3867  0.1167
20770SOL    HW263752   7.954   0.484   4.987 -0.1191 -0.5764  0.1246
20771SOL     OW63753   1.033   0.060   8.597 -0.5558 -0.3594 -0.2894
20771SOL    HW163754   0.991   0.144   8.617  2.8325  1.5291 -0.3588
20771SOL    HW263755   1.036   0.057   8.501  1.7446  0.9029 -0.3256
20772SOL     OW63756   5.826   6.898  10.499  0.6934 -0.0598 -0.0094
20772SOL    HW163757   5.739   6.936  10.497 -0.2423 -1.8710  1.9841
20772SOL    HW263758   5.882   6.966  10.535 -0.4170  0.3081  1.0756
20773SOL     OW63759   0.186   3.371  11.662 -0.2267  0.4826  0.0968
20773SOL    HW163760   0.142   3.454  11.646 -0.5287  0.2671 -0.2080
20773SOL    HW263761   0.276   3.396  11.685  0.0080  0.8520 -1.1455
20774SOL     OW63762   5.300   4.025   7.538 -0.1487 -0.0836 -0.1764
20774SOL    HW163763   5.334   3.941   7.506 -1.4901 -0.4867 -0.6073
20774SOL    HW263764   5.231   4.000   7.600  0.6629  0.7045  1.0730
20775SOL     OW63765   3.429   7.449   8.592  0.0610 -0.2391 -0.7472
20775SOL    HW163766   3.503   7.448   8.652  0.4626 -1.2767 -1.2289
20775SOL    HW263767   3.360   7.400   8.638  0.3389 -0.9573 -1.0811
20776SOL     OW63768   0.800   3.932   6.352  0.1589 -1.0072  0.0032
20776SOL    HW163769   0.728   3.869   6.353 -1.0326  0.3029  0.2833
20776SOL    HW263770   0.855   3.906   6.426  0.5746 -2.6527 -0.8426
20777SOL     OW63771   6.739   4.131  11.608  0.2321  0.0752  0.2799
20777SOL    HW163772   6.806   4.075  11.648  1.0135  0.5113 -0.4055
20777SOL    HW263773   6.693   4.073  11.547  0.8050  0.0857 -0.1650
20778SOL     OW63774   3.676   2.329   9.367  0.1048 -0.0488 -0.5676
20778SOL    HW163775   3.754   2.277   9.347  0.9068  0.3989  1.2225
20778SOL    HW263776   3.688   2.409   9.315  1.1128  0.2297  0.0580
20779SOL     OW63777   7.860   5.664   8.987  0.8449 -1.0321 -0.4119
20779SOL    HW163778   7.878   5.591   9.046  0.9647  0.5057  1.5693
20779SOL    HW263779   7.945   5.705   8.972  0.4140  0.6644  1.3068
20780SOL     OW63780   0.460   4.656   7.594  0.2293 -0.3191 -0.4968
20780SOL    HW163781   0.466   4.722   7.663  0.6069  1.3048 -1.9966
20780SOL    HW263782   0.464   4.572   7.640  3.8878  0.6150  1.2622
20781SOL     OW63783   4.571   0.553   2.098  0.3245  0.3026  0.4390
20781SOL    HW163784   4.553   0.631   2.045 -1.7159 -0.8683 -0.6742
20781SOL    HW263785   4.537   0.480   2.046  0.1470 -1.1136  2.4615
20782SOL     OW63786   1.030   3.735  10.864  0.1411  0.0445  0.5174
20782SOL    HW163787   1.006   3.826  10.848  0.4631 -0.1243 -1.0682
20782SOL    HW263788   0.952   3.696  10.902 -1.2081  0.1843 -1.9569
20783SOL     OW63789   2.932   1.980   6.025  0.3468 -0.0983 -0.1887
20783SOL    HW163790   3.023   1.951   6.022 -0.0986 -1.5304 -0.5796
20783SOL    HW263791   2.931   2.050   6.090  1.7947  0.2082 -0.4670
20784SOL     OW63792   3.181   4.088   0.170 -0.2309 -0.6072  0.2941
20784SOL    HW163793   3.152   4.103   0.080 -2.0091  0.5037  0.9840
20784SOL    HW263794   3.199   4.176   0.204  1.6402 -1.1006  0.6921
20785SOL     OW63795   4.362   0.649   9.553  0.4661  0.5256  0.0626
20785SOL    HW163796   4.361   0.742   9.577 -1.3871  0.5784 -0.1039
20785SOL    HW263797   4.289   0.611   9.601 -0.0567 -0.4360 -1.4313
20786SOL     OW63798   4.211   0.674  10.450  0.3156  0.1055 -0.1372
20786SOL    HW163799   4.234   0.765  10.430 -0.3511  0.2692 -0.2038
20786SOL    HW263800   4.285   0.623  10.419  0.2486  0.5402 -1.0655
20787SOL     OW63801   5.674   0.148   3.496 -0.3334  0.2177  0.0176
20787SOL    HW163802   5.732   0.091   3.546  1.0714  2.2095  0.7713
20787SOL    HW263803   5.643   0.213   3.559 -1.9947  0.2692 -0.7787
20788SOL     OW63804   3.038   5.107   8.553 -0.1121  0.4664 -0.2646
20788SOL    HW163805   3.115   5.149   8.592 -0.9907  1.3352  0.5862
20788SOL    HW263806   3.071   5.067   8.472  0.7447  2.8794 -1.1931
20789SOL     OW63807   7.623   7.048   4.415 -0.2753 -0.1013 -0.3793
20789SOL    HW163808   7.548   6.989   4.416 -0.5537  0.2123 -1.2177
20789SOL    HW263809   7.643   7.064   4.507 -0.6153 -0.9630 -0.1434
20790SOL     OW63810   3.855   7.636   5.146 -0.9908  0.7243  0.2588
20790SOL    HW163811   3.813   7.567   5.198 -0.6796  0.5281  0.2534
20790SOL    HW263812   3.924   7.669   5.203 -1.4663  1.3922  0.4623
20791SOL     OW63813   7.978   4.673   1.095 -0.1741 -0.1350 -0.4358
20791SOL    HW163814   7.898   4.626   1.118 -1.5672  2.0743 -0.3857
20791SOL    HW263815   7.959   4.764   1.119  2.1086  0.5794 -1.1049
20792SOL     OW63816   3.377   6.321   4.990  0.6220 -0.5509  0.2329
20792SOL    HW163817   3.441   6.384   4.958 -0.8518  0.8654 -0.0722
20792SOL    HW263818   3.327   6.295   4.913 -0.5123 -0.0189  0.7666
20793SOL     OW63819   7.365   6.363   3.309  0.1893 -0.0781 -0.3673
20793SOL    HW163820   7.310   6.326   3.239 -1.3620  1.6333 -0.1254
20793SOL    HW263821   7.340   6.314   3.387 -1.6069  1.1550 -0.1126
20794SOL     OW63822   5.682   7.408   4.852 -0.5245  0.2990  0.1433
20794SOL    HW163823   5.726   7.367   4.927 -0.3609 -0.0609 -0.1462
20794SOL    HW263824   5.666   7.498   4.880  0.3465  0.4202  0.2692
20795SOL     OW63825   5.493   1.938   6.072  0.7833 -0.3650  0.4483
20795SOL    HW163826   5.494   1.877   5.998  0.9133  1.2952 -1.0111
20795SOL    HW263827   5.521   1.886   6.147 -0.8885 -2.5341 -0.3087
20796SOL     OW63828   5.245   5.284   2.560 -0.4061  0.0850  0.0099
20796SOL    HW163829   5.159   5.299   2.599 -0.6599  0.3851 -0.6532
20796SOL    HW263830   5.305   5.284   2.635 -0.9811 -0.1487  0.4812
20797SOL     OW63831   7.442   6.563   3.149 -0.0268  0.4329  0.4220
20797SOL    HW163832   7.366   6.572   3.092  1.0992  2.3698 -0.8753
20797SOL    HW263833   7.415   6.498   3.214 -1.4580 -1.7660 -2.1428
20798SOL     OW63834   7.019   5.589   4.995 -0.0815  0.0634  0.5362
20798SOL    HW163835   6.938   5.540   4.982 -0.1017  0.3747 -0.6137
20798SOL    HW263836   6.989   5.678   5.014 -0.0146  0.0840  0.5429
20799SOL     OW63837   1.136   3.388   3.702 -0.0554  0.3364  0.2503
20799SOL    HW163838   1.100   3.417   3.785 -1.5773 -1.1001  0.1512
20799SOL    HW263839   1.069   3.412   3.637 -0.0897 -0.8712 -0.1837
20800SOL     OW63840   3.863   3.613   2.157  0.3300  0.5270  0.4784
20800SOL    HW163841   3.957   3.611   2.143  0.5578  0.7480  1.8765
20800SOL    HW263842   3.852   3.641   2.248 -1.0635 -0.4683  0.6533
20801SOL     OW63843   2.389   4.135   9.215 -0.0746 -0.0519  0.0519
20801SOL    HW163844   2.383   4.223   9.177 -0.2246 -0.0273  0.1328
20801SOL    HW263845   2.334   4.081   9.159  1.1790 -0.4066 -0.8835
20802SOL     OW63846   2.931   3.343   7.012 -0.2228 -0.1243  0.4148
20802SOL    HW163847   3.022   3.339   6.984  0.6775  0.3380  3.0862
20802SOL    HW263848   2.904   3.252   7.019 -0.6715 -0.2869 -2.2401
20803SOL     OW63849   3.051   6.440   9.147 -0.0364  0.2145  0.3301
20803SOL    HW163850   3.140   6.411   9.167 -0.1863 -1.0331 -0.6436
20803SOL    HW263851   3.031   6.398   9.063 -0.4668  2.8194 -0.9910
20804SOL     OW63852   2.566   1.601   0.457 -0.1313 -0.6102  0.3934
20804SOL    HW163853   2.496   1.596   0.392 -1.3790 -0.6626  1.6892
20804SOL    HW263854   2.627   1.666   0.422  0.1547 -1.9009 -1.6449
20805SOL     OW63855   1.939   0.967   2.097 -0.5270  0.3529 -0.1882
20805SOL    HW163856   1.948   0.942   2.005 -0.4291 -2.4329  0.4999
20805SOL    HW263857   2.028   0.967   2.131 -0.7794 -2.9888  0.8377
20806SOL     OW63858   2.042   5.334   5.078  0.3337  0.1171  0.0893
20806SOL    HW163859   2.041   5.400   5.148 -0.6070  0.2084  0.0025
20806SOL    HW263860   2.021   5.383   4.999 -0.5631 -0.3116  0.0555
20807SOL     OW63861   2.925   7.000  10.112  0.0219 -0.4960 -0.3116
20807SOL    HW163862   2.972   6.997  10.029  2.5662 -0.1121  0.9901
20807SOL    HW263863   2.899   7.092  10.122  1.7676 -0.0225  0.2894
20808SOL     OW63864   0.732   4.493  11.129 -0.1832 -0.3107  0.3071
20808SOL    HW163865   0.769   4.453  11.050 -3.2642  0.6373 -1.8160
20808SOL    HW263866   0.688   4.420  11.174 -2.6324 -0.1575 -1.6057
20809SOL     OW63867   1.237   2.645   2.542 -0.2001  0.4899  0.7507
20809SOL    HW163868   1.214   2.552   2.545  0.1593  0.3831  0.3435
20809SOL    HW263869   1.179   2.682   2.475 -0.2562  0.5341  0.8234
20810SOL     OW63870   6.735   6.370  10.110 -0.2273  0.0710  0.0825
20810SOL    HW163871   6.753   6.453  10.065 -2.8174  0.2353 -0.8666
20810SOL    HW263872   6.759   6.387  10.202 -1.1644  2.0902  0.0142
20811SOL     OW63873   3.538   5.241   5.335 -0.0565 -0.3201  0.1228
20811SOL    HW163874   3.627   5.207   5.326 -0.2849 -0.8147 -0.2776
20811SOL    HW263875   3.526   5.252   5.430  0.4381 -0.2144  0.1783
20812SOL     OW63876   7.081   5.987   5.048 -0.2799  0.0852  0.1354
20812SOL    HW163877   7.036   5.919   5.097 -1.0977  0.8748  0.5049
20812SOL    HW263878   7.102   5.947   4.964 -2.2858 -0.0865 -0.3148
20813SOL     OW63879   0.190   1.827   4.506  0.3961  0.1067  0.0546
20813SOL    HW163880   0.232   1.806   4.590 -0.2730 -0.5045  0.2467
20813SOL    HW263881   0.232   1.768   4.444 -0.2380 -0.5812  0.2667
20814SOL     OW63882   0.176   4.815   9.748  0.1721  0.1384  0.1171
20814SOL    HW163883   0.126   4.841   9.826 -0.8713 -1.5430  0.0469
20814SOL    HW263884   0.195   4.722   9.761 -0.8141 -0.4207 -2.0309
20815SOL     OW63885   1.407   3.398  12.400  0.0831 -0.6386  0.4791
20815SOL    HW163886   1.351   3.390  12.323  0.6066 -0.0007  0.0212
20815SOL    HW263887   1.368   3.469  12.451 -1.1352 -2.0379  1.5790
20816SOL     OW63888   0.049   6.399   3.331  0.2537  0.1133 -0.2224
20816SOL    HW163889   0.142   6.401   3.354 -0.2643  1.2460  2.0426
20816SOL    HW263890   0.032   6.485   3.293  0.4747 -0.7496 -2.4147
20817SOL     OW63891   5.599   7.305   0.558  0.2118  0.3959  0.4300
20817SOL    HW163892   5.665   7.374   0.563  0.1863  0.3773  1.2596
20817SOL    HW263893   5.631   7.245   0.491  0.1053  1.3342 -0.4890
20818SOL     OW63894   6.584   1.486   5.669  0.5877 -0.6671 -0.7937
20818SOL    HW163895   6.678   1.472   5.679  0.4762  0.0484  2.1023
20818SOL    HW263896   6.544   1.406   5.703  0.1437 -0.5585 -1.0620
20819SOL     OW63897   7.045   4.921   0.263 -0.5073 -0.4789  0.8493
20819SOL    HW163898   7.029   4.827   0.276 -0.7582 -0.6034 -0.2507
20819SOL    HW263899   7.075   4.928   0.173 -0.4465  0.5023  0.9332
20820SOL     OW63900   3.023   7.732   8.557  0.1532  0.3063 -0.6873
20820SOL    HW163901   3.076   7.655   8.540  1.1166  0.9096 -0.5093
20820SOL    HW263902   3.084   7.805   8.551 -0.7313  1.0586 -0.8237
20821SOL     OW63903   5.349   4.543   5.767 -0.3708 -0.3288  0.1596
20821SOL    HW163904   5.298   4.501   5.698 -0.4099  0.7873 -0.5126
20821SOL    HW263905   5.395   4.471   5.810  0.1765 -0.9974 -1.4640
20822SOL     OW63906   1.619   3.878   1.347 -0.1617 -0.2354  0.4441
20822SOL    HW163907   1.590   3.851   1.434 -0.6688  3.2566  1.5241
20822SOL    HW263908   1.697   3.931   1.363  1.0985 -1.3948 -1.5087
20823SOL     OW63909   6.112   2.169   0.442  0.3494 -0.3571 -0.2832
20823SOL    HW163910   6.083   2.152   0.352  0.3323  1.6856 -0.7327
20823SOL    HW263911   6.201   2.203   0.432  0.2071  0.2420  0.4181
20824SOL     OW63912   4.138   5.481   4.490 -0.1290 -0.1021 -0.2597
20824SOL    HW163913   4.120   5.549   4.555 -0.2447 -0.7058  0.3503
20824SOL    HW263914   4.223   5.446   4.515 -0.6266 -1.0303  0.1930
20825SOL     OW63915   3.006   0.509   4.392 -0.1076  0.3740  0.2473
20825SOL    HW163916   3.062   0.432   4.385  0.0689  0.4191  1.0803
20825SOL    HW263917   3.026   0.546   4.478 -0.8753  0.8160  0.2483
20826SOL     OW63918   1.052   3.199   1.600 -0.3181 -0.3341  0.1086
20826SOL    HW163919   1.084   3.280   1.560  0.8496  0.1604  1.9456
20826SOL    HW263920   0.996   3.228   1.672 -0.6999 -1.1836  0.1683
20827SOL     OW63921   7.068   0.562   8.797 -0.5208  0.0046 -0.1106
20827SOL    HW163922   7.069   0.496   8.867  1.5426  1.5657  1.4524
20827SOL    HW263923   7.015   0.633   8.832 -1.3559 -0.0813 -1.1250
20828SOL     OW63924   5.342   2.091   8.002  0.2025  0.4447 -0.1269
20828SOL    HW163925   5.421   2.043   7.974  0.5357 -0.1893  1.7140
20828SOL    HW263926   5.376   2.171   8.043 -0.1704  0.6574 -0.2306
20829SOL     OW63927   4.873   7.281   2.398 -0.4578 -0.2833 -0.0176
20829SOL    HW163928   4.900   7.353   2.342 -0.3986  1.1815  1.8166
20829SOL    HW263929   4.936   7.211   2.379  1.1058  1.0670  0.0734
20830SOL     OW63930   3.358   5.992  11.446 -0.6023 -0.1394  0.2076
20830SOL    HW163931   3.291   5.935  11.408 -0.8121  0.7998 -0.9012
20830SOL    HW263932   3.312   6.075  11.461 -0.2346 -0.1516  1.5379
20831SOL     OW63933   3.922   3.534   7.577  0.3407 -0.1924  0.0700
20831SOL    HW163934   3.892   3.527   7.487  0.2984 -0.5797  0.1146
20831SOL    HW263935   3.873   3.608   7.613  0.2925 -0.0960 -0.1980
20832SOL     OW63936   2.596   3.986   1.685 -0.4783  0.2416  0.3719
20832SOL    HW163937   2.660   3.952   1.747  0.3523  1.0996  0.0008
20832SOL    HW263938   2.610   4.081   1.686 -0.3464  0.2569 -1.2338
20833SOL     OW63939   4.131   3.427   8.268  0.3718 -0.0729 -0.3911
20833SOL    HW163940   4.171   3.471   8.193  0.4212 -1.2484 -1.0755
20833SOL    HW263941   4.162   3.337   8.263 -0.8906 -0.5635  0.1212
20834SOL     OW63942   4.147   7.924  11.271 -0.5023  0.1577 -0.1800
20834SOL    HW163943   4.224   7.982  11.273 -1.4346  1.4653 -0.7738
20834SOL    HW263944   4.072   7.984  11.268 -1.5630 -1.0837  0.5261
20835SOL     OW63945   2.772   5.255   1.976 -0.0578  0.1293 -0.0826
20835SOL    HW163946   2.807   5.166   1.977 -0.2881  0.0397  1.4227
20835SOL    HW263947   2.714   5.257   1.900 -0.5029 -1.1829  0.2025
20836SOL     OW63948   2.575   4.649   4.189 -0.5224 -0.4419 -0.5100
20836SOL    HW163949   2.644   4.610   4.135  0.0951 -0.7395  0.4757
20836SOL    HW263950   2.504   4.586   4.187 -1.3122  0.4235 -2.5690
20837SOL     OW63951   2.179   4.331  11.243  0.2641  0.0617  0.2892
20837SOL    HW163952   2.125   4.377  11.307  1.7197 -0.6979  2.1480
20837SOL    HW263953   2.268   4.338  11.276  0.8226 -2.0789 -0.5764
20838SOL     OW63954   2.954   2.160   3.104  0.2525 -0.1570 -0.3511
20838SOL    HW163955   2.994   2.096   3.046  0.0021  1.3227 -2.2185
20838SOL    HW263956   2.869   2.179   3.065 -0.3851  0.1220  1.0805
20839SOL     OW63957   1.863   1.401   0.410 -0.1227  0.0167 -0.6633
20839SOL    HW163958   1.883   1.315   0.372  0.2758  0.6628 -2.0053
20839SOL    HW263959   1.822   1.382   0.494  0.8167 -1.4692 -0.5069
20840SOL     OW63960   7.864   4.206   4.820 -0.0344 -0.0230 -0.0370
20840SOL    HW163961   7.838   4.273   4.883  0.5713 -1.1861  1.5419
20840SOL    HW263962   7.857   4.248   4.735 -0.8133  1.6504  0.8108
20841SOL     OW63963   3.749   0.864   6.702  0.3340 -0.5483 -0.7113
20841SOL    HW163964   3.833   0.906   6.720  0.6552 -0.6156 -1.9744
20841SOL    HW263965   3.688   0.904   6.764  1.5350 -1.4400  1.1697
20842SOL     OW63966   7.654   1.881   0.921 -0.2643  0.0349 -0.3188
20842SOL    HW163967   7.584   1.884   0.856  0.2748 -0.3095 -0.9290
20842SOL    HW263968   7.609   1.866   1.004 -0.9446  0.2534 -0.6452
20843SOL     OW63969   6.061   5.318   9.871 -0.4458 -0.0112 -0.0479
20843SOL    HW163970   6.143   5.310   9.919 -0.1750 -0.9227 -0.6412
20843SOL    HW263971   6.074   5.266   9.792 -1.3663  0.3653 -0.4652
20844SOL     OW63972   2.968   6.681   5.311 -0.0633  0.0441  0.2556
20844SOL    HW163973   3.058   6.713   5.313 -0.7076  1.9894  1.5411
20844SOL    HW263974   2.919   6.749   5.266 -0.8904 -1.1238 -0.6834
20845SOL     OW63975   5.933   5.546  11.047  0.5504  0.4203 -0.3247
20845SOL    HW163976   5.965   5.457  11.033  0.7599  0.4834 -0.2469
20845SOL    HW263977   5.837   5.537  11.046  0.5635  0.0502  0.5541
20846SOL     OW63978   7.784   4.859   0.590 -0.5703 -0.1927 -0.1565
20846SOL    HW163979   7.742   4.864   0.676 -1.8907  0.6996 -0.8192
20846SOL    HW263980   7.727   4.801   0.540 -1.3050  1.3920 -1.2157
20847SOL     OW63981   5.402   2.443   0.316 -0.0453 -0.0299 -0.0653
20847SOL    HW163982   5.456   2.364   0.313  0.3063  0.2226 -0.4036
20847SOL    HW263983   5.312   2.410   0.318  0.1056 -0.4418  0.0851
20848SOL     OW63984   4.056   1.567   1.618  0.2839  0.2324  0.9409
20848SOL    HW163985   3.971   1.550   1.579  0.7764 -1.1825  0.4168
20848SOL    HW263986   4.091   1.641   1.568 -0.4615  0.5608  0.8968
20849SOL     OW63987   0.692   1.709   7.695  0.0795  0.2148  0.2104
20849SOL    HW163988   0.663   1.625   7.660 -0.0636  0.4171 -0.1641
20849SOL    HW263989   0.784   1.715   7.671  0.0357  0.2572  0.0480
20850SOL     OW63990   5.805   5.767   9.909  0.6957 -0.1658 -0.2239
20850SOL    HW163991   5.888   5.815   9.905  0.3600  0.5303  0.5944
20850SOL    HW263992   5.824   5.681   9.872  1.9674 -0.2629  0.5862
20851SOL     OW63993   4.234   7.109   1.714  0.2329  0.2265 -0.2697
20851SOL    HW163994   4.190   7.173   1.658 -0.7878  0.4080  0.7069
20851SOL    HW263995   4.176   7.032   1.714 -0.0943  0.4453  0.9776
20852SOL     OW63996   4.041   4.239   0.663 -0.3562  0.1228 -0.7728
20852SOL    HW163997   4.082   4.316   0.623  1.0418  0.7788  1.7105
20852SOL    HW263998   4.090   4.165   0.629  2.4435  0.8250  1.3374
20853SOL     OW63999   6.847   6.623  10.091  0.2563  0.8368  0.6714
20853SOL    HW164000   6.779   6.657  10.149 -0.4014  1.1810 -0.2856
20853SOL    HW264001   6.920   6.684  10.101 -1.0638  2.8859 -1.3591
20854SOL     OW64002   5.509   7.191  10.271  0.1561  0.2940  0.4520
20854SOL    HW164003   5.477   7.209  10.183 -0.7817 -1.2191  0.4378
20854SOL    HW264004   5.475   7.262  10.325  0.5393  1.0964 -0.3473
20855SOL     OW64005   2.473   0.504   2.449  0.3377 -0.3893  0.1352
20855SOL    HW164006   2.382   0.486   2.425  0.3761  1.0588 -1.2813
20855SOL    HW264007   2.467   0.555   2.529 -0.0133 -1.4394  0.8018
20856SOL     OW64008   6.299   3.409  11.558  0.0878 -0.1487  0.0211
20856SOL    HW164009   6.373   3.466  11.535  0.0815  0.0389  0.4541
20856SOL    HW264010   6.289   3.420  11.653 -1.1251  0.5941 -0.1783
20857SOL     OW64011   7.860   4.967   9.370  0.3390 -0.5659 -0.3916
20857SOL    HW164012   7.810   4.901   9.419 -0.9584  1.2100  0.7805
20857SOL    HW264013   7.943   4.974   9.418 -0.2328 -0.0839  0.5473
20858SOL     OW64014   5.267   6.064   9.614 -0.0383  0.2143  0.5079
20858SOL    HW164015   5.198   6.019   9.664  0.1540  1.4320  1.9440
20858SOL    HW264016   5.281   6.145   9.662  2.4016  0.0135  0.2335
20859SOL     OW64017   7.064   6.158  11.515  0.1974  0.0410  0.2719
20859SOL    HW164018   7.020   6.204  11.587  1.5098  0.1866  1.0244
20859SOL    HW264019   7.047   6.065  11.532 -0.9857  0.1371 -0.2618
20860SOL     OW64020   1.113   1.290   3.508  0.4562 -0.0040  0.2447
20860SOL    HW164021   1.089   1.262   3.420 -0.4373 -0.6941  0.6865
20860SOL    HW264022   1.201   1.327   3.499 -0.0573  0.9519 -1.1267
20861SOL     OW64023   4.388   5.855   1.973  0.0273 -0.1167  0.3889
20861SOL    HW164024   4.397   5.776   2.025 -0.7967 -0.5909 -0.1582
20861SOL    HW264025   4.359   5.824   1.887  1.1382  0.6647 -0.2878
20862SOL     OW64026   5.577   0.392   6.594 -0.2403 -0.8595 -0.0087
20862SOL    HW164027   5.489   0.362   6.614 -0.3409  0.6539  2.3199
20862SOL    HW264028   5.567   0.486   6.577  0.8752 -0.6899  0.1546
20863SOL     OW64029   4.526   6.888   0.742 -0.4008  0.7208 -0.2813
20863SOL    HW164030   4.472   6.889   0.663  1.2624  2.4396 -1.4898
20863SOL    HW264031   4.610   6.853   0.712  0.6675  2.5863  0.3660
20864SOL     OW64032   6.014   4.617   3.641  0.0466 -0.1027 -0.7558
20864SOL    HW164033   6.050   4.597   3.727  0.8368  0.7236 -0.8760
20864SOL    HW264034   6.046   4.547   3.584  1.0474  0.3336 -0.7479
20865SOL     OW64035   0.660   2.977   5.695  0.3770 -0.0357 -0.0861
20865SOL    HW164036   0.710   2.941   5.622 -0.1712 -0.4054 -0.2838
20865SOL    HW264037   0.596   2.909   5.717  1.5859 -0.6629  1.8321
20866SOL     OW64038   2.047   2.697  11.870 -0.3188 -0.2747  0.4546
20866SOL    HW164039   2.061   2.757  11.797  2.3520 -0.5006  0.6546
20866SOL    HW264040   1.984   2.741  11.927 -0.8987  0.8141 -0.9872
20867SOL     OW64041   2.347   6.101   2.881 -0.1703 -0.2150 -0.2755
20867SOL    HW164042   2.378   6.191   2.866  1.5056 -0.8264 -0.6239
20867SOL    HW264043   2.269   6.112   2.935  0.3082  1.4335  0.1371
20868SOL     OW64044   5.499   7.566   2.642 -0.7279 -0.5884  0.5338
20868SOL    HW164045   5.513   7.541   2.551 -3.6360  0.4766 -0.3259
20868SOL    HW264046   5.559   7.640   2.655 -0.2322 -0.7832 -0.4982
20869SOL     OW64047   2.157   7.258   9.813  0.1014 -0.1301 -0.7151
20869SOL    HW164048   2.234   7.314   9.817  0.4550 -0.6648  1.7759
20869SOL    HW264049   2.098   7.295   9.880 -1.0778 -0.7590 -1.3755
20870SOL     OW64050   1.383   5.296   0.843 -0.8048  0.2873 -0.0322
20870SOL    HW164051   1.317   5.358   0.874  0.1657  0.8847  0.9034
20870SOL    HW264052   1.459   5.351   0.823 -0.2214 -0.5080 -0.0232
20871SOL     OW64053   6.565   4.472   4.980  0.7359  0.0317  0.2901
20871SOL    HW164054   6.479   4.442   5.009  1.1595  0.1912  1.8195
20871SOL    HW264055   6.599   4.401   4.926 -0.2504 -0.1211 -0.1530
20872SOL     OW64056   6.517   0.680   6.604 -0.2402  0.1457 -0.0063
20872SOL    HW164057   6.436   0.728   6.622 -0.7233 -0.0532 -1.4985
20872SOL    HW264058   6.584   0.748   6.599 -0.4783  0.4089  0.3340
20873SOL     OW64059   1.064   0.719   0.203  0.2677  0.0162  0.9037
20873SOL    HW164060   1.010   0.750   0.276  0.4443  1.6139  0.3911
20873SOL    HW264061   1.093   0.632   0.230 -0.8143  0.0093  2.1232
20874SOL     OW64062   5.113   4.907   7.862  0.3907  0.2537  0.3174
20874SOL    HW164063   5.149   4.824   7.892 -0.1930  0.1881  0.8597
20874SOL    HW264064   5.059   4.884   7.787 -1.1914 -0.1298  1.5227
20875SOL     OW64065   3.975   2.657   1.061  0.5331  0.9981 -0.0389
20875SOL    HW164066   4.003   2.566   1.074  0.9903  0.7631 -2.2354
20875SOL    HW264067   4.016   2.705   1.133  0.5245 -0.4632  1.0050
20876SOL     OW64068   5.673   5.167   0.294 -0.2490 -0.6539 -0.1100
20876SOL    HW164069   5.610   5.165   0.222  0.5694 -1.0205 -0.8331
20876SOL    HW264070   5.629   5.216   0.363 -1.3763 -1.0067 -0.5527
20877SOL     OW64071   0.850   2.785   6.242  0.0485  0.1648 -0.1449
20877SOL    HW164072   0.784   2.793   6.311  0.4918  3.1813  0.0441
20877SOL    HW264073   0.833   2.699   6.203 -1.3669 -0.8594  2.4951
20878SOL     OW64074   3.085   7.392   0.672  0.0774 -0.0723  0.0595
20878SOL    HW164075   2.994   7.396   0.699  0.5796  0.6144  1.8137
20878SOL    HW264076   3.114   7.483   0.672  0.6811 -0.2509 -0.8058
20879SOL     OW64077   6.090   6.597   6.313 -0.2899 -0.0615 -0.3959
20879SOL    HW164078   6.051   6.682   6.291 -1.7924 -0.0009  2.1220
20879SOL    HW264079   6.184   6.614   6.315 -0.5896  1.7273  0.5831
20880SOL     OW64080   2.389   3.420   3.848 -0.1885 -0.1016  0.0878
20880SOL    HW164081   2.419   3.481   3.915  1.2821  0.3214 -0.9146
20880SOL    HW264082   2.333   3.474   3.791  0.9964  0.3034 -0.7172
20881SOL     OW64083   1.285   2.991   6.206 -0.2963  0.0742 -0.1478
20881SOL    HW164084   1.362   2.984   6.149 -1.0851  1.0774 -1.4054
20881SOL    HW264085   1.299   3.072   6.255 -1.4331  1.4164 -1.8888
20882SOL     OW64086   7.985   7.445   3.075  0.3617 -0.0179 -0.0038
20882SOL    HW164087   7.997   7.365   3.127 -0.8181 -2.1913 -2.7698
20882SOL    HW264088   8.040   7.431   2.998 -0.9740  1.1517 -1.2221
20883SOL     OW64089   1.188   1.658   8.269  0.5215 -0.1062  0.3223
20883SOL    HW164090   1.271   1.702   8.254  0.8899  0.1849  2.8381
20883SOL    HW264091   1.204   1.567   8.246  1.7992 -0.2072  1.5047
20884SOL     OW64092   7.707   2.724  11.826 -0.5517 -0.6544  0.3391
20884SOL    HW164093   7.636   2.746  11.886 -1.1321  0.8874 -0.8701
20884SOL    HW264094   7.772   2.793  11.838 -0.8286 -0.1259 -1.0117
20885SOL     OW64095   5.761   6.814   1.007 -0.2935  0.4862 -0.3216
20885SOL    HW164096   5.848   6.825   0.969  0.7114  1.0910  2.0048
20885SOL    HW264097   5.726   6.903   1.016 -0.4125  0.3792  0.3538
20886SOL     OW64098   5.003   0.841   9.371  0.8108  0.0383  0.2671
20886SOL    HW164099   5.098   0.853   9.376  0.6741  0.6897  1.6306
20886SOL    HW264100   4.967   0.929   9.376  0.0903 -0.2857  0.9188
20887SOL     OW64101   0.368   0.337  11.899 -0.6177  0.1102  0.1679
20887SOL    HW164102   0.336   0.347  11.989 -0.6731  2.3301 -0.0429
20887SOL    HW264103   0.289   0.339  11.845 -0.5532 -0.8409  0.0099
20888SOL     OW64104   3.358   4.406   9.911 -0.3788  0.3800 -0.1221
20888SOL    HW164105   3.305   4.405   9.831  1.0316  1.6858 -1.1414
20888SOL    HW264106   3.437   4.357   9.888 -0.2443  0.2060  0.6914
20889SOL     OW64107   0.729   6.791   7.632 -0.0543 -0.5775 -0.0081
20889SOL    HW164108   0.691   6.786   7.544 -1.0880 -1.1662  0.4677
20889SOL    HW264109   0.806   6.734   7.628  0.7378  0.4834 -0.9158
20890SOL     OW64110   7.113   2.619   5.880 -0.1979  0.4709 -0.4822
20890SOL    HW164111   7.155   2.644   5.962 -0.5870  1.5088 -0.5798
20890SOL    HW264112   7.065   2.697   5.853 -0.0035  0.1754 -1.7515
20891SOL     OW64113   0.295   6.393   8.172  1.2014 -0.9282 -0.3632
20891SOL    HW164114   0.212   6.371   8.214  1.2576 -1.7550 -0.6851
20891SOL    HW264115   0.351   6.421   8.244  0.6406 -0.3237 -0.1475
20892SOL     OW64116   0.600   2.552   8.000 -0.1297 -0.0443 -0.4860
20892SOL    HW164117   0.562   2.621   8.055  0.2798 -0.6839  0.6298
20892SOL    HW264118   0.678   2.523   8.048 -0.2147 -1.1752 -0.9970
20893SOL     OW64119   7.855   7.932   8.429  0.0421  0.1970 -0.4695
20893SOL    HW164120   7.764   7.955   8.446 -0.5779 -1.2997 -1.5837
20893SOL    HW264121   7.905   8.001   8.472 -1.5550  0.2099  1.5227
20894SOL     OW64122   5.880   1.844   5.302 -0.5532  0.3226 -0.2413
20894SOL    HW164123   5.797   1.855   5.349 -0.3108 -0.4914  0.3876
20894SOL    HW264124   5.856   1.850   5.210 -1.4835 -0.9931 -0.1039
20895SOL     OW64125   6.114   2.772   4.248 -0.1929 -0.9072 -0.4941
20895SOL    HW164126   6.153   2.807   4.168 -0.5215  0.2372 -0.1772
20895SOL    HW264127   6.123   2.677   4.240  1.9760 -0.7202 -0.7569
20896SOL     OW64128   4.906   7.272   6.457  0.6831 -1.1733  0.5109
20896SOL    HW164129   4.856   7.191   6.451 -1.4819  0.2063 -2.3715
20896SOL    HW264130   4.840   7.340   6.466  2.2778  0.4791  0.2161
20897SOL     OW64131   5.989   0.227   9.340  0.0328  0.4320 -0.0405
20897SOL    HW164132   5.946   0.312   9.328 -0.8382 -0.2813 -2.7850
20897SOL    HW264133   6.081   0.245   9.324  0.2690  1.2470  1.9100
20898SOL     OW64134   7.190   6.017   1.684  0.2693  0.1752  0.9666
20898SOL    HW164135   7.229   5.937   1.649  1.2497  1.4548 -1.0763
20898SOL    HW264136   7.265   6.072   1.707 -0.3805  0.7752  1.6817
20899SOL     OW64137   7.757   4.593   7.979  0.1024 -0.2169 -0.2580
20899SOL    HW164138   7.681   4.570   7.926  0.3544  0.0537 -0.7410
20899SOL    HW264139   7.721   4.624   8.061 -0.3343  0.5650 -0.7405
20900SOL     OW64140   4.676   5.048   9.397  0.2227  0.3222 -0.2460
20900SOL    HW164141   4.651   4.955   9.399  0.5616  0.2431  0.4270
20900SOL    HW264142   4.651   5.077   9.309 -0.7755 -0.1539 -0.1341
20901SOL     OW64143   5.409   3.777   0.824  0.2111 -0.2444 -0.2348
20901SOL    HW164144   5.406   3.733   0.739  1.1874 -1.0834  0.1490
20901SOL    HW264145   5.458   3.717   0.881  0.7507  0.9104  0.5592
20902SOL     OW64146   7.444   1.933   8.160 -0.1448 -0.1508 -0.3390
20902SOL    HW164147   7.425   2.026   8.150 -0.0093  0.1194  1.5106
20902SOL    HW264148   7.538   1.926   8.149 -0.2843 -0.2477 -1.5401
20903SOL     OW64149   0.045   5.834   2.694  0.1419  0.2847  0.4040
20903SOL    HW164150   0.077   5.924   2.702 -1.3329  0.8470  0.2836
20903SOL    HW264151  -0.042   5.835   2.732 -0.9271 -0.4858 -1.8067
20904SOL     OW64152   2.763   7.624  11.000  1.4227 -0.9022  0.2553
20904SOL    HW164153   2.848   7.642  10.959  0.3874 -0.8167 -2.0165
20904SOL    HW264154   2.699   7.648  10.933 -0.4256 -0.7457  1.9925
20905SOL     OW64155   3.058   6.339  11.617  0.6580 -0.0323  0.3270
20905SOL    HW164156   3.112   6.337  11.538  0.5772  1.8097  0.1844
20905SOL    HW264157   3.118   6.312  11.687  0.4791 -2.6530 -0.4282
20906SOL     OW64158   6.627   2.074  10.362 -0.9476  0.6246 -0.6315
20906SOL    HW164159   6.662   2.037  10.281 -0.7951 -0.6317 -0.0118
20906SOL    HW264160   6.642   2.168  10.354  1.3176  0.2875 -1.0021
20907SOL     OW64161   7.876   1.046   7.864  0.1368  0.3825 -0.2431
20907SOL    HW164162   7.829   1.096   7.797  0.5437 -1.5588 -2.0858
20907SOL    HW264163   7.967   1.050   7.837  0.3186 -0.3393  0.2472
20908SOL     OW64164   3.908   7.671   5.556  0.1975 -0.2205 -0.5607
20908SOL    HW164165   3.981   7.639   5.503 -0.0459 -2.3095  0.2694
20908SOL    HW264166   3.830   7.636   5.513 -0.0394 -1.3968  0.7530
20909SOL     OW64167   7.826   4.685   7.062 -0.1303 -0.1268  0.1657
20909SOL    HW164168   7.844   4.757   7.124  0.0932  1.3826 -1.5658
20909SOL    HW264169   7.731   4.689   7.049 -0.0498  0.2160 -0.3365
20910SOL     OW64170   0.849   5.318  12.377 -0.3964  0.1842 -0.1566
20910SOL    HW164171   0.934   5.351  12.406 -0.5732  1.9394 -1.4438
20910SOL    HW264172   0.799   5.396  12.355 -2.3215 -0.8108  0.4074
20911SOL     OW64173   2.967   0.507   6.422 -0.5740  0.0768  0.0625
20911SOL    HW164174   2.893   0.566   6.409 -1.1506 -0.4426  0.8812
20911SOL    HW264175   2.938   0.446   6.490  1.2543  1.0060  1.8008
20912SOL     OW64176   1.286   4.146   4.171  0.2435  0.5901  0.7506
20912SOL    HW164177   1.359   4.086   4.155  0.0850  0.7598 -0.7706
20912SOL    HW264178   1.209   4.100   4.138  0.0888  1.5041 -0.2580
20913SOL     OW64179   5.520   4.288   8.851 -0.1579 -0.3088  0.2893
20913SOL    HW164180   5.496   4.284   8.758  2.0433  0.7982 -0.3888
20913SOL    HW264181   5.451   4.341   8.892 -1.3263 -1.0799 -0.6205
20914SOL     OW64182   7.456   6.168   7.263 -0.0609 -0.3007  0.2080
20914SOL    HW164183   7.523   6.148   7.328 -1.5516  0.4624  2.0535
20914SOL    HW264184   7.456   6.091   7.205  1.3306 -0.9974  1.0735
20915SOL     OW64185   2.191   1.836  11.386 -0.1735 -0.1802 -0.4703
20915SOL    HW164186   2.171   1.760  11.440  0.7826 -0.1832 -0.0941
20915SOL    HW264187   2.261   1.806  11.327  0.0820  0.3517 -0.4434
20916SOL     OW64188   6.169   1.407   7.139 -0.1793 -0.2306  0.0118
20916SOL    HW164189   6.229   1.375   7.071  1.0747  0.9007  0.5508
20916SOL    HW264190   6.095   1.346   7.135  1.1171 -1.8662 -0.4850
20917SOL     OW64191   7.363   3.841  10.663 -0.1494  0.3407  0.2233
20917SOL    HW164192   7.324   3.769  10.614 -1.8305  1.4144 -0.1042
20917SOL    HW264193   7.339   3.823  10.754  1.6375 -0.8248  0.5116
20918SOL     OW64194   5.326   7.402   6.362  0.4530 -0.4217  0.2581
20918SOL    HW164195   5.396   7.343   6.392 -0.0661 -0.2925  1.7998
20918SOL    HW264196   5.245   7.354   6.379  0.1388 -0.6279 -1.6627
20919SOL     OW64197   7.715   0.951  11.001 -0.3632 -0.1982 -0.8543
20919SOL    HW164198   7.675   0.865  11.007 -2.5102  0.8114  3.2877
20919SOL    HW264199   7.799   0.942  11.046 -1.2390  0.0735  0.9217
20920SOL     OW64200   7.842   5.696   6.517 -0.5251  0.0519  0.2310
20920SOL    HW164201   7.889   5.732   6.442 -1.1310  2.1218  0.7788
20920SOL    HW264202   7.906   5.698   6.588 -1.0583  1.8719  0.7127
20921SOL     OW64203   3.383   6.334   3.154  0.3489  0.4211 -0.1103
20921SOL    HW164204   3.449   6.360   3.090  1.0506 -0.2575  0.3110
20921SOL    HW264205   3.367   6.242   3.136  0.2498  0.3298  0.4192
20922SOL     OW64206   2.457   0.773   4.443 -0.1620 -0.5653  0.6127
20922SOL    HW164207   2.381   0.719   4.419 -0.0500  0.0921 -1.3849
20922SOL    HW264208   2.531   0.713   4.441 -0.4607 -0.9686  1.4309
20923SOL     OW64209   3.764   3.038   6.355  0.0641  0.0776 -0.6717
20923SOL    HW164210   3.734   3.055   6.266  0.7504 -0.9861 -1.1283
20923SOL    HW264211   3.849   3.082   6.361  0.2454 -0.2666 -0.7078
20924SOL     OW64212   6.610   5.871   9.160 -0.4533  0.0011  0.4856
20924SOL    HW164213   6.569   5.785   9.144  0.2653 -0.7327  2.2798
20924SOL    HW264214   6.659   5.890   9.080  0.6605 -2.0634  0.5994
20925SOL     OW64215   4.649   6.762  12.166  0.0128 -0.0167 -0.2435
20925SOL    HW164216   4.641   6.854  12.191 -2.0343 -0.1716 -0.1690
20925SOL    HW264217   4.715   6.762  12.097  1.5023  1.2019  1.0964
20926SOL     OW64218   3.537   2.816   3.494 -0.1299  0.7086 -0.0875
20926SOL    HW164219   3.459   2.774   3.458  0.1109  0.9309 -0.9102
20926SOL    HW264220   3.543   2.899   3.447  1.0513  0.3347 -0.6440
20927SOL     OW64221   6.909   6.129   1.508 -0.1580 -0.1175  0.0282
20927SOL    HW164222   6.853   6.154   1.581  0.1733  0.0517  0.2257
20927SOL    HW264223   6.852   6.131   1.431 -0.3718  0.2635  0.1962
20928SOL     OW64224   6.994   0.303   8.664 -0.4464 -0.3723 -0.2147
20928SOL    HW164225   6.977   0.395   8.683  0.3784 -0.3077  0.2845
20928SOL    HW264226   6.992   0.297   8.568  0.6124  0.4066 -0.3005
20929SOL     OW64227   4.219   0.014   1.386 -0.1216 -0.3555  0.0418
20929SOL    HW164228   4.194   0.067   1.462 -1.1536 -1.6387  0.6476
20929SOL    HW264229   4.235  -0.074   1.423  0.7034 -0.6849 -1.0457
20930SOL     OW64230   6.695   3.836   0.973  0.4457  0.6058  0.5336
20930SOL    HW164231   6.673   3.827   0.880  0.6107 -0.7737  0.6089
20930SOL    HW264232   6.690   3.930   0.990  0.9953  0.9405 -1.0175
20931SOL     OW64233   2.749   2.972   1.100  0.7608  0.1442 -0.1893
20931SOL    HW164234   2.798   3.022   1.035  0.3752  0.3528 -0.3194
20931SOL    HW264235   2.817   2.927   1.151  1.1900  1.7025  0.6861
20932SOL     OW64236   3.410   7.030   1.720 -1.0457 -0.0023 -0.6077
20932SOL    HW164237   3.344   7.018   1.788 -0.1014  3.0095  1.0277
20932SOL    HW264238   3.365   7.081   1.652 -0.9020  0.6016 -0.2620
20933SOL     OW64239   1.608   4.536   0.246 -0.5826  0.2970  0.2161
20933SOL    HW164240   1.513   4.537   0.260 -0.7324  2.3156 -0.5976
20933SOL    HW264241   1.645   4.561   0.330 -0.6375 -1.7619  0.9221
20934SOL     OW64242   6.248   5.137   4.569 -0.3048 -0.2493  0.1874
20934SOL    HW164243   6.217   5.227   4.559  0.5259 -0.1605 -2.3240
20934SOL    HW264244   6.171   5.083   4.554 -0.4790  0.0337  0.0660
20935SOL     OW64245   5.428   5.972   9.150  0.2860 -1.0577  0.1864
20935SOL    HW164246   5.366   5.914   9.195 -0.1991  0.7499  1.9762
20935SOL    HW264247   5.505   5.973   9.207  0.1360  0.3184  0.3953
20936SOL     OW64248   5.273   7.948  11.852 -0.6176  0.4763 -0.2724
20936SOL    HW164249   5.188   7.909  11.875 -1.5222  1.4790 -1.7287
20936SOL    HW264250   5.337   7.879  11.870 -2.0172 -1.2551 -1.5800
20937SOL     OW64251   7.375   3.020   2.351  0.5437 -0.1739 -0.1839
20937SOL    HW164252   7.405   2.939   2.309  1.5460  0.2324 -0.2806
20937SOL    HW264253   7.364   2.997   2.443  0.4013 -0.5220 -0.2857
20938SOL     OW64254   1.645   2.498   7.648 -0.4544 -0.1050  0.4691
20938SOL    HW164255   1.660   2.583   7.689 -0.2903 -0.7811  1.8439
20938SOL    HW264256   1.642   2.518   7.554 -1.2502  1.5342  0.8035
20939SOL     OW64257   6.002   1.755   7.502  0.2157  0.1082  0.0754
20939SOL    HW164258   6.059   1.699   7.449 -0.7764 -0.7941 -0.0856
20939SOL    HW264259   5.972   1.823   7.442 -0.1434 -0.3554 -0.2800
20940SOL     OW64260   7.539   2.945  10.413 -0.1429  0.1567 -0.4330
20940SOL    HW164261   7.482   2.961  10.488  0.0162 -2.2395  0.2767
20940SOL    HW264262   7.614   3.003  10.426 -0.7120  0.6857  0.5808
20941SOL     OW64263   2.999   1.518   0.747 -0.4704  0.1531 -0.4128
20941SOL    HW164264   3.020   1.608   0.773 -0.4718 -0.2946  1.2630
20941SOL    HW264265   2.907   1.508   0.770 -0.6658 -0.0540 -1.2760
20942SOL     OW64266   0.675   0.217   9.630  0.1270  0.1338  0.5543
20942SOL    HW164267   0.766   0.209   9.600  0.5630  0.9873  1.5864
20942SOL    HW264268   0.625   0.165   9.567  1.1680  0.6315 -0.7470
20943SOL     OW64269   7.647   2.326   4.847 -0.0117  0.8686  0.1758
20943SOL    HW164270   7.575   2.309   4.907  0.5594 -0.2120  0.5814
20943SOL    HW264271   7.725   2.321   4.901  0.3406  3.6505  0.0871
20944SOL     OW64272   3.625   7.019   2.850  0.0568 -0.1289  0.0828
20944SOL    HW164273   3.709   7.057   2.877  1.9307 -1.3021 -3.3767
20944SOL    HW264274   3.621   6.935   2.895  0.1757  0.3854  1.0851
20945SOL     OW64275   7.934   4.940   8.357 -0.2022  0.1493 -0.2971
20945SOL    HW164276   8.028   4.960   8.351 -0.5379  1.5802 -1.4282
20945SOL    HW264277   7.913   4.900   8.273 -0.5468 -0.4865  0.0906
20946SOL     OW64278   0.570   4.565   0.585 -0.7637  0.2565 -0.4508
20946SOL    HW164279   0.577   4.501   0.514 -1.0134 -0.9024  0.5399
20946SOL    HW264280   0.476   4.582   0.594 -0.8813 -0.8611  0.6659
20947SOL     OW64281   7.544   0.216   5.255  0.2666 -0.2644 -0.2378
20947SOL    HW164282   7.528   0.292   5.311 -0.6887 -1.1254  0.7031
20947SOL    HW264283   7.506   0.240   5.170  1.2431  0.8435 -0.3793
20948SOL     OW64284   0.276   5.133  12.193  0.4617  0.1537  0.0521
20948SOL    HW164285   0.346   5.175  12.143 -1.2981  3.8844  0.4146
20948SOL    HW264286   0.301   5.145  12.285 -0.5298  1.3743  0.1804
20949SOL     OW64287   1.039   2.186   6.668  0.3133 -0.1510 -0.2979
20949SOL    HW164288   1.110   2.191   6.604  0.1322  0.8383 -0.4255
20949SOL    HW264289   1.080   2.210   6.751  1.0350 -3.3260  0.4154
20950SOL     OW64290   7.615   3.974   4.983 -0.5023 -0.3014 -0.0866
20950SOL    HW164291   7.555   4.029   4.933  0.0794 -0.7757 -1.3670
20950SOL    HW264292   7.700   3.985   4.939 -0.0835 -1.1615  0.4694
20951SOL     OW64293   2.633   5.103   3.261  0.0472 -0.4936 -0.0793
20951SOL    HW164294   2.581   5.026   3.239 -0.4194 -0.2275  0.0841
20951SOL    HW264295   2.701   5.106   3.194  0.5056 -1.4602  0.3182
20952SOL     OW64296   5.713   7.256   6.148 -0.1197  0.6338 -0.1727
20952SOL    HW164297   5.721   7.293   6.236  0.5062  0.9067 -0.3358
20952SOL    HW264298   5.798   7.214   6.132 -0.7010 -0.6102 -0.1159
20953SOL     OW64299   1.713   2.326  11.118 -0.2317 -0.2042 -0.5375
20953SOL    HW164300   1.766   2.331  11.197 -0.7568  2.7620 -0.2373
20953SOL    HW264301   1.627   2.360  11.145 -0.6161  0.2501 -2.2026
20954SOL     OW64302   5.636   5.893   8.496 -0.3134  0.9457 -0.0289
20954SOL    HW164303   5.642   5.921   8.405  0.2631 -1.4579 -0.7961
20954SOL    HW264304   5.548   5.856   8.504  0.6677 -1.7467 -0.5987
20955SOL     OW64305   2.490   6.103   2.001 -0.1124  0.2616  0.1600
20955SOL    HW164306   2.461   6.054   2.077  0.7507  1.5636  1.3783
20955SOL    HW264307   2.435   6.071   1.929  0.5723 -2.6455  0.8006
20956SOL     OW64308   7.176   1.398   8.786  0.3550 -0.3408 -0.4057
20956SOL    HW164309   7.172   1.331   8.717 -0.5161 -0.1264 -0.5654
20956SOL    HW264310   7.188   1.347   8.867 -0.5720 -0.7212 -0.4929
20957SOL     OW64311   3.379   0.476   3.935  0.1532 -0.3707 -0.0658
20957SOL    HW164312   3.428   0.401   3.901  0.7856  0.4579 -1.0577
20957SOL    HW264313   3.442   0.524   3.989 -0.0281 -0.1757 -0.0256
20958SOL     OW64314   2.562   7.527   0.048  0.3147 -0.0766 -0.1277
20958SOL    HW164315   2.483   7.476   0.031 -0.8062  1.8646 -1.0376
20958SOL    HW264316   2.593   7.495   0.133 -0.5565 -1.9093 -0.4359
20959SOL     OW64317   6.102   7.817  10.106  1.1065  0.2239 -0.2918
20959SOL    HW164318   6.105   7.880  10.178 -0.4235 -0.1821  0.1800
20959SOL    HW264319   6.014   7.827  10.070  0.6999 -1.8463  0.0078
20960SOL     OW64320   0.411   1.048   3.275 -0.0457  0.0530 -0.7886
20960SOL    HW164321   0.333   0.996   3.255 -0.5547  0.9765 -1.3282
20960SOL    HW264322   0.465   1.043   3.197 -0.2422  0.5638 -0.9654
20961SOL     OW64323   0.353   0.615   0.028 -0.0862 -0.9946  0.5658
20961SOL    HW164324   0.288   0.629  -0.040 -0.1370  0.4062  0.8631
20961SOL    HW264325   0.415   0.553  -0.010 -0.1323 -0.2774 -0.7364
20962SOL     OW64326   5.525   7.466   4.414 -0.1105  0.2795  0.2277
20962SOL    HW164327   5.577   7.413   4.474  2.6097  1.3125 -1.0530
20962SOL    HW264328   5.495   7.540   4.467  0.0384 -0.1523  0.9264
20963SOL     OW64329   7.255   4.999   5.189 -0.6089  0.6110 -0.0370
20963SOL    HW164330   7.246   4.951   5.272  3.4854  0.9017  0.7992
20963SOL    HW264331   7.260   5.091   5.215 -0.3627  0.7977 -0.7292
20964SOL     OW64332   5.128   6.011  12.468  0.5819  0.0939 -0.3180
20964SOL    HW164333   5.071   5.943  12.504  0.4365  1.9963  3.5640
20964SOL    HW264334   5.213   5.968  12.458  0.0440 -1.1443  0.1991
20965SOL     OW64335   3.922   0.354   8.159  0.8585 -1.1065 -0.4960
20965SOL    HW164336   3.984   0.380   8.091  0.7780  1.5117  0.3009
20965SOL    HW264337   3.847   0.412   8.146 -0.5860 -2.8348 -0.1832
20966SOL     OW64338   6.897   3.547   4.497 -0.1902 -0.1486 -0.0547
20966SOL    HW164339   6.819   3.494   4.510  0.4903 -1.2216 -0.2023
20966SOL    HW264340   6.925   3.528   4.408  0.5704 -0.2401  0.1951
20967SOL     OW64341   6.588   6.758  12.113  0.4546  1.1470 -0.3127
20967SOL    HW164342   6.560   6.755  12.204  1.7216  1.4941  0.1037
20967SOL    HW264343   6.566   6.846  12.084 -0.9402  0.7039 -0.6988
20968SOL     OW64344   2.175   1.813   3.035  0.2792  0.1004  0.0730
20968SOL    HW164345   2.155   1.747   3.101 -0.2948  0.4625  0.2710
20968SOL    HW264346   2.262   1.790   3.003  0.2236 -0.5494  0.3823
20969SOL     OW64347   4.219   0.484   6.037  0.5064 -0.3815  0.2629
20969SOL    HW164348   4.130   0.495   6.070 -0.1747 -0.2256 -1.5399
20969SOL    HW264349   4.220   0.395   6.001  1.2102 -0.5222  0.6066
20970SOL     OW64350   7.482   4.290  11.101 -0.0810 -0.0401  0.3329
20970SOL    HW164351   7.498   4.378  11.137  0.5101 -0.9285  2.3828
20970SOL    HW264352   7.511   4.297  11.010  0.9274  1.6301  0.7185
20971SOL     OW64353   6.956   1.324   9.137  0.3597  0.6975  0.5182
20971SOL    HW164354   6.883   1.321   9.199 -0.3676 -1.9243 -0.3240
20971SOL    HW264355   7.033   1.309   9.191  0.0606  1.4045  1.1567
20972SOL     OW64356   2.614   3.465   7.095  0.3621  0.2927  0.3033
20972SOL    HW164357   2.596   3.444   7.003 -0.3893  1.7257  0.0944
20972SOL    HW264358   2.664   3.390   7.127 -0.3691 -0.7805 -0.9438
20973SOL     OW64359   1.824   0.697   0.007 -0.2977  0.5941 -0.8506
20973SOL    HW164360   1.731   0.719  -0.005 -0.7655 -0.9154 -0.2235
20973SOL    HW264361   1.856   0.679  -0.081 -0.8489  0.2517 -0.9859
20974SOL     OW64362   1.321   5.810   6.818 -0.0531 -0.0377  0.0110
20974SOL    HW164363   1.378   5.880   6.851 -0.9395  1.1565 -0.9330
20974SOL    HW264364   1.380   5.735   6.806  1.6699  1.5421 -2.2715
20975SOL     OW64365   3.881   5.368   8.799 -0.0294 -0.7695 -0.6720
20975SOL    HW164366   3.916   5.282   8.824 -0.2489 -0.6443  0.0878
20975SOL    HW264367   3.930   5.392   8.720  0.4143 -1.3521 -0.5801
20976SOL     OW64368   0.944   2.119   0.273  0.1641 -0.2466  0.2094
20976SOL    HW164369   0.943   2.162   0.188 -0.7969 -1.7695 -0.5813
20976SOL    HW264370   0.859   2.140   0.312  0.5333  0.3025  0.7461
20977SOL     OW64371   4.370   0.675   6.706 -0.8393  0.2524  0.2963
20977SOL    HW164372   4.287   0.627   6.698 -0.8616  0.4326 -0.6502
20977SOL    HW264373   4.371   0.734   6.631 -0.2051  0.8118  0.7351
20978SOL     OW64374   3.074   2.493  12.458  0.3035 -0.5899  0.4714
20978SOL    HW164375   3.160   2.496  12.416  0.8773 -0.6664  1.5789
20978SOL    HW264376   3.013   2.470  12.388  1.3518 -1.7261 -0.1147
20979SOL     OW64377   1.490   1.105   1.573 -0.3776  0.0235  0.0199
20979SOL    HW164378   1.571   1.056   1.557  0.6018  1.2457  1.0449
20979SOL    HW264379   1.509   1.194   1.543 -1.7666  0.0698 -0.8317
20980SOL     OW64380   0.195   4.806  10.155 -0.1037 -0.3420 -0.2130
20980SOL    HW164381   0.266   4.790  10.218  0.5063  1.6567 -0.3213
20980SOL    HW264382   0.153   4.721  10.144  2.9503 -1.8849 -0.9836
20981SOL     OW64383   4.055   1.129  12.003  0.3938  0.6156  0.5059
20981SOL    HW164384   3.981   1.155  12.058  0.3473 -0.1171  0.8030
20981SOL    HW264385   4.016   1.114  11.917  0.3165  0.9192  0.4878
20982SOL     OW64386   3.913   2.342   4.213  0.8475  0.0886 -0.8086
20982SOL    HW164387   3.942   2.373   4.299  1.4261  0.7964 -1.2462
20982SOL    HW264388   3.838   2.397   4.191 -0.2029 -1.0488 -0.1365
20983SOL     OW64389   0.930   3.694   1.101 -0.7962  0.1631 -0.8261
20983SOL    HW164390   0.840   3.693   1.132 -0.6952 -0.4599 -0.5343
20983SOL    HW264391   0.975   3.755   1.159 -0.7664 -0.4491 -0.1893
20984SOL     OW64392   1.344   3.180   6.646 -0.8739 -0.1147 -0.0406
20984SOL    HW164393   1.316   3.097   6.608 -0.2213  0.2273 -1.3412
20984SOL    HW264394   1.384   3.157   6.729 -0.5491 -1.1333 -0.4629
20985SOL     OW64395   0.601   4.294   8.334  0.1753  0.3707  0.0169
20985SOL    HW164396   0.563   4.261   8.416  1.3462 -0.7933  0.1212
20985SOL    HW264397   0.655   4.222   8.302  0.0076  0.9349 -1.6198
20986SOL     OW64398   0.253   6.432   5.171 -0.2813  0.1303 -0.1862
20986SOL    HW164399   0.331   6.434   5.116  0.1834 -0.0219  0.4586
20986SOL    HW264400   0.261   6.352   5.223 -0.8351  0.1446 -0.0653
20987SOL     OW64401   6.669   6.044   9.595 -0.3591  0.2692  0.1132
20987SOL    HW164402   6.763   6.043   9.610 -0.2451  0.7799 -0.5406
20987SOL    HW264403   6.652   6.127   9.551 -0.7076 -0.9806 -2.2597
20988SOL     OW64404   5.621   2.678   1.994  0.2532  0.0324 -0.4254
20988SOL    HW164405   5.663   2.622   1.928 -0.9475 -0.8881 -0.4584
20988SOL    HW264406   5.685   2.685   2.065  1.1072  0.0726 -1.1873
20989SOL     OW64407   1.044   6.057   3.454 -0.0008 -0.0685  0.6313
20989SOL    HW164408   1.018   6.137   3.409 -1.3262 -0.8191  0.0070
20989SOL    HW264409   1.035   6.077   3.547  1.6989  1.1463  0.5818
20990SOL     OW64410   7.752   2.760   2.517 -0.2016 -0.1667  0.5181
20990SOL    HW164411   7.830   2.732   2.469  0.1780 -0.1795  1.1353
20990SOL    HW264412   7.679   2.732   2.462  0.2174  2.3308 -1.4905
20991SOL     OW64413   1.647   3.038   3.707 -0.0388  0.0595 -0.5233
20991SOL    HW164414   1.712   3.080   3.763 -0.1744  1.4320 -1.3307
20991SOL    HW264415   1.692   2.964   3.667  0.8299  0.6016 -0.5631
20992SOL     OW64416   5.171   2.979   1.046  0.0440 -0.6817 -0.6456
20992SOL    HW164417   5.243   3.019   1.095  1.2060 -3.1247 -0.2312
20992SOL    HW264418   5.096   3.035   1.065  0.8855 -0.4089  2.3816
20993SOL     OW64419   6.094   0.250   7.507  0.5542 -0.4897  0.2414
20993SOL    HW164420   6.137   0.165   7.503 -1.0089 -1.3250  0.3733
20993SOL    HW264421   6.085   0.269   7.600 -0.5726 -0.9935  0.2537
20994SOL     OW64422   6.635   2.010   3.688  0.4728 -0.5344 -0.1019
20994SOL    HW164423   6.539   2.015   3.696  0.3836 -0.5157 -1.0559
20994SOL    HW264424   6.667   2.031   3.776 -0.4088 -1.0505  0.3589
20995SOL     OW64425   6.214   6.299   9.129  0.6962  0.7404 -0.1145
20995SOL    HW164426   6.259   6.216   9.144  0.0975  0.9008  3.2414
20995SOL    HW264427   6.125   6.273   9.103  0.6810  0.3201  0.3429
20996SOL     OW64428   0.260   3.901   2.962 -0.0150  0.3604  0.4636
20996SOL    HW164429   0.237   3.895   2.870  3.3547 -2.1694 -0.3914
20996SOL    HW264430   0.326   3.970   2.966 -0.3377  0.6487  1.0750
20997SOL     OW64431   0.460   7.248   9.553 -0.2988 -0.4357 -0.1334
20997SOL    HW164432   0.422   7.270   9.468 -1.3283 -0.3215  0.3466
20997SOL    HW264433   0.385   7.243   9.612  0.6098  2.3430  1.4128
20998SOL     OW64434   2.722   4.861  10.800  0.2969  0.2581 -0.1422
20998SOL    HW164435   2.639   4.867  10.847  0.5163 -1.3140  0.5048
20998SOL    HW264436   2.727   4.942  10.749 -1.2019  0.7806  0.4964
20999SOL     OW64437   6.435   6.150   7.753 -0.0484 -0.6585  0.2668
20999SOL    HW164438   6.459   6.058   7.759 -0.1773 -0.6535  0.9746
20999SOL    HW264439   6.362   6.160   7.815  0.1344 -0.0348  0.3892
21000SOL     OW64440   3.519   5.582   2.740 -0.1903 -0.2495 -0.8864
21000SOL    HW164441   3.592   5.563   2.799 -1.7513 -3.0374  0.3629
21000SOL    HW264442   3.559   5.594   2.655  1.7886 -0.8999 -0.1013
21001SOL     OW64443   1.322   5.072   7.926 -0.8742  0.4225 -0.4832
21001SOL    HW164444   1.372   4.996   7.898  0.9152  1.3516  0.0074
21001SOL    HW264445   1.346   5.141   7.864 -0.0993  1.3710  0.8136
21002SOL     OW64446   2.382   5.742   3.164  0.5852  0.1683 -0.4847
21002SOL    HW164447   2.460   5.688   3.175  0.8444 -0.3726 -3.8812
21002SOL    HW264448   2.361   5.773   3.252  2.5308 -2.5306  1.0602
21003SOL     OW64449   5.853   1.640  12.347 -0.5741 -0.3983 -0.5189
21003SOL    HW164450   5.854   1.631  12.442 -2.4911 -0.6574 -0.4827
21003SOL    HW264451   5.861   1.734  12.332 -0.3046 -0.3508 -0.0946
21004SOL     OW64452   3.864   1.701   0.721  0.0907  0.3210 -0.3361
21004SOL    HW164453   3.843   1.650   0.800 -0.7128  0.6290 -0.3354
21004SOL    HW264454   3.958   1.688   0.708  0.1443 -0.1079  0.4054
21005SOL     OW64455   7.728   5.973   2.580 -0.5920  0.0162  0.3551
21005SOL    HW164456   7.822   5.971   2.562 -0.4359 -0.7643  1.2229
21005SOL    HW264457   7.721   6.020   2.663 -0.9707 -0.0094  0.3380
21006SOL     OW64458   6.791   6.023   0.768  0.1088  1.2348  0.4447
21006SOL    HW164459   6.882   6.001   0.747 -0.8891 -2.4478 -0.8561
21006SOL    HW264460   6.777   5.987   0.855 -0.2881  1.1532  0.3480
21007SOL     OW64461   4.466   4.476  10.528  0.3929  0.0617 -0.0690
21007SOL    HW164462   4.403   4.507  10.464  3.2233  2.0390 -2.1286
21007SOL    HW264463   4.461   4.380  10.522 -1.5536  0.1719 -0.9289
21008SOL     OW64464   6.127   0.638   1.504  0.6542  0.4018  0.1445
21008SOL    HW164465   6.141   0.579   1.430  0.1756  0.7602 -0.2485
21008SOL    HW264466   6.175   0.599   1.576  1.5740  0.3186 -0.4974
21009SOL     OW64467   6.650   3.344   7.448  0.5777  0.3010  1.0438
21009SOL    HW164468   6.561   3.342   7.482  1.2388 -0.0601  2.8786
21009SOL    HW264469   6.650   3.416   7.385 -1.4381 -0.8169 -0.3536
21010SOL     OW64470   4.143   1.599   0.260 -0.0443 -0.0555  0.3982
21010SOL    HW164471   4.203   1.555   0.321 -0.3558 -0.9221  0.0897
21010SOL    HW264472   4.172   1.570   0.174 -1.3191 -1.0219  0.2757
21011SOL     OW64473   4.435   0.367   1.940 -0.2328  0.2517 -0.1063
21011SOL    HW164474   4.339   0.367   1.940 -0.2347 -0.0863 -0.0086
21011SOL    HW264475   4.459   0.282   1.977  0.1173  1.1458  1.8570
21012SOL     OW64476   3.076   4.161   0.784  0.0204 -0.3284 -0.4330
21012SOL    HW164477   3.110   4.187   0.869 -0.5088 -0.1871 -0.2617
21012SOL    HW264478   3.151   4.170   0.724 -0.1434  1.6812 -0.4083
21013SOL     OW64479   6.120   2.000   5.748  0.0551 -0.5277 -0.4104
21013SOL    HW164480   6.137   1.906   5.737 -0.1234 -0.5694 -0.3470
21013SOL    HW264481   6.202   2.036   5.781  0.4754 -0.4719 -1.4598
21014SOL     OW64482   2.889   1.901   4.046  0.1979  0.1991 -0.2293
21014SOL    HW164483   2.850   1.976   4.002  1.0843  0.1608 -1.1144
21014SOL    HW264484   2.840   1.892   4.128 -0.4904  1.1927 -0.5259
21015SOL     OW64485   5.975   3.244   7.729 -0.3906 -0.0896 -0.4701
21015SOL    HW164486   6.052   3.259   7.784  0.5737  0.7500 -1.9852
21015SOL    HW264487   5.997   3.166   7.678 -0.2131  0.5684 -1.4224
21016SOL     OW64488   7.216   3.589   4.290  0.0927 -0.5571  0.2351
21016SOL    HW164489   7.244   3.621   4.376 -0.6573 -0.2376  0.3732
21016SOL    HW264490   7.292   3.544   4.255  0.0403 -1.7639  1.5896
21017SOL     OW64491   5.879   6.169  11.458  0.0584 -0.0869 -0.4549
21017SOL    HW164492   5.910   6.079  11.461 -0.4085 -0.2938 -1.3275
21017SOL    HW264493   5.784   6.161  11.467  0.0434  0.3345 -0.2573
21018SOL     OW64494   0.996   7.020  10.958 -0.5217  0.3787 -0.0725
21018SOL    HW164495   1.033   7.000  11.044  1.1180 -0.0448 -0.8296
21018SOL    HW264496   0.921   6.962  10.950 -0.7487  0.4856  1.0944
21019SOL     OW64497   7.082   6.460   4.842  0.5102  0.2023 -0.0249
21019SOL    HW164498   7.013   6.468   4.776  1.1736  0.8293 -0.6616
21019SOL    HW264499   7.159   6.432   4.792  0.5652 -1.1996  0.7736
21020SOL     OW64500   0.858   7.648   8.550 -0.3922 -0.2294 -0.2657
21020SOL    HW164501   0.820   7.561   8.565 -1.8824  0.5670  0.9322
21020SOL    HW264502   0.806   7.684   8.477 -0.3063 -0.0485 -0.2381
21021SOL     OW64503   0.866   7.667   6.977 -0.3056 -0.1030 -0.3820
21021SOL    HW164504   0.961   7.681   6.982  0.0418 -2.5665  2.9896
21021SOL    HW264505   0.852   7.625   6.893  1.9911 -1.7485 -0.0281
21022SOL     OW64506   3.835   6.849   8.971 -0.2617  0.4276 -0.0136
21022SOL    HW164507   3.909   6.901   8.938  0.1749 -0.6816 -0.8876
21022SOL    HW264508   3.876   6.769   9.003 -1.1204 -0.5360 -1.2213
21023SOL     OW64509   0.468   0.133  11.470 -0.2021 -0.0971 -0.2663
21023SOL    HW164510   0.485   0.062  11.532  2.9867 -0.9789 -1.8864
21023SOL    HW264511   0.461   0.211  11.524 -0.2855 -1.1700  1.3528
21024SOL     OW64512   5.314   0.817  12.226 -0.0920  0.3467 -0.6121
21024SOL    HW164513   5.375   0.774  12.165 -0.9290 -1.3812 -0.2952
21024SOL    HW264514   5.262   0.875  12.170  0.5367  0.3688 -1.1931
21025SOL     OW64515   6.504   2.967   5.885 -0.2187  0.3400 -0.4689
21025SOL    HW164516   6.488   2.990   5.793 -1.3524  1.3884 -0.0277
21025SOL    HW264517   6.575   3.026   5.912 -0.6294  0.7887 -0.3668
21026SOL     OW64518   1.860   7.695   6.169  0.2257  0.0158 -0.4727
21026SOL    HW164519   1.876   7.788   6.158  1.7617 -0.3180 -1.2531
21026SOL    HW264520   1.841   7.663   6.081 -3.1303  0.0270  0.1209
21027SOL     OW64521   4.339   5.489   7.516  0.3324 -0.2197 -0.1247
21027SOL    HW164522   4.316   5.435   7.591  1.3815 -1.9757 -1.0202
21027SOL    HW264523   4.433   5.504   7.525  0.2656  0.5001 -0.5174
21028SOL     OW64524   4.497   3.009   3.866  0.5351 -0.4511 -0.0403
21028SOL    HW164525   4.539   2.996   3.951  0.9207  0.0931 -0.1388
21028SOL    HW264526   4.562   3.057   3.814  0.0040 -0.0835 -0.3783
21029SOL     OW64527   7.694   7.519   7.014  0.0069 -0.2639  0.4299
21029SOL    HW164528   7.697   7.489   6.924 -1.0615  1.1965 -0.1350
21029SOL    HW264529   7.645   7.451   7.061 -0.5473 -0.4113 -0.3577
21030SOL     OW64530   5.840   1.549   5.330 -0.5233 -0.2592 -0.2971
21030SOL    HW164531   5.780   1.565   5.402 -0.9103 -0.8359 -0.4782
21030SOL    HW264532   5.877   1.635   5.309 -1.7264  0.2201 -0.5646
21031SOL     OW64533   2.293   7.395  10.078  0.1128 -0.0547  0.0307
21031SOL    HW164534   2.370   7.381  10.022  1.4355  0.1184  1.7318
21031SOL    HW264535   2.280   7.311  10.122  0.6396  0.5056  1.2985
21032SOL     OW64536   0.268   2.405   6.232  0.1591 -0.4663 -0.0435
21032SOL    HW164537   0.258   2.310   6.237 -1.1192 -0.3201  0.7911
21032SOL    HW264538   0.193   2.439   6.281  0.8841  0.9659  0.1221
21033SOL     OW64539   0.861   1.188   5.960  0.0746 -0.1536  0.5388
21033SOL    HW164540   0.821   1.132   5.893 -0.9720  0.8643  0.2942
21033SOL    HW264541   0.791   1.203   6.024  0.2086  1.2303  0.3751
21034SOL     OW64542   4.420   1.528   6.651  0.1038 -0.3159 -0.4413
21034SOL    HW164543   4.359   1.600   6.664 -0.6284 -0.8696 -0.7843
21034SOL    HW264544   4.397   1.464   6.718  2.1226  0.6368  1.2681
21035SOL     OW64545   4.352   1.857   6.274  0.5203 -0.0849  0.1570
21035SOL    HW164546   4.370   1.874   6.366 -0.7722 -0.5354  0.5075
21035SOL    HW264547   4.354   1.944   6.233  2.9357 -0.0393  0.2122
21036SOL     OW64548   2.943   2.495   8.007 -0.0453 -0.1531 -0.0878
21036SOL    HW164549   2.866   2.465   8.056  0.6266  0.9305  1.7406
21036SOL    HW264550   2.910   2.565   7.950 -0.4157  0.4198  0.8056
21037SOL     OW64551   3.688   6.183   1.209  0.3456  0.2085 -0.1128
21037SOL    HW164552   3.597   6.210   1.217  0.2300 -0.4026  0.7984
21037SOL    HW264553   3.726   6.199   1.296  0.5343 -1.5251  0.1622
21038SOL     OW64554   5.808   4.128   3.219  0.7293  0.0150  0.5755
21038SOL    HW164555   5.845   4.191   3.157 -2.1066  0.4924 -0.7844
21038SOL    HW264556   5.735   4.087   3.172  0.1606 -1.6020  2.6942
21039SOL     OW64557   5.054   5.893   0.857 -0.5730  0.0675 -0.3944
21039SOL    HW164558   4.959   5.899   0.850 -0.6988 -1.8680 -0.9859
21039SOL    HW264559   5.086   5.979   0.830 -2.2062  1.7201  2.4468
21040SOL     OW64560   4.909   1.368   7.361 -0.6682 -0.1934  0.4365
21040SOL    HW164561   4.846   1.297   7.345 -1.2998  0.6930 -1.2840
21040SOL    HW264562   4.869   1.421   7.429 -1.0157 -0.5471  0.5098
21041SOL     OW64563   6.612   5.224   0.358  0.2204 -0.7298 -0.3015
21041SOL    HW164564   6.701   5.251   0.376 -0.1967 -0.3006  1.2521
21041SOL    HW264565   6.590   5.267   0.275  0.8963  0.5382  0.1476
21042SOL     OW64566   3.810   0.802   2.127  0.6521  0.3257 -0.2051
21042SOL    HW164567   3.813   0.791   2.222  1.1399  0.2609 -0.2266
21042SOL    HW264568   3.717   0.812   2.108  0.4483 -0.6571  0.1657
21043SOL     OW64569   2.495   5.244   5.745 -0.1194  0.0377 -0.1844
21043SOL    HW164570   2.580   5.278   5.720 -0.6147  1.2044 -0.3251
21043SOL    HW264571   2.476   5.286   5.829  0.2093 -1.5741  0.7608
21044SOL     OW64572   3.853   3.283   2.259 -0.6605  0.3407 -0.4752
21044SOL    HW164573   3.865   3.372   2.293 -4.1977  0.3322  1.2455
21044SOL    HW264574   3.928   3.234   2.293  0.0016  2.1069  0.7713
21045SOL     OW64575   0.087   0.221  10.048 -0.0854  0.4756 -0.1307
21045SOL    HW164576   0.161   0.275  10.075 -1.3597  0.4134  4.0876
21045SOL    HW264577   0.090   0.145  10.106 -2.4419 -0.4326 -1.0819
21046SOL     OW64578   4.497   5.854   3.166  0.1015 -0.0163 -0.2779
21046SOL    HW164579   4.559   5.919   3.198 -1.1596  1.8753 -1.5454
21046SOL    HW264580   4.420   5.864   3.222 -1.4346  2.0851 -2.5783
21047SOL     OW64581   7.846   5.877  12.432  0.0583  0.0152 -0.1753
21047SOL    HW164582   7.797   5.925  12.365  0.8200 -1.4637 -1.9008
21047SOL    HW264583   7.880   5.800  12.385  0.3654 -1.2613  2.0119
21048SOL     OW64584   7.909   1.489   5.258  0.2050 -0.1087 -0.3443
21048SOL    HW164585   7.863   1.476   5.176  0.6899 -0.3084 -0.5920
21048SOL    HW264586   7.850   1.542   5.312 -0.5675 -0.8668 -0.4219
21049SOL     OW64587   0.309   3.134  10.504 -0.3044  0.0204 -0.1106
21049SOL    HW164588   0.258   3.174  10.575 -0.8780 -0.9264  0.0286
21049SOL    HW264589   0.267   3.049  10.490 -1.0264  0.6894 -2.4443
21050SOL     OW64590   0.054   7.404   7.377  0.2400 -0.0425 -0.2017
21050SOL    HW164591   0.078   7.492   7.405 -0.9426 -0.1852  1.4513
21050SOL    HW264592  -0.010   7.375   7.443  0.5033 -2.0853 -0.7761
21051SOL     OW64593   6.395   3.381  10.969  0.5672 -0.1252  0.0235
21051SOL    HW164594   6.301   3.389  10.954  0.1219 -2.1372  1.3540
21051SOL    HW264595   6.416   3.293  10.936  1.5736 -0.4731  1.5305
21052SOL     OW64596   5.196   7.859   2.018 -0.0625 -0.7240 -0.1799
21052SOL    HW164597   5.153   7.944   2.005  0.2519 -0.7237 -1.3087
21052SOL    HW264598   5.194   7.818   1.932  1.9532 -0.8493 -0.2045
21053SOL     OW64599   0.940   3.440  11.160  0.2343 -0.3502 -0.3011
21053SOL    HW164600   0.986   3.506  11.213 -0.7412  1.4566 -1.6105
21053SOL    HW264601   0.984   3.443  11.075 -1.2753  0.3295 -1.0944
21054SOL     OW64602   4.657   5.030   2.431  0.1649  0.4400  0.4195
21054SOL    HW164603   4.700   5.033   2.346 -0.4595  2.3354  0.1073
21054SOL    HW264604   4.711   4.973   2.484  0.4802 -0.9024 -1.2812
21055SOL     OW64605   6.841   0.769   2.761 -0.3108 -0.1754  0.4950
21055SOL    HW164606   6.897   0.692   2.771 -0.0508  0.1073  1.2885
21055SOL    HW264607   6.752   0.735   2.771 -0.1867 -0.3404  1.0696
21056SOL     OW64608   7.140   2.671   0.946 -0.2722 -0.1107  0.1967
21056SOL    HW164609   7.234   2.682   0.960  0.1029 -0.4405 -1.7611
21056SOL    HW264610   7.105   2.760   0.944 -0.0400  0.0081  1.0416
21057SOL     OW64611   3.359   7.179   6.807 -0.0437 -0.3197  0.3643
21057SOL    HW164612   3.370   7.199   6.714 -0.7421 -1.8495 -0.0880
21057SOL    HW264613   3.287   7.235   6.835 -1.7473 -1.7929 -0.7844
21058SOL     OW64614   6.817   1.691   5.081 -0.4177  0.5082  0.7649
21058SOL    HW164615   6.781   1.728   5.161 -1.3113  0.6559  0.3110
21058SOL    HW264616   6.740   1.669   5.028  0.1586  0.5564 -0.1175
21059SOL     OW64617   6.063   3.457  10.175  0.1005  0.2573  0.2645
21059SOL    HW164618   5.987   3.399  10.175 -0.1670  0.6004 -0.4155
21059SOL    HW264619   6.085   3.468  10.083  2.5494 -1.8487  0.4751
21060SOL     OW64620   0.664   3.953  11.715  0.6458 -0.8336  0.0616
21060SOL    HW164621   0.723   3.879  11.729  3.4642  1.3222  0.5198
21060SOL    HW264622   0.638   3.980  11.803  0.0192 -0.9425 -0.0821
21061SOL     OW64623   7.719   0.987   6.708 -0.0771 -0.0804  0.0117
21061SOL    HW164624   7.697   0.915   6.649 -0.6745 -0.4832  0.7106
21061SOL    HW264625   7.688   1.066   6.664 -0.8230 -0.4148 -0.0580
21062SOL     OW64626   2.990   0.311   5.345  0.2158  0.3261  0.3366
21062SOL    HW164627   3.071   0.348   5.378  0.2858  1.0946 -0.6629
21062SOL    HW264628   2.921   0.360   5.390  0.3087  0.8503 -0.0885
21063SOL     OW64629   2.183   0.797   8.280 -0.0020 -0.3449 -0.0004
21063SOL    HW164630   2.155   0.797   8.188  1.6908 -0.0891 -0.5569
21063SOL    HW264631   2.194   0.705   8.302  1.5986 -0.3754 -0.7544
21064SOL     OW64632   5.301   0.998   8.855 -0.6300 -0.4424  0.2600
21064SOL    HW164633   5.314   0.913   8.895  0.8498  0.1484  1.1178
21064SOL    HW264634   5.383   1.045   8.870 -1.7911  1.5450  0.8364
21065SOL     OW64635   1.182   7.444   6.379 -0.2340 -0.0182  0.1110
21065SOL    HW164636   1.209   7.430   6.470  1.7386  1.0233 -0.2567
21065SOL    HW264637   1.127   7.522   6.382 -0.4563 -0.1841  0.4378
21066SOL     OW64638   2.323   5.077   9.568  0.1180  0.1420  0.0242
21066SOL    HW164639   2.287   5.004   9.619  0.5335  0.1337  0.3038
21066SOL    HW264640   2.386   5.036   9.509  2.7842  0.5971  2.3782
21067SOL     OW64641   7.334   5.862   7.116 -0.4111 -0.4197  0.3701
21067SOL    HW164642   7.284   5.791   7.075  0.8675 -0.6762 -0.8036
21067SOL    HW264643   7.424   5.831   7.118 -0.1076  0.4669  1.4764
21068SOL     OW64644   0.130   3.010   7.855 -0.0974  0.5316  0.2433
21068SOL    HW164645   0.184   3.073   7.807  1.2858 -0.3521  0.5989
21068SOL    HW264646   0.087   2.958   7.787  0.9827  0.0167 -0.0665
21069SOL     OW64647   2.548   5.373   3.738 -0.1381  0.2767  0.0465
21069SOL    HW164648   2.582   5.457   3.707 -0.5366  0.3528 -0.1910
21069SOL    HW264649   2.480   5.397   3.801  0.7830  0.1241  1.1350
21070SOL     OW64650   3.638   3.525   4.338  0.7812  0.3801  0.2582
21070SOL    HW164651   3.717   3.488   4.377  1.1632  0.3183 -0.5628
21070SOL    HW264652   3.664   3.611   4.307  1.2803 -0.6364 -2.3818
21071SOL     OW64653   2.938   0.796  10.134 -0.0216 -0.0014 -0.1472
21071SOL    HW164654   2.971   0.709  10.109 -0.6975  0.1318 -1.6062
21071SOL    HW264655   3.010   0.856  10.111  0.3979 -0.1464  0.7476
21072SOL     OW64656   4.159   7.581   3.975  0.1195  0.0870 -0.0648
21072SOL    HW164657   4.077   7.629   3.961 -0.7480 -1.5730 -0.8849
21072SOL    HW264658   4.136   7.489   3.960  2.0417 -0.4540  0.1130
21073SOL     OW64659   2.657   7.691   1.582 -0.4603  0.1950  0.0583
21073SOL    HW164660   2.734   7.646   1.616 -0.6471 -0.7282 -0.6970
21073SOL    HW264661   2.583   7.638   1.613 -0.7641  0.7854  0.3503
21074SOL     OW64662   2.962   5.076  12.043  0.2714  0.5659 -0.6935
21074SOL    HW164663   3.000   5.008  12.099  1.9114  1.7717 -0.2868
21074SOL    HW264664   3.006   5.156  12.069 -1.4305  1.7732 -1.3464
21075SOL     OW64665   1.579   2.343   7.946  0.2358  0.6111  0.1941
21075SOL    HW164666   1.552   2.434   7.939  0.2428  0.6134  0.1972
21075SOL    HW264667   1.639   2.341   8.021 -1.7790  0.1455  1.8891
21076SOL     OW64668   2.456   5.351  12.416 -0.9469 -0.2067  0.1252
21076SOL    HW164669   2.474   5.268  12.461  0.5902  0.1818  0.2908
21076SOL    HW264670   2.501   5.417  12.469 -0.3691  0.4605 -1.1476
21077SOL     OW64671   2.381   6.964  10.843 -0.4796  0.3239 -0.3555
21077SOL    HW164672   2.373   6.951  10.748 -0.3102 -0.9504 -0.2166
21077SOL    HW264673   2.291   6.970  10.874 -0.5294  1.1482 -0.6397
21078SOL     OW64674   2.246   0.459  11.613  0.6137 -0.1712  0.5085
21078SOL    HW164675   2.311   0.503  11.669  1.3381 -0.0507 -0.3937
21078SOL    HW264676   2.298   0.401  11.557 -0.0184  0.1616 -0.4502
21079SOL     OW64677   1.168   7.769   9.085  0.4961 -0.1314 -0.2893
21079SOL    HW164678   1.175   7.675   9.102  0.2470  0.3675  3.2075
21079SOL    HW264679   1.239   7.809   9.135 -1.3446  1.7221  1.0378
21080SOL     OW64680   4.398   4.819  11.885 -0.1868  0.1473 -0.0432
21080SOL    HW164681   4.357   4.748  11.934  0.6636 -1.3155 -1.3456
21080SOL    HW264682   4.345   4.826  11.805  0.8488 -0.3830 -0.8033
21081SOL     OW64683   5.263   6.651   7.039  0.0040 -0.6813 -0.3059
21081SOL    HW164684   5.244   6.558   7.056  1.8316 -1.2474 -1.0959
21081SOL    HW264685   5.324   6.676   7.108 -0.9753  0.1499  0.2858
21082SOL     OW64686   6.886   7.789   6.337  0.1963 -0.5011  0.6493
21082SOL    HW164687   6.953   7.857   6.333 -0.6888  0.3860  0.5807
21082SOL    HW264688   6.882   7.764   6.430  0.2767 -0.1998  0.7331
21083SOL     OW64689   5.620   0.314   3.698 -0.4997  0.6210 -0.0998
21083SOL    HW164690   5.664   0.343   3.777 -1.1828  1.7516 -0.1129
21083SOL    HW264691   5.526   0.325   3.717 -0.8685 -2.1190  0.0959
21084SOL     OW64692   1.236   2.060  11.072  0.3495  0.3503  0.8371
21084SOL    HW164693   1.247   2.080  10.979 -0.8561 -1.4218  0.2617
21084SOL    HW264694   1.293   1.985  11.087  1.2431  1.1840  1.7885
21085SOL     OW64695   2.258   1.785   4.267 -0.7419 -0.4411  0.2706
21085SOL    HW164696   2.260   1.881   4.264 -0.4068 -0.3780  1.5674
21085SOL    HW264697   2.173   1.765   4.307 -0.4870 -0.6404  0.7250
21086SOL     OW64698   6.397   1.508   4.390  0.4863 -0.3196  0.1800
21086SOL    HW164699   6.411   1.414   4.397 -1.7419 -0.6222  1.7349
21086SOL    HW264700   6.441   1.534   4.309  0.3566 -2.8504 -0.7630
21087SOL     OW64701   1.745   7.193   5.676  0.4362 -0.3698  0.1921
21087SOL    HW164702   1.773   7.125   5.615  0.1783 -1.0396  0.8050
21087SOL    HW264703   1.652   7.177   5.689  0.6421 -0.7244  1.3461
21088SOL     OW64704   5.427   7.589  10.013  0.3638  0.0988 -0.0513
21088SOL    HW164705   5.426   7.494  10.023  0.9621  0.1932  1.1069
21088SOL    HW264706   5.473   7.621  10.091 -0.3120  1.3691 -0.1402
21089SOL     OW64707   6.349   5.662   5.264 -0.4432  0.1610  0.5801
21089SOL    HW164708   6.274   5.683   5.209  0.1830  1.7392  0.2730
21089SOL    HW264709   6.344   5.567   5.277 -1.4234 -0.0353 -0.9912
21090SOL     OW64710   1.273   4.459   7.117  0.4715  0.1193 -0.1777
21090SOL    HW164711   1.211   4.402   7.163  0.8380 -0.6158 -0.5874
21090SOL    HW264712   1.255   4.444   7.024  0.4498  0.8140 -0.2945
21091SOL     OW64713   1.160   7.543   3.296  0.0235  0.1227 -1.1007
21091SOL    HW164714   1.250   7.574   3.289  0.0874  0.0070 -0.7972
21091SOL    HW264715   1.116   7.579   3.218 -0.0040  1.3376 -0.5514
21092SOL     OW64716   0.652   0.119   2.344  0.0810 -0.0668  0.6402
21092SOL    HW164717   0.617   0.057   2.280  0.2493 -0.2553  0.7272
21092SOL    HW264718   0.664   0.066   2.423  0.0529  0.1210  0.7687
21093SOL     OW64719   3.915   7.323  10.735  0.1515  0.0668 -0.4580
21093SOL    HW164720   3.864   7.304  10.813  0.1369 -0.2459 -0.5416
21093SOL    HW264721   3.863   7.389  10.688 -0.4425 -0.6327 -0.8039
21094SOL     OW64722   0.247   2.069   4.806  0.2331  0.3342 -0.2147
21094SOL    HW164723   0.224   2.162   4.800 -0.0047  0.3098  0.2383
21094SOL    HW264724   0.341   2.069   4.826  0.8049  0.4222 -2.6362
21095SOL     OW64725   4.693   7.414  12.323  0.2369  0.0012 -0.4120
21095SOL    HW164726   4.708   7.334  12.272  0.7398 -0.4457  0.4103
21095SOL    HW264727   4.649   7.384  12.402 -3.6056  1.0717 -1.9144
21096SOL     OW64728   1.084   1.545   3.668  0.4874 -0.1425 -0.1697
21096SOL    HW164729   1.059   1.465   3.622  2.7535 -1.2691  0.4352
21096SOL    HW264730   1.138   1.593   3.605 -0.3703  0.6592 -0.3186
21097SOL     OW64731   2.706   5.399   8.946 -0.7813 -0.4541  0.0539
21097SOL    HW164732   2.715   5.352   8.863 -0.1994  1.1597 -0.8453
21097SOL    HW264733   2.704   5.491   8.921  1.1650  0.1983  1.9297
21098SOL     OW64734   5.884   1.317   9.715 -0.1571  0.0621  0.3032
21098SOL    HW164735   5.827   1.326   9.791  0.2860 -0.3365  0.6842
21098SOL    HW264736   5.864   1.231   9.679 -1.6146  0.9038 -1.0777
21099SOL     OW64737   5.035   3.863  11.105 -0.2306 -0.8795  0.3200
21099SOL    HW164738   5.036   3.959  11.106  1.0135 -0.8037 -1.4209
21099SOL    HW264739   5.128   3.839  11.104 -0.5278 -2.0811  0.2866
21100SOL     OW64740   2.021   1.684  10.584 -0.0934 -0.7574  0.3214
21100SOL    HW164741   2.071   1.678  10.666 -2.1707 -2.7694  1.5885
21100SOL    HW264742   2.053   1.611  10.532  0.2984 -0.2860 -0.0999
21101SOL     OW64743   2.147   0.272   6.422  0.8299 -0.9982 -0.1855
21101SOL    HW164744   2.123   0.239   6.336 -2.2212  2.6017 -0.9869
21101SOL    HW264745   2.072   0.249   6.478  1.1905 -0.3385  0.5880
21102SOL     OW64746   3.636   6.186   4.819 -0.3874 -0.2512  0.9346
21102SOL    HW164747   3.637   6.097   4.854 -0.1070 -0.4125  0.5245
21102SOL    HW264748   3.727   6.202   4.792 -0.4214  0.1880  1.0774
21103SOL     OW64749   0.309   0.730   0.795  0.2751 -0.2683 -0.3389
21103SOL    HW164750   0.310   0.723   0.700 -0.1150 -0.5153 -0.3292
21103SOL    HW264751   0.243   0.797   0.813  1.0381  0.4828 -0.2734
21104SOL     OW64752   2.172   7.603   9.597 -0.2966 -0.2032  0.7962
21104SOL    HW164753   2.247   7.550   9.627  0.2375 -0.0710 -0.2586
21104SOL    HW264754   2.097   7.544   9.604  0.0158 -0.5649  1.2143
21105SOL     OW64755   1.267   4.401   0.898  0.1183  0.0310 -0.5304
21105SOL    HW164756   1.217   4.478   0.923  1.6678  1.5777 -1.9132
21105SOL    HW264757   1.201   4.335   0.875 -1.2701  0.1724  2.5918
21106SOL     OW64758   6.173   7.723   7.931 -0.8593 -0.5457  0.0408
21106SOL    HW164759   6.215   7.793   7.882  0.1878  1.4150  3.4198
21106SOL    HW264760   6.225   7.645   7.911 -0.1440  0.2661 -1.4301
21107SOL     OW64761   2.832   1.566   2.126  0.3257 -0.6853  0.4795
21107SOL    HW164762   2.915   1.579   2.081  0.0012  0.2884  0.1397
21107SOL    HW264763   2.787   1.499   2.075  0.3255 -0.2193 -0.1410
21108SOL     OW64764   1.273   3.391   5.646 -0.4272  0.1383  0.7720
21108SOL    HW164765   1.179   3.392   5.631 -0.2851  1.7685 -0.2402
21108SOL    HW264766   1.298   3.300   5.631 -1.4355  0.2098 -1.9864
21109SOL     OW64767   2.129   6.297  10.118 -0.6046 -0.2419  0.1083
21109SOL    HW164768   2.169   6.213  10.096 -1.6375 -0.6462 -0.3115
21109SOL    HW264769   2.143   6.352  10.041 -0.7822 -0.3598 -0.0099
21110SOL     OW64770   4.586   0.131   6.294  0.5302 -0.2934  0.0422
21110SOL    HW164771   4.531   0.061   6.328 -0.8338  1.0375  0.6954
21110SOL    HW264772   4.538   0.211   6.313  1.6892  0.7971 -1.3342
21111SOL     OW64773   2.386   1.273  11.061  0.1987  0.2265 -0.0172
21111SOL    HW164774   2.307   1.219  11.067  1.8351 -2.2205  2.2198
21111SOL    HW264775   2.358   1.353  11.018 -3.1089 -1.1758 -0.7665
21112SOL     OW64776   3.378   2.071   7.448  0.1774  0.2697 -0.0177
21112SOL    HW164777   3.364   1.989   7.400 -0.9431 -0.6480  1.7499
21112SOL    HW264778   3.458   2.056   7.498 -1.5714 -1.0404  2.6323
21113SOL     OW64779   5.637   3.940   3.702  0.5141 -0.4446  0.4238
21113SOL    HW164780   5.588   3.869   3.660 -1.4830  0.4226  1.1385
21113SOL    HW264781   5.573   3.981   3.761  1.4962  2.1160 -0.1676
21114SOL     OW64782   4.514   2.558  11.927  0.4025 -0.3616 -0.1983
21114SOL    HW164783   4.584   2.520  11.980  2.0335  0.2879 -1.7672
21114SOL    HW264784   4.560   2.609  11.860 -1.6241  2.3715  0.3211
21115SOL     OW64785   5.903   4.543   7.446 -0.1574 -0.1157  0.1931
21115SOL    HW164786   5.962   4.581   7.511  0.1719  0.3842 -0.3941
21115SOL    HW264787   5.889   4.453   7.476  1.1650 -0.3435  0.1577
21116SOL     OW64788   3.266   7.075   2.536 -0.1220  0.2013 -0.5561
21116SOL    HW164789   3.190   7.124   2.568 -1.7217 -1.2034 -1.9896
21116SOL    HW264790   3.323   7.066   2.612 -0.8301  2.2766  0.2834
21117SOL     OW64791   4.133   0.751  11.931  0.6026  0.3923  0.7789
21117SOL    HW164792   4.174   0.827  11.890  0.3170  0.8741  1.3667
21117SOL    HW264793   4.184   0.736  12.010  1.1940 -0.5757  0.2336
21118SOL     OW64794   0.117   1.292   9.694 -0.7430  0.7859 -0.0363
21118SOL    HW164795   0.032   1.298   9.737 -0.6317 -1.7982  0.6740
21118SOL    HW264796   0.181   1.292   9.765 -0.1506  2.1003 -0.5357
21119SOL     OW64797   0.810   5.792   5.352 -0.0342  0.5355  0.8375
21119SOL    HW164798   0.840   5.734   5.422 -0.5188  1.6513  2.0361
21119SOL    HW264799   0.862   5.872   5.364 -1.0009  1.1988  0.7430
21120SOL     OW64800   0.558   3.235   6.762  0.4094 -0.3181 -0.0187
21120SOL    HW164801   0.569   3.330   6.749 -0.8263  0.0896  1.5687
21120SOL    HW264802   0.471   3.216   6.728  0.8880 -1.0263 -0.8859
21121SOL     OW64803   7.123   6.310   9.770 -0.0837 -0.1310 -0.0902
21121SOL    HW164804   7.158   6.399   9.764  0.8545 -0.4120  0.8252
21121SOL    HW264805   7.126   6.277   9.680 -0.2063  0.6751 -0.3964
21122SOL     OW64806   1.981   7.201  10.962  0.3298  0.0667 -0.2597
21122SOL    HW164807   1.892   7.195  10.928  0.1295  0.3332  0.2042
21122SOL    HW264808   2.016   7.112  10.954  0.7389  0.3736 -2.3334
21123SOL     OW64809   3.875   7.451   0.864  0.3156 -0.1052 -0.4751
21123SOL    HW164810   3.809   7.413   0.805  0.6004 -0.1230 -0.7864
21123SOL    HW264811   3.835   7.532   0.895 -0.2732 -0.6196  0.1388
21124SOL     OW64812   1.058   3.783   5.444 -0.1843 -0.2671  0.3054
21124SOL    HW164813   1.146   3.819   5.430 -0.0021 -1.2954 -1.4188
21124SOL    HW264814   1.050   3.712   5.380 -3.1491  1.3010 -1.2905
21125SOL     OW64815   6.294   5.364   1.393  0.5270  0.4671  0.6591
21125SOL    HW164816   6.335   5.424   1.455  1.5412  0.1874  0.2869
21125SOL    HW264817   6.363   5.300   1.373 -0.1202 -0.0578  0.0566
21126SOL     OW64818   2.957   7.445   2.906  0.0851 -0.2048 -0.3150
21126SOL    HW164819   2.911   7.414   2.984  0.1713 -0.6088 -0.4227
21126SOL    HW264820   2.893   7.436   2.835  0.0610  0.0068 -0.3213
21127SOL     OW64821   3.701   1.865   4.588  0.0827 -0.1395 -0.4213
21127SOL    HW164822   3.769   1.816   4.541 -0.2325 -0.4900 -0.5188
21127SOL    HW264823   3.685   1.942   4.534  0.1625 -0.2272 -0.5707
21128SOL     OW64824   6.067   0.948  10.474 -0.3939  0.5022  0.2596
21128SOL    HW164825   6.120   0.900  10.538 -1.4510  1.2792  1.7979
21128SOL    HW264826   5.996   0.986  10.526 -0.5775  2.2561 -1.1708
21129SOL     OW64827   2.804   5.121   5.479 -0.4426  0.0383 -0.0812
21129SOL    HW164828   2.718   5.124   5.438 -0.3929 -0.0192 -0.1888
21129SOL    HW264829   2.803   5.041   5.531  0.0379 -0.6928 -1.1658
21130SOL     OW64830   7.868   7.819  10.016  0.7802 -0.3930 -0.1931
21130SOL    HW164831   7.795   7.757  10.008 -1.5752  1.9972  1.0786
21130SOL    HW264832   7.905   7.801  10.103 -0.3930  0.4009  0.4990
21131SOL     OW64833   2.796   5.613   5.783 -0.1910  0.0175  0.0191
21131SOL    HW164834   2.829   5.548   5.845 -0.4814  1.1594  1.4163
21131SOL    HW264835   2.709   5.636   5.816 -0.1778  0.9664 -0.5760
21132SOL     OW64836   5.770   7.232  10.895 -0.1445 -0.1742  0.0175
21132SOL    HW164837   5.707   7.297  10.864 -0.3041 -0.5029 -0.3637
21132SOL    HW264838   5.744   7.151  10.851 -0.3606 -0.6524  1.0162
21133SOL     OW64839   2.888   2.505   3.073  0.3232 -0.0169  0.2022
21133SOL    HW164840   2.825   2.570   3.104  0.4595 -0.9476  2.7003
21133SOL    HW264841   2.841   2.422   3.076  1.0946 -0.4649  0.2316
21134SOL     OW64842   3.514   2.504  11.270  0.7331  0.7062  0.4234
21134SOL    HW164843   3.449   2.500  11.341  0.5490  0.3172  0.2340
21134SOL    HW264844   3.573   2.430  11.288  0.5192  0.4320  0.0116
21135SOL     OW64845   7.597   3.885   5.575 -0.4224  0.4639  0.3567
21135SOL    HW164846   7.591   3.976   5.547  1.8743  0.8759  1.0629
21135SOL    HW264847   7.682   3.855   5.543 -0.4670 -0.9631  1.4772
21136SOL     OW64848   2.644   3.812   0.863  0.0579  0.1862  0.1134
21136SOL    HW164849   2.594   3.806   0.944  1.1729  1.5226  0.9346
21136SOL    HW264850   2.679   3.724   0.849 -0.1120 -0.0435  1.1080
21137SOL     OW64851   4.011   0.480   1.385 -0.1365 -0.1370  0.4669
21137SOL    HW164852   4.106   0.497   1.386 -0.1920  0.1870  1.3199
21137SOL    HW264853   3.983   0.500   1.475 -1.0525 -0.0043  0.1553
21138SOL     OW64854   0.110   2.787  12.093  0.3845  0.6667  0.1957
21138SOL    HW164855   0.131   2.822  12.006  1.0010  1.5872  0.6991
21138SOL    HW264856   0.138   2.855  12.154 -1.1059  0.5287  1.0740
21139SOL     OW64857   5.948   7.911  10.993  0.5334  0.1178 -0.3510
21139SOL    HW164858   5.997   7.830  11.006 -1.1617 -0.9515 -0.1949
21139SOL    HW264859   5.883   7.910  11.064 -0.4442  0.8528 -1.2092
21140SOL     OW64860   6.318   6.439   7.050  0.1026  0.0816 -0.0651
21140SOL    HW164861   6.227   6.455   7.073 -0.3376 -1.9289 -0.2204
21140SOL    HW264862   6.325   6.344   7.043  1.6531  0.2689 -2.2645
21141SOL     OW64863   5.180   2.697   0.388  0.0778 -0.4141 -0.1038
21141SOL    HW164864   5.119   2.746   0.334  0.5314  0.1622 -0.1043
21141SOL    HW264865   5.132   2.617   0.412 -0.2068 -0.5706 -1.1527
21142SOL     OW64866   3.209   1.152   8.015 -0.1473  0.3376  0.2993
21142SOL    HW164867   3.237   1.088   7.949 -1.3857  0.3350 -0.2460
21142SOL    HW264868   3.256   1.232   7.992  2.7400 -0.7227  1.9723
21143SOL     OW64869   3.046   2.445  10.877  0.0858 -0.3272 -0.2353
21143SOL    HW164870   2.970   2.496  10.903  0.7520  0.2851  0.5680
21143SOL    HW264871   3.121   2.493  10.912  0.9855 -0.0944 -2.2941
21144SOL     OW64872   3.392   7.527   6.012  0.3085 -0.1447 -0.2371
21144SOL    HW164873   3.431   7.604   6.053 -2.3358  0.5942  1.0948
21144SOL    HW264874   3.409   7.455   6.073 -1.1841  0.3853  0.8622
21145SOL     OW64875   5.206   3.892   9.814 -0.1356  0.2191  0.2315
21145SOL    HW164876   5.139   3.947   9.772 -0.0554 -0.1662 -0.4032
21145SOL    HW264877   5.268   3.955   9.852 -0.1645  0.5680 -0.2938
21146SOL     OW64878   7.453   0.227   1.963  0.1179  0.3382 -0.1399
21146SOL    HW164879   7.377   0.192   1.917  0.0058  1.7383 -1.0645
21146SOL    HW264880   7.469   0.164   2.034 -1.2667 -0.5072 -0.5434
21147SOL     OW64881   1.157   5.147   6.144  1.2532  0.0677 -0.0903
21147SOL    HW164882   1.233   5.187   6.187  0.2531  0.0026  1.8500
21147SOL    HW264883   1.118   5.092   6.212 -1.3448  1.2116 -0.5371
21148SOL     OW64884   0.460   5.357   2.014  0.1819  0.1706  0.1803
21148SOL    HW164885   0.427   5.397   1.933 -1.2686 -4.1120 -1.6562
21148SOL    HW264886   0.382   5.344   2.067  0.6933  0.3153  0.9715
21149SOL     OW64887   5.938   3.096   2.594  0.7461  0.3500 -0.0445
21149SOL    HW164888   5.988   3.177   2.596  1.8761 -0.3139 -0.4570
21149SOL    HW264889   5.954   3.059   2.507  0.2552 -0.3213  0.1350
21150SOL     OW64890   4.685   1.458   9.937  0.0028  0.8437 -0.0701
21150SOL    HW164891   4.593   1.482   9.948 -0.2557  0.6708 -1.6608
21150SOL    HW264892   4.733   1.528   9.981 -0.8413  2.2342 -1.2584
21151SOL     OW64893   2.769   1.103   3.937 -0.5565 -0.1103 -0.5920
21151SOL    HW164894   2.778   1.190   3.897 -1.8871  0.6668  0.6511
21151SOL    HW264895   2.802   1.115   4.027  0.8199 -1.3633 -0.8968
21152SOL     OW64896   2.404   2.983   0.193  0.0730  0.1541 -0.4835
21152SOL    HW164897   2.372   3.070   0.216  0.5095  0.2737 -0.3215
21152SOL    HW264898   2.483   2.972   0.246  1.1314  0.4509 -1.9359
21153SOL     OW64899   6.872   0.837   5.626  0.0144  0.6154 -0.3408
21153SOL    HW164900   6.852   0.844   5.533 -3.0187 -0.0085  0.1608
21153SOL    HW264901   6.793   0.869   5.670  1.0415  0.1201  2.0366
21154SOL     OW64902   3.896   7.539   7.843  0.3866 -0.3066  0.2806
21154SOL    HW164903   3.823   7.522   7.902 -1.2962  2.4454 -0.7673
21154SOL    HW264904   3.920   7.630   7.860  1.5945 -0.2434 -1.4381
21155SOL     OW64905   7.099   5.801   7.888 -0.3074 -0.5995  0.1724
21155SOL    HW164906   7.033   5.804   7.819 -0.1371 -0.2667  0.0205
21155SOL    HW264907   7.172   5.852   7.854 -1.5046  2.5793  1.8994
21156SOL     OW64908   5.613   7.088   9.112  0.5293 -0.3610 -0.1278
21156SOL    HW164909   5.693   7.139   9.129  0.2416 -0.1994  0.7483
21156SOL    HW264910   5.543   7.141   9.148  0.3597 -2.0188  2.1438
21157SOL     OW64911   2.163   3.396   7.093 -0.0610 -0.3466  0.1131
21157SOL    HW164912   2.189   3.485   7.067 -2.3251  0.1885 -0.5961
21157SOL    HW264913   2.216   3.338   7.039  1.2066  0.5796  0.3336
21158SOL     OW64914   4.858   0.307   6.437  0.2208 -0.2573  0.3732
21158SOL    HW164915   4.929   0.327   6.376 -0.8839  3.1265 -0.0477
21158SOL    HW264916   4.793   0.260   6.384  0.7489 -0.4288 -0.1289
21159SOL     OW64917   1.780   1.669   6.231 -0.1241  0.0850 -0.2693
21159SOL    HW164918   1.831   1.589   6.218 -1.3233 -1.0791  1.6762
21159SOL    HW264919   1.830   1.718   6.296  0.8681  1.2471 -1.8148
21160SOL     OW64920   1.796   6.763   9.399  0.7902 -0.5038 -0.2865
21160SOL    HW164921   1.735   6.810   9.342  3.0119  0.2324 -2.2329
21160SOL    HW264922   1.813   6.681   9.352  2.0249 -0.2677 -0.2637
21161SOL     OW64923   2.494   5.817   8.141  0.3451 -0.5381 -0.7161
21161SOL    HW164924   2.413   5.779   8.176 -0.0032  1.4362  0.8438
21161SOL    HW264925   2.554   5.819   8.216  0.7417  0.8125 -1.0384
21162SOL     OW64926   0.091   1.429   6.201  0.7782  0.0400  0.4890
21162SOL    HW164927   0.033   1.360   6.171  0.3693  0.1519  1.0046
21162SOL    HW264928   0.047   1.467   6.277  2.2516 -0.9100  1.8903
21163SOL     OW64929   6.244   7.052  11.457  0.4801 -0.2539  0.2222
21163SOL    HW164930   6.191   6.973  11.466 -1.6834  0.9410 -1.2779
21163SOL    HW264931   6.260   7.060  11.363  2.8606 -0.1924  0.5575
21164SOL     OW64932   4.700   4.767   4.702  0.0666 -0.5601  0.5431
21164SOL    HW164933   4.715   4.836   4.767  1.5191 -1.7349  1.5324
21164SOL    HW264934   4.606   4.771   4.684  0.0747  1.5053  0.7293
21165SOL     OW64935   4.524   1.542   1.332  0.2377 -0.5420  0.1646
21165SOL    HW164936   4.540   1.616   1.391  0.1322  0.0061 -0.4901
21165SOL    HW264937   4.450   1.569   1.279  0.7929 -0.7319 -0.7212
21166SOL     OW64938   2.815   3.731   7.911  0.0084  1.0975 -0.0651
21166SOL    HW164939   2.758   3.740   7.835  0.9191  0.2255 -0.8925
21166SOL    HW264940   2.898   3.698   7.875  0.5910  1.0467  1.2536
21167SOL     OW64941   7.400   4.935   3.205 -0.3365 -0.5019 -0.1859
21167SOL    HW164942   7.473   4.873   3.204 -0.2175 -0.4084 -2.2204
21167SOL    HW264943   7.435   5.015   3.166 -1.3145 -0.1831 -0.4546
21168SOL     OW64944   1.850   6.660   7.639 -0.0267 -0.2384  0.6147
21168SOL    HW164945   1.758   6.662   7.614  0.2642 -0.0356 -0.5387
21168SOL    HW264946   1.850   6.653   7.734 -1.2276  0.5403  0.6843
21169SOL     OW64947   3.800   1.980   5.627 -0.5945  0.2457 -0.2296
21169SOL    HW164948   3.718   2.020   5.598 -0.1548  1.1353 -0.2799
21169SOL    HW264949   3.818   2.021   5.712  1.1145  2.0717 -1.3571
21170SOL     OW64950   5.230   7.445  11.220 -0.0241 -0.4526 -0.1763
21170SOL    HW164951   5.265   7.357  11.234 -1.0880 -0.7034  1.0674
21170SOL    HW264952   5.164   7.456  11.288  0.0286  1.2864 -0.3573
21171SOL     OW64953   1.272   0.659   4.303 -0.3124 -0.6741  0.2808
21171SOL    HW164954   1.316   0.621   4.227 -1.9069 -0.6479 -0.6801
21171SOL    HW264955   1.297   0.752   4.301  1.7919 -1.1423  1.3667
21172SOL     OW64956   5.422   0.549   2.226 -0.2512  0.2123 -0.2900
21172SOL    HW164957   5.378   0.584   2.148  0.4664  2.8007  0.3492
21172SOL    HW264958   5.418   0.621   2.290  1.2231 -0.9819  1.2481
21173SOL     OW64959   3.563   2.847   3.769  0.1085 -0.6244  0.5604
21173SOL    HW164960   3.542   2.831   3.677 -0.2360 -0.0502  0.5288
21173SOL    HW264961   3.516   2.928   3.790  1.2440 -0.0200  0.8698
21174SOL     OW64962   1.278   1.919   1.840  0.0088 -0.0485 -0.6206
21174SOL    HW164963   1.305   1.858   1.771  0.2483  0.3121 -0.8462
21174SOL    HW264964   1.253   1.863   1.913  1.3282 -0.3938 -0.4097
21175SOL     OW64965   0.541   1.268   5.003  0.1097  0.0834  0.5849
21175SOL    HW164966   0.526   1.216   5.082 -0.0433 -0.1685  0.3921
21175SOL    HW264967   0.528   1.207   4.930 -1.3864  0.6688  0.3105
21176SOL     OW64968   5.433   2.166   1.873  0.3380 -0.5340 -0.2368
21176SOL    HW164969   5.440   2.234   1.806  1.8681 -1.3010 -0.8899
21176SOL    HW264970   5.406   2.214   1.952 -2.6775  0.2300 -1.5921
21177SOL     OW64971   4.052   0.832  11.664  0.1711  0.5595 -0.0621
21177SOL    HW164972   4.113   0.777  11.614 -1.3755 -0.4762 -0.8965
21177SOL    HW264973   4.039   0.785  11.747  1.7861  1.6560  0.8605
21178SOL     OW64974   6.352   2.737   5.535  0.0907  0.1249  0.6512
21178SOL    HW164975   6.320   2.736   5.625 -0.3795  1.1658  0.5185
21178SOL    HW264976   6.285   2.691   5.484  0.5141 -0.7452  0.8747
21179SOL     OW64977   6.676   6.990  11.795  0.2681  0.2939  0.0445
21179SOL    HW164978   6.678   7.047  11.718 -0.4301 -3.5933 -3.2048
21179SOL    HW264979   6.763   6.950  11.797 -0.2455 -0.8390  0.2457
21180SOL     OW64980   0.007   1.590   7.194  0.7838 -0.2855  0.3768
21180SOL    HW164981  -0.084   1.620   7.196  0.6856 -0.0760 -2.3536
21180SOL    HW264982   0.059   1.670   7.192  0.7791 -0.2704 -1.6616
21181SOL     OW64983   6.586   0.430   1.758  0.5510 -0.1054 -0.0240
21181SOL    HW164984   6.609   0.416   1.850  0.6401 -0.1438 -0.0516
21181SOL    HW264985   6.670   0.425   1.712  0.2812 -2.1079 -0.3558
21182SOL     OW64986   4.337   6.840   5.227  0.1446  0.2846 -0.6551
21182SOL    HW164987   4.350   6.746   5.240  0.5655  0.1931 -1.6091
21182SOL    HW264988   4.255   6.859   5.271  1.3483  0.0215  1.9072
21183SOL     OW64989   7.534   5.117   6.994 -0.1057  0.2200 -0.6504
21183SOL    HW164990   7.511   5.052   7.060  1.0433  0.3724 -0.0705
21183SOL    HW264991   7.484   5.091   6.917  0.9519 -1.8969 -0.7215
21184SOL     OW64992   0.830   1.665   9.466 -0.9417  0.6223 -0.2016
21184SOL    HW164993   0.890   1.647   9.394 -1.2636  1.3487 -0.6545
21184SOL    HW264994   0.887   1.669   9.543 -0.8299 -2.5595  0.0421
21185SOL     OW64995   1.651   5.429  11.359 -0.4505 -0.4698  0.0953
21185SOL    HW164996   1.695   5.380  11.429 -0.1236 -1.5784 -0.8722
21185SOL    HW264997   1.687   5.394  11.278 -1.9649 -0.2907 -0.6929
21186SOL     OW64998   5.695   6.720   3.205  0.0390 -0.1775  0.0570
21186SOL    HW164999   5.742   6.684   3.280 -1.3057 -1.0158  0.5483
21186SOL    HW265000   5.646   6.794   3.240  0.6209  0.4115 -0.3515
21187SOL     OW65001   6.805   0.962   0.508 -0.0091 -0.5617 -0.0939
21187SOL    HW165002   6.780   0.966   0.600 -1.1594 -1.1568 -0.3602
21187SOL    HW265003   6.785   1.049   0.474 -2.8356 -1.2860 -0.5302
21188SOL     OW65004   0.643   0.864  11.006 -0.3085 -0.0300 -0.1617
21188SOL    HW165005   0.578   0.929  11.034 -0.8548 -0.9561  0.7861
21188SOL    HW265006   0.687   0.838  11.086  0.0881 -0.6420 -0.5703
21189SOL     OW65007   7.961   0.290   4.577  0.5362 -0.3268  0.3224
21189SOL    HW165008   7.977   0.295   4.482 -1.2984  0.7618  0.0231
21189SOL    HW265009   7.931   0.200   4.592  0.9862 -0.5514 -0.0925
21190SOL     OW65010   1.085   2.393   4.889  0.5557 -0.5390 -0.3276
21190SOL    HW165011   1.101   2.450   4.813  0.0956  1.4730  1.0316
21190SOL    HW265012   1.118   2.442   4.964 -1.5387 -1.2312  1.1511
21191SOL     OW65013   2.701   1.014   8.161  0.3616  0.2923 -0.1359
21191SOL    HW165014   2.679   0.943   8.102  1.3492  1.0765 -1.5137
21191SOL    HW265015   2.768   0.978   8.219 -0.6752 -0.5064  0.6016
21192SOL     OW65016   4.751   3.160  12.473 -0.2674 -0.5212  0.2784
21192SOL    HW165017   4.797   3.127  12.395 -0.5203  2.4245 -1.2692
21192SOL    HW265018   4.815   3.217  12.516 -0.6539 -0.8677  1.3280
21193SOL     OW65019   0.275   7.616   5.319 -0.3739 -0.1236  0.3805
21193SOL    HW165020   0.227   7.553   5.265  1.0100 -0.0650 -0.9766
21193SOL    HW265021   0.254   7.701   5.281 -1.3415  0.1669  1.5098
21194SOL     OW65022   1.082   7.933   9.682 -0.0547  0.0509  0.1789
21194SOL    HW165023   1.085   7.971   9.770  0.3967 -0.4225  0.3658
21194SOL    HW265024   1.172   7.938   9.650 -0.1619 -0.0513 -0.1437
21195SOL     OW65025   5.255   2.744  10.465 -0.4865 -0.5524 -0.5790
21195SOL    HW165026   5.292   2.655  10.463  0.7142 -0.0716 -0.8653
21195SOL    HW265027   5.181   2.737  10.525 -0.2799 -1.7046 -0.4198
21196SOL     OW65028   5.552   3.139   3.243  0.3351 -0.2077 -0.5073
21196SOL    HW165029   5.567   3.172   3.155  2.0742 -0.1030 -0.1991
21196SOL    HW265030   5.639   3.133   3.282 -0.4578  0.9540  1.6272
21197SOL     OW65031   2.831   2.034   1.091  0.0437 -0.3514  0.5359
21197SOL    HW165032   2.914   1.995   1.116  0.6321  0.8282  0.4786
21197SOL    HW265033   2.850   2.128   1.082 -1.5888  0.1688  1.9113
21198SOL     OW65034   1.140   2.218   3.274  0.5609  0.1394 -0.1330
21198SOL    HW165035   1.189   2.280   3.327  0.6171  0.1069 -0.1475
21198SOL    HW265036   1.203   2.187   3.209  0.3301  0.6536 -0.6150
21199SOL     OW65037   0.960   0.973   3.519 -0.1759 -0.0994  0.1808
21199SOL    HW165038   0.902   1.047   3.502  1.0762  1.1005  0.9684
21199SOL    HW265039   1.033   0.985   3.459  1.0105  0.4510  1.6711
21200SOL     OW65040   5.734   1.963   8.537  0.1565 -0.2427 -0.5217
21200SOL    HW165041   5.639   1.955   8.526  0.1525 -1.5185  0.3406
21200SOL    HW265042   5.746   1.980   8.630  0.7522  0.6154 -0.7405
21201SOL     OW65043   3.269   3.358   2.843 -0.1095 -0.6722  0.2923
21201SOL    HW165044   3.342   3.383   2.785 -0.3078  1.2468  0.8224
21201SOL    HW265045   3.301   3.279   2.887  1.5391 -0.0663  0.2743
21202SOL     OW65046   1.233   1.233   0.660 -0.0502 -0.4536  0.3387
21202SOL    HW165047   1.190   1.302   0.609  0.8109 -0.3443 -0.2668
21202SOL    HW265048   1.211   1.253   0.751  0.2096  0.6336  0.1727
21203SOL     OW65049   4.975   2.786   9.000  0.2916  0.1189 -0.0693
21203SOL    HW165050   4.973   2.728   8.923  1.5994  2.3107 -1.8569
21203SOL    HW265051   5.063   2.775   9.036  0.3444  0.5553 -0.0652
21204SOL     OW65052   1.004   5.718   9.645 -0.5808  0.2297 -0.2516
21204SOL    HW165053   1.013   5.664   9.724 -0.7689 -0.6380 -0.8037
21204SOL    HW265054   0.913   5.705   9.618  0.0582 -1.2689 -1.8404
21205SOL     OW65055   2.982   2.028  10.469  0.0360 -0.2267  0.4530
21205SOL    HW165056   2.949   1.948  10.426  0.4115 -1.4557  2.3345
21205SOL    HW265057   2.924   2.040  10.544  1.0225  0.3008  1.1395
21206SOL     OW65058   5.429   0.794   7.958 -0.4968 -0.3594 -0.3330
21206SOL    HW165059   5.453   0.739   7.883 -0.8282 -1.3482  0.2619
21206SOL    HW265060   5.511   0.839   7.982  0.1510 -1.6794  0.0397
21207SOL     OW65061   3.459   3.159   0.459  0.2511  0.5949  0.0205
21207SOL    HW165062   3.384   3.189   0.408  1.1818 -0.7092 -2.2592
21207SOL    HW265063   3.527   3.225   0.444  0.8541 -0.2964 -1.3341
21208SOL     OW65064   1.048   6.945   9.322 -0.2297 -0.4187  0.0369
21208SOL    HW165065   1.108   6.918   9.390 -0.2836  0.0329  0.2647
21208SOL    HW265066   1.103   6.990   9.257 -0.2073 -0.6840 -0.1314
21209SOL     OW65067   6.535   7.710   2.487  0.4159 -0.3698 -0.4609
21209SOL    HW165068   6.520   7.625   2.529  0.9411 -0.4717 -0.4689
21209SOL    HW265069   6.564   7.767   2.558  1.9531 -0.7188 -0.7771
21210SOL     OW65070   4.236   7.732   5.638 -0.0903  0.7573 -0.6557
21210SOL    HW165071   4.314   7.778   5.605 -0.6988  1.9832 -0.4532
21210SOL    HW265072   4.236   7.649   5.591  0.5669  1.3322 -1.7324
21211SOL     OW65073   5.469   7.208   3.021 -0.1139 -0.3763 -0.1646
21211SOL    HW165074   5.561   7.181   3.020  0.0909  0.2131 -2.4673
21211SOL    HW265075   5.422   7.136   2.980 -0.3439  0.2064 -0.9721
21212SOL     OW65076   2.892   2.900   8.309  0.2269 -0.7072  0.1720
21212SOL    HW165077   2.875   2.952   8.387 -1.7165 -1.2882  0.1970
21212SOL    HW265078   2.903   2.964   8.238 -0.7182 -0.2228  0.4525
21213SOL     OW65079   3.156   2.554   5.269 -0.0184  0.4463 -0.6169
21213SOL    HW165080   3.169   2.534   5.177  0.2993  0.3041 -0.5428
21213SOL    HW265081   3.153   2.469   5.312 -0.8478  0.4885 -0.5813
21214SOL     OW65082   7.245   2.806  11.599 -0.1810  0.0304 -0.5786
21214SOL    HW165083   7.232   2.899  11.615 -0.0461 -0.2112  1.1893
21214SOL    HW265084   7.224   2.764  11.683  0.9868 -1.4086 -0.9583
21215SOL     OW65085   6.447   3.624   7.701 -0.0888  0.2188 -0.4441
21215SOL    HW165086   6.388   3.686   7.743  1.0815  0.4354  0.9816
21215SOL    HW265087   6.506   3.679   7.649  0.0191  0.1648 -0.3777
21216SOL     OW65088   1.051   2.080   2.188 -0.3924 -0.0495  0.4982
21216SOL    HW165089   1.141   2.083   2.154 -0.0021 -0.9768  1.4191
21216SOL    HW265090   1.045   2.155   2.247 -0.0731 -0.2407  0.7784
21217SOL     OW65091   1.541   6.518   2.454 -0.2593 -0.4624 -0.2605
21217SOL    HW165092   1.537   6.537   2.548 -0.7412  1.3592 -0.6105
21217SOL    HW265093   1.491   6.589   2.413  0.0809 -1.1319 -1.9155
21218SOL     OW65094   7.326   7.708  10.712 -0.1442 -0.2456 -0.1392
21218SOL    HW165095   7.253   7.767  10.698 -0.8238 -0.9792  0.2043
21218SOL    HW265096   7.303   7.629  10.663  0.1525 -0.6839  0.4090
21219SOL     OW65097   7.406   5.927   6.410  0.0192  0.1029  0.1219
21219SOL    HW165098   7.424   6.021   6.408 -1.5325  0.4439 -2.4226
21219SOL    HW265099   7.321   5.917   6.367 -0.8765 -2.3171  2.1942
21220SOL     OW65100   1.740   3.310   2.039  0.3087 -0.1651  0.3021
21220SOL    HW165101   1.728   3.262   2.121  1.4272 -1.6629 -0.3663
21220SOL    HW265102   1.825   3.280   2.006  0.0376  0.6524 -1.2439
21221SOL     OW65103   7.605   2.669   9.875  0.1506 -0.3806  0.3317
21221SOL    HW165104   7.590   2.584   9.917 -2.1784  0.7774  2.0717
21221SOL    HW265105   7.621   2.729   9.947  2.0339  0.6809 -0.8883
21222SOL     OW65106   4.258   4.172   2.415  0.2093 -0.1793  0.2233
21222SOL    HW165107   4.327   4.147   2.354 -2.3190 -0.3493 -2.8133
21222SOL    HW265108   4.281   4.127   2.497  2.7744 -1.5076 -1.0937
21223SOL     OW65109   6.361   1.757   1.461 -0.0939 -0.0409 -0.3209
21223SOL    HW165110   6.425   1.820   1.494  1.3319 -0.3451 -2.2794
21223SOL    HW265111   6.371   1.680   1.517  2.0578 -0.4612 -1.1765
21224SOL     OW65112   0.385   0.405  10.713 -0.1708  0.6000 -0.4739
21224SOL    HW165113   0.459   0.386  10.772  0.3735 -1.9354 -1.8488
21224SOL    HW265114   0.383   0.500  10.709  2.8279  0.7927 -0.0976
21225SOL     OW65115   5.230   1.020   7.635  0.6101  0.1751  0.1211
21225SOL    HW165116   5.303   1.072   7.667  0.3678  0.3962  0.3181
21225SOL    HW265117   5.187   1.075   7.570  0.7337 -0.0311 -0.1370
21226SOL     OW65118   1.761   7.150   2.204 -0.4418  0.3575 -0.0808
21226SOL    HW165119   1.680   7.177   2.161  0.2388 -1.1855 -2.4625
21226SOL    HW265120   1.736   7.075   2.258 -0.6486 -0.0335 -0.7104
21227SOL     OW65121   3.085   7.913   5.619  0.1384  0.2246 -0.5943
21227SOL    HW165122   3.072   7.912   5.714 -0.3928  0.4286 -0.6621
21227SOL    HW265123   3.018   7.854   5.585 -0.9173  1.5883 -0.9767
21228SOL     OW65124   0.760   3.057   6.641 -0.0620 -0.1258 -0.2783
21228SOL    HW165125   0.682   3.095   6.681  0.6663  0.0920  0.9959
21228SOL    HW265126   0.833   3.098   6.688  0.7853 -1.5376 -0.3020
21229SOL     OW65127   0.625   4.597  11.861 -0.5777  0.1547 -0.6002
21229SOL    HW165128   0.667   4.682  11.875  0.0362 -0.2036 -0.2463
21229SOL    HW265129   0.681   4.552  11.799 -1.0118  0.0822 -0.9432
21230SOL     OW65130   5.404   3.000   0.543 -0.3639  0.0959  0.0958
21230SOL    HW165131   5.374   2.923   0.591  1.0202 -1.2527 -1.0793
21230SOL    HW265132   5.431   2.966   0.457  0.7978  1.7901 -0.2724
21231SOL     OW65133   1.023   2.881  12.161 -0.0508 -0.2475  0.2268
21231SOL    HW165134   0.932   2.852  12.159 -0.4228  0.7868  1.1026
21231SOL    HW265135   1.048   2.875  12.253  0.4226  0.4513  0.1507
21232SOL     OW65136   4.886   7.682   0.142  0.2254 -0.1786 -0.4273
21232SOL    HW165137   4.891   7.592   0.110  0.1556  0.5261 -2.5673
21232SOL    HW265138   4.792   7.702   0.144  0.1961 -0.3540  0.7326
21233SOL     OW65139   7.579   3.810   2.448 -0.1654  0.3404 -1.2231
21233SOL    HW165140   7.632   3.745   2.401 -1.6320 -0.9095 -1.2337
21233SOL    HW265141   7.492   3.802   2.408 -0.8896  0.8244  0.2128
21234SOL     OW65142   3.562   7.293   0.077  0.1495 -0.0904  0.2584
21234SOL    HW165143   3.470   7.288   0.104  0.3954  0.7837  1.3555
21234SOL    HW265144   3.559   7.313  -0.017 -0.7582 -1.3239  0.0089
21235SOL     OW65145   4.583   6.497   0.462  0.2104  0.4190  0.3976
21235SOL    HW165146   4.549   6.572   0.414 -0.6380  0.4406  0.9964
21235SOL    HW265147   4.667   6.477   0.421 -0.6385  0.2077 -1.3204
21236SOL     OW65148   3.454   5.131   9.552 -0.1195  0.1175  0.3484
21236SOL    HW165149   3.541   5.141   9.515  0.3129 -0.1462  1.2796
21236SOL    HW265150   3.396   5.124   9.476  0.4972  1.5913 -0.2927
21237SOL     OW65151   0.798   2.634   1.096  0.3028 -0.7547 -0.4701
21237SOL    HW165152   0.805   2.640   1.191 -2.0028 -2.1977 -0.1303
21237SOL    HW265153   0.704   2.622   1.079  0.6390 -0.5156 -2.9372
21238SOL     OW65154   7.943   3.464   4.703 -0.4663 -0.0390  0.0916
21238SOL    HW165155   7.959   3.495   4.792 -0.7878  0.2653  0.0507
21238SOL    HW265156   8.013   3.504   4.651  0.3848 -1.1267  0.3806
21239SOL     OW65157   4.258   6.278   2.071 -0.2457  0.1004 -0.3253
21239SOL    HW165158   4.339   6.227   2.071 -0.8487 -0.8620 -0.2563
21239SOL    HW265159   4.223   6.267   1.982  0.9916  2.6413 -1.2417
21240SOL     OW65160   5.355   0.065   8.070 -0.9360 -0.2435 -0.1248
21240SOL    HW165161   5.371   0.108   7.986 -0.7352  1.6292  0.8268
21240SOL    HW265162   5.260   0.055   8.075 -1.0611  0.8295 -0.0509
21241SOL     OW65163   3.892   7.910  11.837 -0.6744 -0.4385 -0.0279
21241SOL    HW165164   3.983   7.899  11.809 -1.0335  0.4471 -1.6993
21241SOL    HW265165   3.899   7.935  11.929  0.7514 -0.8130  0.0013
21242SOL     OW65166   4.226   2.036   3.174 -0.4873  0.3423  0.3131
21242SOL    HW165167   4.321   2.051   3.176 -0.0861 -1.8521 -0.0616
21242SOL    HW265168   4.196   2.081   3.095  0.8530 -1.7764 -1.5100
21243SOL     OW65169   7.764   4.166   2.381  0.0613  0.7247 -0.3618
21243SOL    HW165170   7.686   4.166   2.435  0.4977  0.1222  0.2849
21243SOL    HW265171   7.792   4.258   2.379 -0.7069  0.9572 -0.6830
21244SOL     OW65172   6.423   6.005  11.499  0.8282 -0.0391 -0.1819
21244SOL    HW165173   6.384   5.925  11.463  1.6937 -0.4456 -0.2403
21244SOL    HW265174   6.517   5.986  11.503  1.0028  0.8559  0.1193
21245SOL     OW65175   5.895   6.991   9.865  0.2124 -0.4005 -0.5166
21245SOL    HW165176   5.961   6.987   9.935  0.4305  0.6025 -0.6468
21245SOL    HW265177   5.925   7.063   9.809 -0.5670 -0.4629 -1.0208
21246SOL     OW65178   4.002   7.348  11.834 -0.0663 -0.0578 -0.7273
21246SOL    HW165179   4.028   7.419  11.775  2.3485  0.4010  0.7627
21246SOL    HW265180   4.045   7.270  11.798 -0.3393 -0.2075 -0.7346
21247SOL     OW65181   0.435   3.754   4.967 -0.3146  0.2927 -0.0418
21247SOL    HW165182   0.394   3.720   5.046  1.1323  1.2810  1.1993
21247SOL    HW265183   0.423   3.686   4.901 -0.5206 -1.0687  1.3640
21248SOL     OW65184   3.960   5.441   9.586  0.4359  0.3947  0.6183
21248SOL    HW165185   4.037   5.424   9.639 -0.0912 -0.2288  1.1992
21248SOL    HW265186   3.960   5.371   9.520 -1.0612 -1.2407  2.2550
21249SOL     OW65187   4.849   0.356   3.185  0.2023  0.8351 -0.5587
21249SOL    HW165188   4.773   0.413   3.174  0.3091  0.8890 -1.0153
21249SOL    HW265189   4.838   0.287   3.120 -0.0570  0.1728  0.1617
21250SOL     OW65190   4.617   6.550   5.186  0.1022  0.0166 -0.1022
21250SOL    HW165191   4.573   6.542   5.271  0.5618 -1.1127  0.0413
21250SOL    HW265192   4.608   6.643   5.164 -1.1124  0.0942  0.5852
21251SOL     OW65193   6.713   1.492  12.413  0.1161  0.7011 -0.3050
21251SOL    HW165194   6.690   1.431  12.483 -0.2304  1.3146  0.1241
21251SOL    HW265195   6.630   1.530  12.385  0.1545 -0.1278 -1.6163
21252SOL     OW65196   6.855   7.685  10.210 -0.2831  0.7070  0.3464
21252SOL    HW165197   6.853   7.764  10.263 -0.6899  0.0395  1.3678
21252SOL    HW265198   6.783   7.696  10.148 -0.2902  1.1694  0.4375
21253SOL     OW65199   4.353   5.735   4.450  0.3540 -0.1793 -0.4031
21253SOL    HW165200   4.328   5.799   4.516 -0.9918 -1.0331 -0.0509
21253SOL    HW265201   4.449   5.741   4.445  0.3221  1.1812  0.2793
21254SOL     OW65202   3.368   0.559  12.300  0.2253 -0.4417  0.1460
21254SOL    HW165203   3.381   0.654  12.289 -0.7327 -0.2423  0.6027
21254SOL    HW265204   3.433   0.535  12.367 -0.9915  0.3452  1.6876
21255SOL     OW65205   4.963   7.244   4.203 -0.5987 -0.3094  0.5045
21255SOL    HW165206   4.900   7.270   4.136 -0.3306 -0.2822  0.2588
21255SOL    HW265207   5.046   7.237   4.156 -0.5394 -0.9639  0.6949
21256SOL     OW65208   7.779   4.433   0.037  0.1404  0.4485  0.2742
21256SOL    HW165209   7.790   4.462  -0.054 -1.1834 -0.3101 -0.1530
21256SOL    HW265210   7.863   4.394   0.060  0.0784 -0.5835 -1.1106
21257SOL     OW65211   1.449   4.012  10.200 -0.3508  0.2440  0.4474
21257SOL    HW165212   1.512   3.948  10.166 -0.8206 -0.3420  0.6610
21257SOL    HW265213   1.475   4.095  10.160 -1.4747 -0.5742 -2.1655
21258SOL     OW65214   4.076   1.067   7.148 -0.3722  0.0038 -0.2481
21258SOL    HW165215   4.138   1.140   7.150 -0.5739  0.1773  1.8968
21258SOL    HW265216   4.083   1.028   7.234 -2.6398 -0.4943 -0.2328
21259SOL     OW65217   5.838   5.827   2.448 -0.3049  0.4352 -0.7544
21259SOL    HW165218   5.902   5.764   2.482 -0.7440  0.3820 -0.0001
21259SOL    HW265219   5.890   5.902   2.421 -0.0562  1.4667  2.1910
21260SOL     OW65220   6.399   5.875   2.268  0.4020  0.1246 -0.2438
21260SOL    HW165221   6.393   5.809   2.337 -0.4163 -0.7625 -1.1300
21260SOL    HW265222   6.412   5.824   2.187 -0.8849  0.9931 -1.0321
21261SOL     OW65223   5.365   0.611  10.808  0.6495  0.1996  0.0774
21261SOL    HW165224   5.358   0.622  10.903 -1.7574  2.2925 -0.2483
21261SOL    HW265225   5.451   0.647  10.786  0.3340  1.7114  1.2357
21262SOL     OW65226   4.861   2.224   3.193 -0.2701 -0.0294  0.0533
21262SOL    HW165227   4.871   2.268   3.277 -0.0606 -1.0130  0.5455
21262SOL    HW265228   4.803   2.282   3.143  0.8735  1.3650  0.2769
21263SOL     OW65229   0.987   3.222  10.274  0.4281  0.1771  0.0610
21263SOL    HW165230   0.964   3.137  10.311  0.5461  0.0647 -0.1233
21263SOL    HW265231   0.907   3.274  10.284 -0.0382 -0.3310 -0.9220
21264SOL     OW65232   4.093   6.080   6.017  1.2901 -0.1883 -0.5880
21264SOL    HW165233   4.127   6.102   5.930 -0.6988  1.9638 -0.8933
21264SOL    HW265234   4.108   6.158   6.070 -0.8544 -0.0799 -0.0591
21265SOL     OW65235   3.735   0.689   9.107  0.6154 -0.1814  0.8910
21265SOL    HW165236   3.743   0.770   9.158  0.0295  1.5181 -1.4855
21265SOL    HW265237   3.640   0.675   9.101  0.7046 -0.7962  0.9218
21266SOL     OW65238   6.590   2.651   7.194  0.5517 -0.1490 -0.2919
21266SOL    HW165239   6.542   2.573   7.167  1.3910 -0.0931 -2.0900
21266SOL    HW265240   6.679   2.636   7.162  0.6701  1.6582 -0.9193
21267SOL     OW65241   7.434   6.228  12.434  0.2662  0.3115 -0.2593
21267SOL    HW165242   7.512   6.173  12.439 -0.6735 -1.0235  0.6277
21267SOL    HW265243   7.365   6.175  12.475 -1.4053  0.9032 -2.1130
21268SOL     OW65244   5.364   6.414  10.638  0.1732  0.3961 -0.2022
21268SOL    HW165245   5.388   6.376  10.723 -0.2133 -2.4175 -1.2587
21268SOL    HW265246   5.317   6.344  10.592 -1.8066  2.6348 -1.8402
21269SOL     OW65247   7.255   6.512   7.807 -0.0345  0.2899 -0.3501
21269SOL    HW165248   7.182   6.471   7.760 -0.0778  0.5053 -0.4745
21269SOL    HW265249   7.292   6.574   7.744 -0.4272  0.9672  0.0691
21270SOL     OW65250   5.446   4.659   6.378  0.0052 -0.3098 -0.0957
21270SOL    HW165251   5.395   4.596   6.327 -0.1141  1.6432 -2.5835
21270SOL    HW265252   5.535   4.652   6.342 -0.1041  1.1784 -0.7122
21271SOL     OW65253   0.757   2.183  11.376  0.3049  0.0586  0.2620
21271SOL    HW165254   0.670   2.156  11.406  0.3919 -1.4307 -0.7105
21271SOL    HW265255   0.815   2.112  11.403  1.1438  0.7886  0.4350
21272SOL     OW65256   6.419   4.237  11.148 -0.2084  0.7028  0.4390
21272SOL    HW165257   6.382   4.212  11.063  0.1171 -0.4296  0.6201
21272SOL    HW265258   6.494   4.293  11.126  1.0255 -1.0717 -0.1225
21273SOL     OW65259   5.735   0.095   5.031  0.0159  0.0316 -0.0680
21273SOL    HW165260   5.721   0.161   4.964 -0.3377 -2.2922 -2.4617
21273SOL    HW265261   5.829   0.081   5.033  0.0097 -0.0322 -0.2332
21274SOL     OW65262   6.317   4.829   2.274 -0.0786  0.1682  0.8816
21274SOL    HW165263   6.379   4.819   2.346  1.3359  3.1098  0.2285
21274SOL    HW265264   6.260   4.901   2.301 -1.2899 -0.4865  0.1753
21275SOL     OW65265   7.184   7.454  11.080 -0.1709 -0.9704  0.1367
21275SOL    HW165266   7.254   7.408  11.127  0.4936 -1.3627 -1.1870
21275SOL    HW265267   7.192   7.545  11.107  0.9169 -0.9961 -0.0527
21276SOL     OW65268   2.801   7.729  12.067 -0.1882 -0.2576  0.0550
21276SOL    HW165269   2.819   7.764  11.980 -1.5406  0.7153  0.1483
21276SOL    HW265270   2.831   7.797  12.127 -0.7840 -0.2173  0.3068
21277SOL     OW65271   3.778   3.831   4.637 -0.0887 -0.2332 -0.0346
21277SOL    HW165272   3.801   3.744   4.670  0.4865 -0.1044 -0.0737
21277SOL    HW265273   3.726   3.814   4.559  1.7769 -0.5806 -1.2777
21278SOL     OW65274   6.188   2.246   6.060  0.0569 -0.0041 -0.1346
21278SOL    HW165275   6.250   2.319   6.070  1.1842 -0.9309 -0.2113
21278SOL    HW265276   6.201   2.216   5.970 -2.4767  1.5142 -1.1027
21279SOL     OW65277   2.236   5.734   2.521  0.1374 -0.3122 -0.3195
21279SOL    HW165278   2.234   5.803   2.587 -0.2640 -0.1325 -0.5130
21279SOL    HW265279   2.314   5.683   2.541 -1.9888 -2.7111  2.7493
21280SOL     OW65280   6.170   4.313   7.374 -0.2936 -0.0984  0.0524
21280SOL    HW165281   6.207   4.234   7.413 -0.2379 -0.6787 -1.1240
21280SOL    HW265282   6.138   4.285   7.288 -0.6682  1.0615 -0.2093
21281SOL     OW65283   2.613   2.205   4.156  0.4155 -0.2985  0.4980
21281SOL    HW165284   2.639   2.151   4.081 -0.5020  0.1455 -0.1705
21281SOL    HW265285   2.694   2.221   4.204  0.7032 -2.3016  0.7550
21282SOL     OW65286   1.754   4.105   1.325 -0.3183 -0.3823 -0.3087
21282SOL    HW165287   1.737   4.168   1.255 -2.7683 -0.7645 -0.1542
21282SOL    HW265288   1.720   4.147   1.404 -1.6380 -1.6550 -0.1399
21283SOL     OW65289   1.155   3.199   5.017 -0.1071  0.1977 -0.1467
21283SOL    HW165290   1.068   3.186   5.055  0.3412 -0.7242  0.6079
21283SOL    HW265291   1.138   3.227   4.927 -1.1738 -0.1051 -0.0532
21284SOL     OW65292   3.160   2.572   4.690 -0.1551 -0.5720  0.0250
21284SOL    HW165293   3.150   2.625   4.769  1.4584  3.1797 -2.0438
21284SOL    HW265294   3.230   2.615   4.641 -1.7087 -2.0807 -3.9100
21285SOL     OW65295   3.928   5.244  11.454  0.1798  0.5787  0.3432
21285SOL    HW165296   3.844   5.200  11.436  0.1167  0.8054  0.0874
21285SOL    HW265297   3.956   5.208  11.538  0.1678 -0.0149  0.0968
21286SOL     OW65298   5.023   2.070   6.357 -0.2376  0.6564 -0.0478
21286SOL    HW165299   4.931   2.098   6.359 -0.0860  1.2425 -0.6038
21286SOL    HW265300   5.061   2.120   6.284  0.0279 -1.1379 -1.2058
21287SOL     OW65301   2.878   3.970   4.633  0.2615 -0.8397  0.5419
21287SOL    HW165302   2.933   4.049   4.634  0.9266 -1.1818 -1.9409
21287SOL    HW265303   2.899   3.926   4.715 -0.5293  1.7710  2.2848
21288SOL     OW65304   3.167   7.765   4.290  0.4174  0.1947  0.5137
21288SOL    HW165305   3.176   7.855   4.319  1.3735  0.3630 -0.2467
21288SOL    HW265306   3.072   7.752   4.280  0.2647  1.0602  0.7515
21289SOL     OW65307   7.365   2.894   8.267 -0.0655 -0.2456 -0.3360
21289SOL    HW165308   7.340   2.910   8.358 -0.5421 -1.2109 -0.2959
21289SOL    HW265309   7.303   2.829   8.236  0.2459 -0.0968 -1.2858
21290SOL     OW65310   5.367   7.112  11.880 -0.1508 -0.3736 -0.0256
21290SOL    HW165311   5.423   7.157  11.816  0.1590  0.7813  1.0279
21290SOL    HW265312   5.421   7.039  11.911  0.1612 -0.2248 -0.2093
21291SOL     OW65313   0.694   2.829   5.221  0.1177 -0.4655  0.0519
21291SOL    HW165314   0.739   2.858   5.142  0.2678 -0.1843  0.2406
21291SOL    HW265315   0.632   2.763   5.190  1.2340 -1.4730 -0.1170
21292SOL     OW65316   5.617   5.033   5.204 -0.0302  0.2333 -0.1876
21292SOL    HW165317   5.548   5.089   5.240 -0.4317 -1.0129  1.1027
21292SOL    HW265318   5.603   4.948   5.247  3.0036  0.2295  1.0219
21293SOL     OW65319   5.429   0.569   0.285  0.3377  0.1151  0.1831
21293SOL    HW165320   5.387   0.635   0.229  0.8213 -1.1029 -1.7248
21293SOL    HW265321   5.366   0.552   0.355 -1.6036 -0.3210 -1.5808
21294SOL     OW65322   1.155   7.253   0.778  0.0185  0.1283 -0.2501
21294SOL    HW165323   1.118   7.300   0.853  1.0731  0.2563  0.2130
21294SOL    HW265324   1.245   7.286   0.771 -0.4675  1.1347 -2.4512
21295SOL     OW65325   6.692   2.580  12.109  0.3985  0.4619  0.0244
21295SOL    HW165326   6.604   2.579  12.146  0.4510  3.8542  0.5517
21295SOL    HW265327   6.750   2.598  12.183  1.6607 -1.7773 -0.2958
21296SOL     OW65328   0.086   4.719  12.244  0.1985  0.7541  0.3472
21296SOL    HW165329   0.088   4.717  12.148 -0.4703 -0.5604  0.3454
21296SOL    HW265330   0.004   4.764  12.265 -0.6402 -0.6944  0.2786
21297SOL     OW65331   0.384   4.872   2.572 -0.3821  0.0345  0.9336
21297SOL    HW165332   0.402   4.817   2.496  1.5364 -0.2753  1.5475
21297SOL    HW265333   0.470   4.885   2.613 -1.1744  1.2870  2.3028
21298SOL     OW65334   3.834   3.893   9.880  0.0322 -0.3088 -0.1006
21298SOL    HW165335   3.829   3.891   9.784 -2.6705  0.7801 -0.0910
21298SOL    HW265336   3.743   3.883   9.908  0.5167  1.1805  2.2940
21299SOL     OW65337   2.853   2.157   5.069  0.0436  0.5629 -0.5436
21299SOL    HW165338   2.873   2.251   5.071 -1.1013  0.8915 -2.2289
21299SOL    HW265339   2.921   2.119   5.014  0.1475  0.5028 -0.3743
21300SOL     OW65340   4.368   2.771   5.055  0.5426  0.1497 -0.1050
21300SOL    HW165341   4.329   2.856   5.032  0.9693  0.5291  0.5357
21300SOL    HW265342   4.451   2.794   5.096 -0.6522 -0.3842  2.9052
21301SOL     OW65343   1.387   4.950   2.496  0.5084 -0.0471 -0.7457
21301SOL    HW165344   1.332   4.943   2.575  1.1885 -1.5106 -0.3734
21301SOL    HW265345   1.325   4.970   2.426 -0.1917  0.6429  0.0426
21302SOL     OW65346   1.866   5.803   5.637  0.0595  0.4046 -0.1716
21302SOL    HW165347   1.897   5.718   5.667 -0.3206  0.3756  0.1425
21302SOL    HW265348   1.889   5.806   5.544  0.1034 -0.0230 -0.1727
21303SOL     OW65349   2.106   4.441   9.923 -0.3197  0.2821  0.9934
21303SOL    HW165350   2.027   4.386   9.923  0.4756 -0.9156  1.2888
21303SOL    HW265351   2.136   4.438   9.832 -0.5202  0.6046  0.9155
21304SOL     OW65352   5.776   2.619  10.100 -0.2305 -0.2258 -0.1077
21304SOL    HW165353   5.857   2.578  10.070 -0.4955 -0.8837  0.0670
21304SOL    HW265354   5.762   2.582  10.187 -0.6261  0.0186 -0.0686
21305SOL     OW65355   2.021   7.633   0.609 -0.2909 -0.1310  0.1220
21305SOL    HW165356   2.054   7.629   0.699  0.7573 -0.5724 -0.2597
21305SOL    HW265357   2.090   7.677   0.560 -1.1424  0.6975 -0.3581
21306SOL     OW65358   2.201   2.370   8.474 -0.1931 -0.2655 -0.1184
21306SOL    HW165359   2.136   2.383   8.542 -0.1121  3.8280 -0.5491
21306SOL    HW265360   2.267   2.312   8.513 -1.7979 -0.7661  1.9813
21307SOL     OW65361   6.957   2.149   5.987  0.2097  0.1567 -0.3403
21307SOL    HW165362   6.966   2.244   5.977 -0.8224  0.4431  1.0059
21307SOL    HW265363   7.009   2.112   5.917 -1.3635  1.7499 -2.5041
21308SOL     OW65364   1.515   7.213   8.674  0.2616 -0.0672 -0.0090
21308SOL    HW165365   1.584   7.232   8.739 -1.4842  2.6427  1.2715
21308SOL    HW265366   1.438   7.191   8.727 -0.7578  0.4464 -1.2352
21309SOL     OW65367   0.920   6.381   5.764 -0.4714 -0.0159 -0.1126
21309SOL    HW165368   0.842   6.409   5.717 -0.4716  0.8207  0.3710
21309SOL    HW265369   0.904   6.288   5.783 -1.5450  0.2498  0.3574
21310SOL     OW65370   7.574   0.132  11.091 -0.7472  0.0526 -0.0978
21310SOL    HW165371   7.630   0.205  11.118 -2.2057 -0.1347  4.2554
21310SOL    HW265372   7.628   0.054  11.107 -0.3012  0.0236 -1.6293
21311SOL     OW65373   2.223   3.354  10.997  0.0267  0.0651  0.0453
21311SOL    HW165374   2.142   3.336  11.045  0.2756 -0.1742  0.3806
21311SOL    HW265375   2.217   3.446  10.974 -0.1762  0.1379  0.3846
21312SOL     OW65376   7.580   4.365   3.530 -0.0335  0.9221  0.5182
21312SOL    HW165377   7.598   4.273   3.513  0.2683  0.7056  1.8668
21312SOL    HW265378   7.639   4.389   3.602 -0.2265  2.1193  0.3090
21313SOL     OW65379   5.617   6.304   0.983 -0.1285  0.2082  0.1954
21313SOL    HW165380   5.597   6.228   0.928  0.5915 -1.4607  2.1492
21313SOL    HW265381   5.711   6.318   0.972 -0.0128 -0.0302  0.8794
21314SOL     OW65382   4.577   1.941  11.750 -0.1576 -0.0705 -0.3474
21314SOL    HW165383   4.518   2.015  11.737  1.2760  1.2117  0.2370
21314SOL    HW265384   4.536   1.888  11.818  0.6873  2.3229  2.1717
21315SOL     OW65385   2.794   7.362   3.116  0.0002  0.2064  0.1741
21315SOL    HW165386   2.772   7.374   3.208  1.4977 -0.6700  0.6946
21315SOL    HW265387   2.711   7.368   3.069 -0.7144  1.2193  1.5125
21316SOL     OW65388   2.938   5.519   0.796  0.6129  0.1801 -0.1129
21316SOL    HW165389   2.967   5.451   0.735  2.0625  1.3482 -0.7822
21316SOL    HW265390   2.846   5.532   0.775  0.6831 -0.5606 -0.9497
21317SOL     OW65391   0.135   2.271   6.540 -0.1851 -0.0037 -0.2160
21317SOL    HW165392   0.053   2.291   6.495 -0.5295 -1.4473 -0.2856
21317SOL    HW265393   0.126   2.311   6.626 -0.3688  1.0258 -0.6907
21318SOL     OW65394   4.681   0.842   9.456  0.1665 -0.4264  0.2327
21318SOL    HW165395   4.642   0.911   9.510  1.1966  0.1844  0.2332
21318SOL    HW265396   4.775   0.858   9.461  0.3758 -1.3532 -0.4294
21319SOL     OW65397   3.275   4.031   3.623  0.3950 -0.7507 -0.8112
21319SOL    HW165398   3.307   3.964   3.683  2.8269  2.0880  1.3682
21319SOL    HW265399   3.180   4.028   3.632  0.3577 -3.9450 -1.0275
21320SOL     OW65400   5.209   1.319   0.946 -0.7867  0.0063  0.2217
21320SOL    HW165401   5.243   1.289   1.031  1.9271  0.5335 -0.5947
21320SOL    HW265402   5.203   1.414   0.954  0.9191  0.2197 -0.5907
21321SOL     OW65403   4.799   0.951   7.655 -0.2844  0.0468  0.1908
21321SOL    HW165404   4.884   0.993   7.664 -0.5714  0.9491 -0.9616
21321SOL    HW265405   4.737   1.024   7.649 -0.9236 -0.5495 -0.7102
21322SOL     OW65406   3.997   5.700  12.370 -0.1495  0.2978 -0.1409
21322SOL    HW165407   4.081   5.696  12.323 -0.0149  0.6182  0.0718
21322SOL    HW265408   4.018   5.743  12.453 -0.5533  0.4958 -0.1407
21323SOL     OW65409   0.712   5.262  10.522  0.0324 -0.0963  0.2494
21323SOL    HW165410   0.654   5.285  10.595  1.5270  0.1215  1.4276
21323SOL    HW265411   0.672   5.185  10.482  0.0801 -1.3145  2.4290
21324SOL     OW65412   5.373   5.166   2.760  0.0722  0.0135 -0.0439
21324SOL    HW165413   5.401   5.075   2.768 -0.7970 -0.1927  0.8412
21324SOL    HW265414   5.402   5.207   2.842 -0.6996  0.1999  0.1440
21325SOL     OW65415   0.781   7.400   9.225  0.2046  0.4283  0.4009
21325SOL    HW165416   0.871   7.432   9.227  1.3185 -2.1875 -1.8397
21325SOL    HW265417   0.788   7.305   9.232 -2.4753  0.1759  0.8945
21326SOL     OW65418   2.391   7.546  10.970  0.3409  0.1854 -0.2273
21326SOL    HW165419   2.401   7.571  11.062  0.4258 -0.2595 -0.1123
21326SOL    HW265420   2.318   7.485  10.969  0.5277 -0.0398 -0.4106
21327SOL     OW65421   1.211   0.981  11.790  0.5305  0.6989  0.2123
21327SOL    HW165422   1.299   1.001  11.759  0.1554 -0.2918 -1.5976
21327SOL    HW265423   1.224   0.943  11.877  1.9480  0.0161 -0.2731
21328SOL     OW65424   0.406   7.642   6.906 -0.1465  0.5279 -0.9042
21328SOL    HW165425   0.491   7.665   6.869  0.0836  0.5574 -0.3617
21328SOL    HW265426   0.387   7.712   6.967 -0.1767  0.0997 -0.4146
21329SOL     OW65427   6.109   0.701   3.088  0.0772  0.3547  1.0468
21329SOL    HW165428   6.082   0.613   3.115 -1.7436  0.7392  0.6240
21329SOL    HW265429   6.196   0.713   3.126  0.3593 -1.6193  1.1046
21330SOL     OW65430   7.495   7.910  10.709  0.1911  0.0431  0.1640
21330SOL    HW165431   7.527   7.913  10.619  0.6540 -1.1722  0.2722
21330SOL    HW265432   7.427   7.843  10.707  0.8534 -0.6667  0.9076
21331SOL     OW65433   2.393   3.721   1.593  0.2922  0.4065  0.3918
21331SOL    HW165434   2.434   3.687   1.513  0.6916 -0.8031  1.0947
21331SOL    HW265435   2.354   3.804   1.566  0.2132 -0.0953 -1.1230
21332SOL     OW65436   5.715   1.522   9.171  0.4107  0.3753  0.4718
21332SOL    HW165437   5.800   1.536   9.213  1.3512  1.8433 -1.7769
21332SOL    HW265438   5.726   1.556   9.082 -2.8896  1.7986  0.4715
21333SOL     OW65439   0.288   6.238  11.618 -0.8136 -0.1344  0.6946
21333SOL    HW165440   0.293   6.333  11.629 -2.0001 -0.1013  1.0757
21333SOL    HW265441   0.260   6.226  11.528 -1.2843 -0.1027  0.8361
21334SOL     OW65442   5.925   7.381   6.843 -0.1244  0.8097 -0.3425
21334SOL    HW165443   6.012   7.414   6.867  0.1597  0.6804 -1.1634
21334SOL    HW265444   5.864   7.436   6.892  0.4463 -1.1926  2.9134
21335SOL     OW65445   6.950   4.699   3.039  0.0495 -0.1026  0.3396
21335SOL    HW165446   6.929   4.791   3.057 -0.4831  0.0220 -0.8912
21335SOL    HW265447   7.034   4.703   2.993 -1.2908  0.0139 -2.2642
21336SOL     OW65448   0.533   2.972   0.496  0.0167 -0.2375 -0.0955
21336SOL    HW165449   0.450   2.984   0.541 -0.7679 -0.8019 -1.3066
21336SOL    HW265450   0.533   3.038   0.427 -0.3508 -1.4487 -1.3148
21337SOL     OW65451   5.455   2.261   8.213  0.1612 -0.8377  0.1134
21337SOL    HW165452   5.401   2.191   8.248  0.9317 -1.2705  0.4779
21337SOL    HW265453   5.544   2.238   8.241  0.3140  0.8123  1.1475
21338SOL     OW65454   6.238   0.548   0.518  0.0476  0.1618  0.3962
21338SOL    HW165455   6.314   0.565   0.573  1.3452  1.4751 -1.6720
21338SOL    HW265456   6.266   0.478   0.459 -0.2272  0.7916 -0.5128
21339SOL     OW65457   3.655   0.288   1.212  0.2683 -0.4143  0.5257
21339SOL    HW165458   3.740   0.262   1.249  0.0830 -0.6551  0.7893
21339SOL    HW265459   3.660   0.264   1.120  1.4100  1.7915 -0.0738
21340SOL     OW65460   0.284   3.770  10.069 -0.2462 -0.2928  0.0164
21340SOL    HW165461   0.314   3.731   9.987  3.1348  0.6368  0.6429
21340SOL    HW265462   0.283   3.864  10.053 -1.1391 -0.1962  0.5825
21341SOL     OW65463   4.650   6.954   0.299  0.8229 -0.1879  0.4236
21341SOL    HW165464   4.729   7.004   0.277  1.1192 -0.3079  1.1855
21341SOL    HW265465   4.591   7.019   0.339  0.4261 -0.0468 -0.3559
21342SOL     OW65466   7.769   3.935  10.162  0.0435  0.3694 -0.4762
21342SOL    HW165467   7.780   3.936  10.067 -1.0695 -0.6402 -0.6363
21342SOL    HW265468   7.676   3.918  10.175  0.5151 -1.4503  0.8042
21343SOL     OW65469   1.764   1.130   8.468 -0.1069 -0.2750  0.1749
21343SOL    HW165470   1.756   1.104   8.376  0.3824  0.7671 -0.1653
21343SOL    HW265471   1.857   1.150   8.480 -0.2154 -0.1338  0.8249
21344SOL     OW65472   7.553   6.932   4.988  0.5980  0.1104  0.3431
21344SOL    HW165473   7.510   6.851   4.961 -0.3743  0.5380  0.5690
21344SOL    HW265474   7.481   6.990   5.014  0.8568  2.3427 -3.1423
21345SOL     OW65475   3.999   4.117   5.856 -0.3012 -0.0066  0.0176
21345SOL    HW165476   4.018   4.115   5.762  0.3259  0.3647  0.1274
21345SOL    HW265477   3.905   4.133   5.862 -0.2823  0.3396 -0.5478
21346SOL     OW65478   4.756   1.759   3.151 -0.0705  0.1999 -0.3692
21346SOL    HW165479   4.791   1.688   3.205  2.8888  0.3457 -1.8517
21346SOL    HW265480   4.776   1.839   3.201  0.1617  0.1752 -0.4180
21347SOL     OW65481   1.048   2.528   0.296 -0.0282 -0.0243 -0.4531
21347SOL    HW165482   1.139   2.499   0.305 -0.5493 -1.7368 -0.4399
21347SOL    HW265483   1.002   2.485   0.368 -0.9170  0.6254 -0.6118
21348SOL     OW65484   2.194   6.229   8.591  0.1698 -0.1369  0.4025
21348SOL    HW165485   2.162   6.147   8.627  1.7903 -0.5842  0.9078
21348SOL    HW265486   2.274   6.206   8.544  0.6104  1.1339  0.4826
21349SOL     OW65487   1.091   1.732   1.177 -0.2216 -0.3774  0.1315
21349SOL    HW165488   1.040   1.684   1.242 -1.0625 -0.1058 -0.3091
21349SOL    HW265489   1.120   1.665   1.115 -1.2062 -0.3596 -0.3634
21350SOL     OW65490   7.350   1.493   6.503 -0.1829 -0.6253  0.4410
21350SOL    HW165491   7.403   1.461   6.430  0.5191  1.2726  0.0800
21350SOL    HW265492   7.263   1.506   6.465  0.1966  0.4228 -0.0938
21351SOL     OW65493   3.543   3.935   1.384 -0.0624 -0.3447 -0.1408
21351SOL    HW165494   3.521   3.842   1.383 -1.1227 -0.1256  1.0069
21351SOL    HW265495   3.573   3.952   1.473  0.1644  0.4094 -0.3538
21352SOL     OW65496   7.960   1.853   0.246  0.1956 -0.7454  0.0808
21352SOL    HW165497   8.055   1.848   0.234  0.2176 -0.1318 -0.0493
21352SOL    HW265498   7.944   1.811   0.330  0.7099  0.1102  0.6192
21353SOL     OW65499   3.679   4.664   1.987 -0.4917  0.3702 -0.5233
21353SOL    HW165500   3.740   4.737   1.983 -1.9700  1.7691  0.7613
21353SOL    HW265501   3.732   4.588   2.012  0.8408  1.3361 -0.3690
21354SOL     OW65502   5.353   0.387  11.716  0.3746 -0.4395 -0.6959
21354SOL    HW165503   5.386   0.298  11.732 -0.3998 -0.3463  1.8255
21354SOL    HW265504   5.422   0.429  11.665  0.5030 -2.6188 -2.5073
21355SOL     OW65505   3.071   6.136   4.060 -0.0822  0.1580 -0.0439
21355SOL    HW165506   3.087   6.072   4.129 -0.3558  0.0904 -0.0422
21355SOL    HW265507   3.054   6.084   3.982 -0.7451  0.2184  0.0537
21356SOL     OW65508   1.790   0.063   5.444  0.4837  0.3313  0.0370
21356SOL    HW165509   1.737   0.097   5.372  0.0989 -2.4322 -1.1082
21356SOL    HW265510   1.812   0.141   5.496 -0.0444  2.3149 -2.4822
21357SOL     OW65511   7.025   5.847   6.630  0.3025  0.3597 -0.4243
21357SOL    HW165512   6.989   5.791   6.700 -3.4292  1.9838 -0.7980
21357SOL    HW265513   7.036   5.932   6.672 -0.0429  0.8459 -1.3030
21358SOL     OW65514   0.221   3.222   1.309 -0.2132 -0.8639  0.2842
21358SOL    HW165515   0.178   3.281   1.370 -0.1691 -0.2758 -0.2399
21358SOL    HW265516   0.263   3.157   1.364 -0.0121 -0.2340  0.8917
21359SOL     OW65517   0.059   4.225   5.235 -0.3561 -0.3855  0.0281
21359SOL    HW165518   0.111   4.183   5.167  0.4963  1.3092 -0.3950
21359SOL    HW265519   0.073   4.319   5.223 -0.7449 -0.0099  2.0990
21360SOL     OW65520   1.441   2.609  11.477 -0.1390 -0.6821 -0.3316
21360SOL    HW165521   1.449   2.704  11.486  0.2967 -0.5390 -1.8120
21360SOL    HW265522   1.394   2.581  11.555 -0.8485  0.8358 -0.1686
21361SOL     OW65523   1.824   7.803   2.226  0.6368  0.2598 -0.2849
21361SOL    HW165524   1.861   7.750   2.156  1.7617 -0.8912  1.1298
21361SOL    HW265525   1.819   7.891   2.189 -0.3136 -0.5894 -2.3358
21362SOL     OW65526   0.171   5.875  12.036 -0.1070 -0.2325  0.2658
21362SOL    HW165527   0.218   5.958  12.043 -0.6779  0.0680  0.5245
21362SOL    HW265528   0.080   5.899  12.019  0.1183 -0.8204 -2.1774
21363SOL     OW65529   4.672   3.437   3.876 -0.5536  0.1978 -0.2486
21363SOL    HW165530   4.746   3.441   3.936 -1.4073 -0.3852  0.8807
21363SOL    HW265531   4.709   3.459   3.790  1.3886 -2.2601 -0.1603
21364SOL     OW65532   5.115   4.178   8.165 -0.3383  0.7179  0.5929
21364SOL    HW165533   5.101   4.163   8.072  0.9299  1.3139  0.2932
21364SOL    HW265534   5.046   4.239   8.191  1.5248  3.6257 -0.8437
21365SOL     OW65535   4.703   7.711   3.718  0.1086  0.8100  0.0650
21365SOL    HW165536   4.738   7.670   3.796  0.9602  1.4687  0.0430
21365SOL    HW265537   4.631   7.653   3.691  0.8282 -0.2856  0.4144
21366SOL     OW65538   6.124   0.997   6.783 -0.2518 -0.1584  0.3824
21366SOL    HW165539   6.090   0.992   6.873  0.3209  0.4148  0.6383
21366SOL    HW265540   6.164   1.084   6.778  1.6163 -0.9903  0.2477
21367SOL     OW65541   6.007   1.003   4.621  0.5272 -0.1163 -0.3118
21367SOL    HW165542   5.988   0.979   4.530  1.2773 -0.7072 -0.3246
21367SOL    HW265543   6.000   1.098   4.623 -1.0019 -0.1947 -0.6273
21368SOL     OW65544   1.475   6.078  11.585 -0.5402  0.2749 -0.4285
21368SOL    HW165545   1.453   6.170  11.601  1.6386  0.8977 -0.7432
21368SOL    HW265546   1.545   6.080  11.520  0.9353 -1.4756  0.9907
21369SOL     OW65547   1.068   1.389   6.008  0.0330 -0.0544  0.9825
21369SOL    HW165548   1.011   1.322   5.972 -0.6306  0.8490  0.3065
21369SOL    HW265549   1.071   1.370   6.102  1.4077 -2.1458  0.5734
21370SOL     OW65550   6.771   4.772   2.843 -0.6937  0.4791  0.2265
21370SOL    HW165551   6.780   4.678   2.830 -1.0208  0.3812  0.6754
21370SOL    HW265552   6.826   4.791   2.919 -0.5914  0.6594  0.1083
21371SOL     OW65553   4.851   2.091   7.094  0.0283  0.4108  0.0806
21371SOL    HW165554   4.898   2.076   7.012 -0.8998 -0.5997 -0.2890
21371SOL    HW265555   4.837   2.186   7.097  1.0772  0.5857 -0.3527
21372SOL     OW65556   3.615   3.498   5.146  0.9021 -0.0378  0.3901
21372SOL    HW165557   3.541   3.446   5.114  1.3282 -1.0832  1.0549
21372SOL    HW265558   3.624   3.568   5.081 -2.9311  2.3725  2.0658
21373SOL     OW65559   0.006   3.963   5.691 -0.6596  0.5072 -0.1516
21373SOL    HW165560   0.050   4.015   5.624 -0.3493 -1.6948 -1.7646
21373SOL    HW265561  -0.083   3.999   5.695 -0.3160  1.4741 -0.8114
21374SOL     OW65562   0.719   7.807   1.898 -0.1691  0.1183 -0.5067
21374SOL    HW165563   0.711   7.722   1.854 -0.3337  0.8659 -1.9634
21374SOL    HW265564   0.774   7.860   1.840 -0.1787  1.0708  0.3139
21375SOL     OW65565   1.374   5.920   6.527 -0.1787  0.5092 -0.1951
21375SOL    HW165566   1.395   5.972   6.605  1.2860  0.5760 -0.6035
21375SOL    HW265567   1.361   5.986   6.458  0.4652  0.3835 -0.4387
21376SOL     OW65568   6.820   5.237   7.575  0.2509  0.1943  0.0649
21376SOL    HW165569   6.907   5.215   7.542 -0.3462  1.8588 -2.9625
21376SOL    HW265570   6.764   5.167   7.543 -0.0038  0.7505 -0.7268
21377SOL     OW65571   5.195   0.558   5.105  0.2434 -0.0194 -0.0098
21377SOL    HW165572   5.120   0.508   5.073  1.9103 -1.2656 -2.2299
21377SOL    HW265573   5.271   0.508   5.078  2.0273 -0.3368  4.6258
21378SOL     OW65574   0.199   7.229   4.839  0.3719 -0.1781 -0.1626
21378SOL    HW165575   0.188   7.265   4.927 -0.4771 -0.6289 -0.0846
21378SOL    HW265576   0.113   7.234   4.799  1.3176  3.1347 -2.2030
21379SOL     OW65577   5.784   2.493   6.787 -0.2131 -1.3184  0.1415
21379SOL    HW165578   5.855   2.557   6.792 -1.1721 -0.2464  0.6585
21379SOL    HW265579   5.782   2.466   6.695  0.2911 -0.6740 -0.0666
21380SOL     OW65580   3.118   2.420   7.830 -0.2606 -0.2437  0.2546
21380SOL    HW165581   3.137   2.327   7.840 -1.0657 -0.5513 -0.9829
21380SOL    HW265582   3.056   2.439   7.900  0.0839 -0.5707  0.6577
21381SOL     OW65583   0.330   7.584   9.551  0.3325  0.7003 -0.2476
21381SOL    HW165584   0.392   7.595   9.622 -0.1967 -0.0573  0.3495
21381SOL    HW265585   0.305   7.491   9.554 -0.6194  0.9253 -0.6379
21382SOL     OW65586   7.930   3.655   4.141  0.1787  0.4444  0.2632
21382SOL    HW165587   7.905   3.661   4.234  0.5638  2.5712  0.2790
21382SOL    HW265588   7.966   3.741   4.121  2.1633 -0.6687 -1.2942
21383SOL     OW65589   6.525   1.476   2.116 -0.0672  0.3249 -0.0027
21383SOL    HW165590   6.560   1.554   2.159  0.0895  0.3502 -0.1751
21383SOL    HW265591   6.573   1.403   2.156  0.9983  0.4388 -1.0378
21384SOL     OW65592   3.286   5.236  11.792 -0.0589  0.0329 -0.6240
21384SOL    HW165593   3.338   5.159  11.767  0.0723 -0.1085  0.0776
21384SOL    HW265594   3.257   5.218  11.881 -0.4254  0.5871 -0.6280
21385SOL     OW65595   1.649   4.193  11.929 -0.4472 -0.2534  0.3127
21385SOL    HW165596   1.640   4.199  12.024  3.3453  2.8151  0.7565
21385SOL    HW265597   1.706   4.117  11.915 -1.1133 -0.7849  0.4664
21386SOL     OW65598   2.061   7.245   6.571 -0.3923 -0.2897 -0.1735
21386SOL    HW165599   2.142   7.211   6.609 -0.9889 -2.2803 -0.5719
21386SOL    HW265600   2.041   7.186   6.499 -2.9419 -0.7585  0.7949
21387SOL     OW65601   5.049   1.755   6.118 -0.5404  0.0484 -0.4160
21387SOL    HW165602   5.120   1.801   6.074 -0.6340  1.2313  0.6053
21387SOL    HW265603   5.082   1.666   6.130  0.0568  0.1068 -1.5233
21388SOL     OW65604   6.969   1.598   3.591 -0.1951 -0.4482 -0.0622
21388SOL    HW165605   6.915   1.545   3.534 -1.6961 -1.0687  1.8296
21388SOL    HW265606   6.920   1.604   3.673  2.9432 -1.7751  2.1318
21389SOL     OW65607   6.604   6.561  11.614 -1.2551  0.2682 -0.1869
21389SOL    HW165608   6.575   6.625  11.549  1.6927  1.5565 -0.3804
21389SOL    HW265609   6.692   6.535  11.586 -1.3291 -1.9593  1.3216
21390SOL     OW65610   7.580   2.463   9.202 -0.0663 -0.4624  0.3559
21390SOL    HW165611   7.503   2.496   9.248 -0.9937 -0.8228 -0.8928
21390SOL    HW265612   7.563   2.482   9.109 -0.2257 -3.5361 -0.3533
21391SOL     OW65613   6.788   6.686   7.792  0.2792  0.2031 -0.0688
21391SOL    HW165614   6.779   6.675   7.697 -0.0862 -2.7834  0.1975
21391SOL    HW265615   6.856   6.623   7.816 -0.5083  0.0099  1.7846
21392SOL     OW65616   0.083   7.705   3.738 -0.3264 -0.3623  0.5395
21392SOL    HW165617   0.052   7.653   3.663  0.8522  0.3286 -0.4770
21392SOL    HW265618   0.004   7.726   3.787 -0.9213 -2.4923  0.6024
21393SOL     OW65619   2.700   7.966   6.461  0.1192  0.0942 -0.2399
21393SOL    HW165620   2.702   7.871   6.475 -0.1445  0.1217 -0.0066
21393SOL    HW265621   2.720   7.977   6.368  2.7125 -0.0518  0.2317
21394SOL     OW65622   3.791   4.127   0.774  0.2715  0.3455 -0.4168
21394SOL    HW165623   3.853   4.134   0.701 -0.6378  2.2510 -1.0554
21394SOL    HW265624   3.706   4.147   0.736 -0.4795 -0.2626  0.8628
21395SOL     OW65625   0.187   6.487   6.875 -0.5954  0.0891 -0.2231
21395SOL    HW165626   0.270   6.485   6.924 -0.1293 -2.0528 -0.9661
21395SOL    HW265627   0.126   6.436   6.929 -1.6345  2.0767  0.5647
21396SOL     OW65628   3.773   3.129   1.672  0.4221  0.4504 -0.5360
21396SOL    HW165629   3.800   3.169   1.755  0.6888 -2.0844  0.7013
21396SOL    HW265630   3.850   3.083   1.641 -0.2988 -0.4324 -1.0575
21397SOL     OW65631   7.634   6.072   9.425  0.4180  0.2024 -0.1202
21397SOL    HW165632   7.712   6.034   9.386 -0.0493  0.0493 -0.9098
21397SOL    HW265633   7.656   6.079   9.518  0.5851 -1.8234  0.0384
21398SOL     OW65634   3.589   2.303  12.043 -1.0065 -0.4992  0.2493
21398SOL    HW165635   3.515   2.298  11.981 -0.3327 -0.9045 -0.5461
21398SOL    HW265636   3.625   2.214  12.043 -1.1653 -0.5754  1.4592
21399SOL     OW65637   1.891   3.351   7.079  0.8449  0.1620 -0.1102
21399SOL    HW165638   1.986   3.344   7.086  0.7168 -0.8829  0.7345
21399SOL    HW265639   1.857   3.276   7.128 -0.4303  0.9822  0.3130
21400SOL     OW65640   7.124   4.885   8.959 -0.4751 -0.1931  0.1512
21400SOL    HW165641   7.164   4.802   8.985  2.1773  0.9513  0.1279
21400SOL    HW265642   7.053   4.898   9.021 -0.0077 -1.7859  1.0902
21401SOL     OW65643   7.962   7.701   0.377  0.1000 -0.1159  0.1208
21401SOL    HW165644   8.002   7.775   0.331 -2.9816  0.6912 -1.5888
21401SOL    HW265645   8.023   7.629   0.364  0.8346  0.8564 -2.7690
21402SOL     OW65646   3.342   1.049  11.248  0.1195  0.0318  0.0315
21402SOL    HW165647   3.307   0.996  11.176  0.1164  1.2930 -0.9254
21402SOL    HW265648   3.433   1.019  11.257  0.1528 -0.0726 -0.5671
21403SOL     OW65649   6.865   2.465   6.340  0.1182  0.1934  0.3917
21403SOL    HW165650   6.909   2.414   6.409  0.3030 -1.1080 -0.6503
21403SOL    HW265651   6.836   2.399   6.276 -2.4834  1.0832  0.5231
21404SOL     OW65652   2.668   5.883   0.949  0.8145  0.4705  0.1177
21404SOL    HW165653   2.622   5.826   1.010  0.4207  0.9027  0.2322
21404SOL    HW265654   2.605   5.952   0.929  1.5732  1.3638  0.6867
21405SOL     OW65655   4.727   3.615   8.665 -0.4786  0.3146  0.3938
21405SOL    HW165656   4.646   3.663   8.682 -0.1715  0.9769  0.0250
21405SOL    HW265657   4.782   3.633   8.742 -0.8803 -0.5747  0.8950
21406SOL     OW65658   4.983   4.116   4.327 -0.0351 -0.2911 -0.1359
21406SOL    HW165659   4.950   4.199   4.363 -0.4413 -0.5979  0.2119
21406SOL    HW265660   5.056   4.142   4.271  1.4602  0.1338  1.8477
21407SOL     OW65661   2.845   6.472  11.557  0.0412  0.4762 -0.2462
21407SOL    HW165662   2.862   6.523  11.477 -1.2668  1.4930  0.0842
21407SOL    HW265663   2.931   6.442  11.585  0.4666 -0.5230 -2.4134
21408SOL     OW65664   4.304   7.369   1.077 -0.4545 -0.5589  0.1969
21408SOL    HW165665   4.376   7.430   1.091 -0.4860 -0.9487  2.2583
21408SOL    HW265666   4.336   7.285   1.109 -1.6276 -0.8599  0.6249
21409SOL     OW65667   5.807   5.406   7.472 -0.0938  0.0269  0.1239
21409SOL    HW165668   5.829   5.484   7.422  1.2601 -0.6102 -0.3408
21409SOL    HW265669   5.770   5.346   7.408  0.9858 -0.5261 -0.0180
21410SOL     OW65670   4.098   6.894   6.258  0.4058  0.3440 -0.3015
21410SOL    HW165671   4.106   6.944   6.339  0.2498 -0.9437  0.5487
21410SOL    HW265672   4.167   6.929   6.202  0.7975  0.9846  0.5454
21411SOL     OW65673   3.969   6.319   2.513  0.3062  0.1128 -0.6164
21411SOL    HW165674   3.899   6.351   2.457 -1.7490 -2.2907  0.4091
21411SOL    HW265675   3.993   6.234   2.475 -0.0425 -0.8373  1.2135
21412SOL     OW65676   6.146   7.577  10.599 -1.1165  0.6794  0.5912
21412SOL    HW165677   6.163   7.634  10.524 -1.3852  0.7745  0.6014
21412SOL    HW265678   6.231   7.539  10.620 -1.0347  0.6679  0.2502
21413SOL     OW65679   2.300   5.028  12.320 -0.1269  0.0136  0.4425
21413SOL    HW165680   2.361   5.087  12.364  0.2181  1.4033 -1.7373
21413SOL    HW265681   2.248   5.085  12.263 -0.9251 -1.5896 -0.5201
21414SOL     OW65682   0.514   1.783  11.620  0.5067 -0.2154  0.2429
21414SOL    HW165683   0.504   1.700  11.667  0.2059 -0.0111  0.5406
21414SOL    HW265684   0.489   1.762  11.530 -1.0200 -0.1169  0.6129
21415SOL     OW65685   2.188   0.145  11.498 -0.3023 -1.2174  0.6359
21415SOL    HW165686   2.233   0.084  11.440 -0.8073  0.0555 -1.1927
21415SOL    HW265687   2.212   0.117  11.587  0.9325 -2.9061 -0.1819
21416SOL     OW65688   7.043   5.042   8.580  0.3749 -0.1992  0.0471
21416SOL    HW165689   7.003   4.974   8.526 -0.2036  0.3217 -0.2038
21416SOL    HW265690   7.125   5.004   8.611  1.2074 -0.1809 -1.9822
21417SOL     OW65691   0.850   4.711   1.337  0.1467 -0.3273 -0.0836
21417SOL    HW165692   0.864   4.739   1.428  0.7996 -0.3298 -0.1798
21417SOL    HW265693   0.872   4.618   1.337 -1.2353 -0.6902  0.0558
21418SOL     OW65694   2.117   4.080   4.125  0.4327  0.1327  0.0386
21418SOL    HW165695   2.119   3.989   4.096 -1.2648  0.0170  0.1923
21418SOL    HW265696   2.121   4.076   4.220  1.4536  0.2920  0.0146
21419SOL     OW65697   3.383   7.638  11.909 -0.0141 -0.2676 -0.0082
21419SOL    HW165698   3.315   7.582  11.945  0.6735 -0.9100  0.3336
21419SOL    HW265699   3.338   7.694  11.846 -0.7017 -1.3274 -0.4975
21420SOL     OW65700   4.208   2.703   7.491 -0.5074 -0.0199 -0.2908
21420SOL    HW165701   4.261   2.708   7.571 -0.7826  0.7202 -0.1505
21420SOL    HW265702   4.122   2.736   7.517 -0.2212  1.5570 -1.2130
21421SOL     OW65703   1.265   6.320   7.899 -0.6063 -0.0216 -0.5805
21421SOL    HW165704   1.197   6.261   7.866  0.4625 -0.2943 -2.4325
21421SOL    HW265705   1.336   6.313   7.835  0.3652  1.7644  0.2242
21422SOL     OW65706   7.913   5.679   3.243 -0.3248 -0.2979 -0.4350
21422SOL    HW165707   7.921   5.707   3.152 -0.1908  1.4261  0.0709
21422SOL    HW265708   8.001   5.650   3.266 -0.4800 -1.2634 -0.9937
21423SOL     OW65709   3.117   2.019   4.591  0.4843  0.1371 -0.9779
21423SOL    HW165710   3.207   1.993   4.570  0.5743 -0.4899  0.1555
21423SOL    HW265711   3.066   1.987   4.517  1.1225  0.1144 -1.4243
21424SOL     OW65712   6.428   7.640   7.404  0.3626 -0.5934 -0.0121
21424SOL    HW165713   6.486   7.565   7.389  0.8770 -0.3384  0.6584
21424SOL    HW265714   6.466   7.710   7.352  0.7465 -0.3832  0.5502
21425SOL     OW65715   6.435   1.354   1.120 -0.1558 -0.7332  0.0921
21425SOL    HW165716   6.390   1.281   1.163  0.3936 -2.0806 -1.5006
21425SOL    HW265717   6.365   1.402   1.075 -0.4874 -0.4089  0.9389
21426SOL     OW65718   0.775   7.552  10.797 -0.3077  0.0871 -0.0649
21426SOL    HW165719   0.781   7.464  10.760 -0.3483 -0.1968  0.5794
21426SOL    HW265720   0.833   7.605  10.744 -0.9432 -0.1369 -1.0080
21427SOL     OW65721   1.803   6.218   6.767 -0.5415  0.5308  0.0854
21427SOL    HW165722   1.735   6.261   6.714 -1.6502  0.2553  1.2353
21427SOL    HW265723   1.828   6.141   6.716  0.3967  1.7009 -1.2984
21428SOL     OW65724   0.211   7.008   8.487 -0.0320 -0.3985 -0.0062
21428SOL    HW165725   0.258   7.042   8.563  1.1868 -0.4669 -0.7016
21428SOL    HW265726   0.256   7.047   8.412 -0.3683 -1.3756 -0.7292
21429SOL     OW65727   0.862   0.024   5.759 -0.1661 -0.1022 -0.4276
21429SOL    HW165728   0.862   0.086   5.832  2.9358 -1.3311  0.7910
21429SOL    HW265729   0.923   0.061   5.696  0.2892 -0.9969 -0.5297
21430SOL     OW65730   1.701   0.168   1.879 -0.1211 -0.0962  0.2002
21430SOL    HW165731   1.750   0.193   1.801  0.1135  0.3923  0.4983
21430SOL    HW265732   1.610   0.189   1.858 -0.1175 -0.3659 -0.0984
21431SOL     OW65733   0.429   5.804   6.477 -0.3064 -0.5512  0.2161
21431SOL    HW165734   0.484   5.757   6.415 -1.1194 -1.1293 -0.0777
21431SOL    HW265735   0.396   5.736   6.536 -3.0998 -0.7522 -1.4057
21432SOL     OW65736   7.266   3.280   0.629  0.1203 -0.0541  0.4221
21432SOL    HW165737   7.177   3.281   0.663 -0.0045 -0.4858  0.1169
21432SOL    HW265738   7.294   3.371   0.631 -0.4670  0.1342  0.1490
21433SOL     OW65739   0.431   5.138   6.410 -0.2741  0.5681  0.0833
21433SOL    HW165740   0.347   5.145   6.454  0.4852  0.3463  1.6468
21433SOL    HW265741   0.424   5.059   6.356 -0.8575  0.2026  0.6822
21434SOL     OW65742   7.681   4.817   7.715 -0.9432  0.2891  0.2394
21434SOL    HW165743   7.680   4.830   7.621  0.9110 -0.9375  0.0078
21434SOL    HW265744   7.589   4.800   7.738 -1.3400  0.1144 -1.4054
21435SOL     OW65745   7.597   3.182   7.834 -0.6232 -0.6966  0.5923
21435SOL    HW165746   7.688   3.167   7.810 -1.0214 -1.8208 -0.3109
21435SOL    HW265747   7.586   3.135   7.917 -0.6318 -1.4604  0.1732
21436SOL     OW65748   7.899   5.368   2.653 -0.1871  0.0267 -0.4654
21436SOL    HW165749   7.979   5.363   2.705  0.0877  0.6442 -0.8155
21436SOL    HW265750   7.929   5.384   2.563 -0.7140  1.3241 -0.4388
21437SOL     OW65751   1.874   3.018   2.989 -0.2390 -0.3810 -0.1862
21437SOL    HW165752   1.961   3.054   2.974 -1.0446  0.5537 -3.3660
21437SOL    HW265753   1.819   3.095   3.005 -0.8326 -0.7647 -0.3314
21438SOL     OW65754   3.222   7.014   9.456 -1.0021 -0.0319 -0.3523
21438SOL    HW165755   3.184   7.048   9.375 -0.0435 -0.4026 -0.9758
21438SOL    HW265756   3.173   7.058   9.526  1.1132  3.8953 -1.0434
21439SOL     OW65757   7.438   1.220   1.041  0.1773  0.3605  0.3254
21439SOL    HW165758   7.347   1.216   1.011  0.1660  1.9605  0.0565
21439SOL    HW265759   7.479   1.143   1.002 -1.0150 -0.3038  0.3181
21440SOL     OW65760   6.337   1.316   1.617  0.2075  0.3190  0.2088
21440SOL    HW165761   6.384   1.302   1.699 -1.8035 -1.3377  1.1995
21440SOL    HW265762   6.367   1.245   1.560 -0.5511 -0.3527  0.6173
21441SOL     OW65763   0.648   4.396   1.440 -0.9550  0.1320 -0.6317
21441SOL    HW165764   0.690   4.340   1.375  0.7198  0.4331  0.1323
21441SOL    HW265765   0.569   4.348   1.465  1.3754 -3.0820  1.5142
21442SOL     OW65766   4.768   4.801  10.043 -0.0633  0.4943  0.0020
21442SOL    HW165767   4.851   4.833  10.078  0.1145  0.0265  0.0159
21442SOL    HW265768   4.790   4.716  10.004 -0.4469  0.5719 -0.3913
21443SOL     OW65769   2.844   5.935   7.028  0.2847  0.4557 -0.4813
21443SOL    HW165770   2.749   5.939   7.022 -0.2210 -2.7194  2.3911
21443SOL    HW265771   2.870   6.017   7.069 -1.5274  0.4122  0.8463
21444SOL     OW65772   1.223   1.660   4.562  0.2402  0.3191 -0.1329
21444SOL    HW165773   1.204   1.580   4.611 -1.0003  0.6420 -0.0439
21444SOL    HW265774   1.142   1.711   4.566  0.1030  0.3973 -2.4410
21445SOL     OW65775   1.756   6.551   1.823 -0.3497  0.1866 -0.4890
21445SOL    HW165776   1.764   6.618   1.755 -2.1958  1.0956  0.1213
21445SOL    HW265777   1.777   6.597   1.905 -1.1025 -0.1155 -0.1199
21446SOL     OW65778   7.672   3.919   2.966  0.2357 -0.0312  0.4956
21446SOL    HW165779   7.646   3.834   3.000  2.4775 -0.8902  0.2481
21446SOL    HW265780   7.678   3.907   2.872 -2.8129  1.4495 -0.0074
21447SOL     OW65781   4.271   5.822   8.824 -0.2029  0.2098 -0.1494
21447SOL    HW165782   4.285   5.906   8.868 -0.8219 -0.5551  1.5701
21447SOL    HW265783   4.344   5.767   8.853 -0.2198 -0.1011 -0.6723
21448SOL     OW65784   6.284   1.083   9.435 -0.4502 -0.6136  0.6896
21448SOL    HW165785   6.295   1.005   9.489 -0.6125 -0.2419  1.2578
21448SOL    HW265786   6.367   1.130   9.443 -0.0959 -1.0603 -0.1997
21449SOL     OW65787   7.424   6.528  10.108 -0.6088 -0.5893  0.1181
21449SOL    HW165788   7.465   6.448  10.141 -1.9881 -0.3970  2.4987
21449SOL    HW265789   7.330   6.513  10.119 -0.8801  1.5869  1.3000
21450SOL     OW65790   0.413   5.373  10.295 -0.3673  0.3254  0.0556
21450SOL    HW165791   0.488   5.316  10.315 -1.0726 -0.8062 -0.4094
21450SOL    HW265792   0.382   5.402  10.381 -1.2063 -1.6199  0.4547
21451SOL     OW65793   0.053   3.037   6.724  0.6616  0.0050  0.2972
21451SOL    HW165794  -0.040   3.059   6.716  0.6200  0.3235  1.5353
21451SOL    HW265795   0.062   3.000   6.811  1.5353 -0.9354 -0.1740
21452SOL     OW65796   7.760   5.539   7.763 -0.0992  0.4057  0.1883
21452SOL    HW165797   7.854   5.539   7.751 -0.1086  1.2411  0.0995
21452SOL    HW265798   7.739   5.448   7.785  0.6998  0.1842  0.0587
21453SOL     OW65799   5.957   0.987  12.163  0.4909 -0.3704  0.0243
21453SOL    HW165800   5.954   1.067  12.111  0.4950 -0.2309  0.2369
21453SOL    HW265801   5.967   1.018  12.253 -0.6827 -0.5778  0.2317
21454SOL     OW65802   4.518   3.018   0.004  0.0368  0.3532 -0.4122
21454SOL    HW165803   4.546   2.927   0.008  0.2462  0.4048 -0.6848
21454SOL    HW265804   4.597   3.068   0.027  0.1336  0.4949 -1.0422
21455SOL     OW65805   6.038   3.184   0.264  0.3799 -0.1838  0.0072
21455SOL    HW165806   6.115   3.153   0.314  1.3332  2.5193  0.3660
21455SOL    HW265807   5.965   3.169   0.324  0.9624 -0.5369  0.6659
21456SOL     OW65808   4.918   3.784   6.927  0.1720  0.0996 -0.2208
21456SOL    HW165809   4.892   3.783   6.835 -0.4016 -0.8091 -0.0660
21456SOL    HW265810   4.837   3.768   6.975  0.8941 -2.4676  0.2941
21457SOL     OW65811   0.860   3.624   0.747 -0.6265  0.6163  0.4134
21457SOL    HW165812   0.924   3.676   0.796 -0.2674  0.1854  0.4109
21457SOL    HW265813   0.902   3.538   0.737 -1.2538  0.2955  0.5076
21458SOL     OW65814   5.648   7.319  12.406  0.2080  0.2728  0.2006
21458SOL    HW165815   5.567   7.273  12.428 -0.7791  1.8501  0.0609
21458SOL    HW265816   5.708   7.298  12.477 -0.4553 -0.5879  0.5241
21459SOL     OW65817   6.748   1.643  10.312  0.0745  0.1384  0.2970
21459SOL    HW165818   6.824   1.590  10.289 -0.5598 -1.0940  0.9366
21459SOL    HW265819   6.750   1.717  10.250  0.1688 -1.4069 -1.6386
21460SOL     OW65820   1.417   1.376   8.741 -0.5018 -0.6287 -0.4152
21460SOL    HW165821   1.352   1.397   8.674  0.5641  0.8846 -1.0323
21460SOL    HW265822   1.501   1.384   8.696  0.2786  0.9484  1.1813
21461SOL     OW65823   0.817   2.267  10.440 -0.0375  0.6273  0.4830
21461SOL    HW165824   0.871   2.344  10.423  0.1433  0.5663  0.7613
21461SOL    HW265825   0.809   2.265  10.536  3.4611 -2.0186  0.9435
21462SOL     OW65826   0.927   0.495   9.210  0.2116  0.1019 -0.3783
21462SOL    HW165827   0.916   0.579   9.254  2.1358 -0.4512  1.3337
21462SOL    HW265828   0.976   0.441   9.273 -0.3858 -2.0918 -1.6730
21463SOL     OW65829   5.889   2.976   2.044  0.0123 -0.0866 -0.2280
21463SOL    HW165830   5.899   2.918   1.969 -0.9583  0.3160 -0.6871
21463SOL    HW265831   5.971   3.026   2.047 -1.0836  2.0970 -2.9520
21464SOL     OW65832   5.973   7.500   2.371 -0.1342  0.2423 -0.2319
21464SOL    HW165833   5.927   7.508   2.288 -0.9190  1.6542  0.3084
21464SOL    HW265834   5.949   7.579   2.420  0.0940 -0.6725  1.4471
21465SOL     OW65835   4.916   0.637  10.368 -0.1286  0.0348  0.1056
21465SOL    HW165836   4.933   0.728  10.392 -1.3899  0.7743 -1.5635
21465SOL    HW265837   4.934   0.634  10.274  1.4790 -1.8808  0.4272
21466SOL     OW65838   4.541   6.733   5.546 -0.0702  0.2238 -0.3921
21466SOL    HW165839   4.542   6.805   5.483  0.1612 -0.9723 -1.8344
21466SOL    HW265840   4.633   6.710   5.558 -0.1944 -0.5867 -0.8938
21467SOL     OW65841   7.102   5.857   0.052  0.1063  0.4492  0.4488
21467SOL    HW165842   7.059   5.913  -0.012 -1.1108 -1.7217 -0.7692
21467SOL    HW265843   7.038   5.847   0.123  0.6055  1.1548  1.0084
21468SOL     OW65844   2.582   1.083   1.420 -0.0716 -0.1865  0.5531
21468SOL    HW165845   2.668   1.068   1.379  0.1213 -1.2027  1.3000
21468SOL    HW265846   2.524   1.018   1.380 -0.4836  0.4491  0.1053
21469SOL     OW65847   5.811   7.544   6.555 -0.5543 -0.6345 -0.4371
21469SOL    HW165848   5.847   7.456   6.548 -3.1896 -1.7210 -1.9081
21469SOL    HW265849   5.730   7.532   6.605  0.4230  1.5157  1.8978
21470SOL     OW65850   3.866   4.750  10.410  0.4032 -0.0732 -0.2695
21470SOL    HW165851   3.958   4.757  10.385  0.2654 -1.6074 -1.3440
21470SOL    HW265852   3.823   4.711  10.334 -1.1585  0.6401  0.2004
21471SOL     OW65853   2.212   1.272   6.957  0.3706  0.3172 -0.9494
21471SOL    HW165854   2.231   1.206   7.023  2.5778  0.9343 -0.8618
21471SOL    HW265855   2.117   1.279   6.955  0.2070 -0.6876  1.1805
21472SOL     OW65856   2.249   5.897   5.814 -0.4293 -0.4280  0.0709
21472SOL    HW165857   2.344   5.896   5.798 -0.6097  0.2983 -1.1906
21472SOL    HW265858   2.241   5.912   5.908  0.7121 -0.5378  0.2056
21473SOL     OW65859   1.865   2.376   6.198 -0.0514 -0.2648  0.1008
21473SOL    HW165860   1.902   2.380   6.286 -0.2485 -1.5892  0.2630
21473SOL    HW265861   1.770   2.376   6.212 -0.0882 -0.1261 -0.1369
21474SOL     OW65862   5.293   3.333   9.268  0.3730 -0.1356  0.4190
21474SOL    HW165863   5.222   3.302   9.324  0.0868 -2.0610 -0.9194
21474SOL    HW265864   5.328   3.254   9.227  0.3944  1.1685 -2.3179
21475SOL     OW65865   0.797   6.523  10.312 -0.3103  0.3983 -0.1185
21475SOL    HW165866   0.766   6.554  10.398  0.3076 -0.7036  0.5123
21475SOL    HW265867   0.892   6.525  10.319 -0.2611 -0.0149 -0.6656
21476SOL     OW65868   6.473   0.706   2.169 -0.4389  0.0164 -0.3639
21476SOL    HW165869   6.564   0.703   2.142  1.5109 -0.2527  5.0134
21476SOL    HW265870   6.448   0.614   2.179 -2.5908 -0.0920 -4.5724
21477SOL     OW65871   3.396   5.156   2.720 -0.3580  0.1689  0.2235
21477SOL    HW165872   3.436   5.071   2.699 -0.3020  0.3999 -0.6057
21477SOL    HW265873   3.342   5.137   2.798  1.7008 -0.0383  1.6682
21478SOL     OW65874   6.278   1.567   7.710  0.6076  0.4423 -0.4302
21478SOL    HW165875   6.188   1.596   7.725  0.3504  1.0012 -2.6683
21478SOL    HW265876   6.269   1.478   7.674  1.0239  0.1106  0.2649
21479SOL     OW65877   5.266   7.086   8.134 -0.3948 -0.3922 -0.4084
21479SOL    HW165878   5.344   7.045   8.096 -0.5085 -0.0198 -1.0656
21479SOL    HW265879   5.291   7.105   8.224  1.1316  1.8248 -1.2023
21480SOL     OW65880   2.821   6.042   1.286 -0.4485  0.7269 -0.1954
21480SOL    HW165881   2.894   6.003   1.334 -1.7599 -0.3202  1.0321
21480SOL    HW265882   2.743   6.018   1.337 -1.5532  2.8961 -0.7453
21481SOL     OW65883   5.923   3.846  11.992  0.0771 -0.4358  0.1983
21481SOL    HW165884   5.958   3.857  11.904  1.6975 -0.7387  0.7746
21481SOL    HW265885   5.993   3.875  12.050 -1.3084  0.6793  1.4012
21482SOL     OW65886   4.379   5.112   7.423 -0.7811  0.4780  0.1327
21482SOL    HW165887   4.352   5.061   7.499  0.3200 -2.0611 -1.0760
21482SOL    HW265888   4.471   5.134   7.440 -0.5796  0.0497 -0.3804
21483SOL     OW65889   3.986   2.794   8.627  0.6013  0.7772  0.2780
21483SOL    HW165890   3.960   2.720   8.572  0.8591  0.2603  0.8356
21483SOL    HW265891   4.034   2.852   8.568 -2.1604  2.0465 -0.9587
21484SOL     OW65892   5.631   6.968   9.680 -0.2585  0.1947  0.3932
21484SOL    HW165893   5.540   6.995   9.692 -0.7711  0.6663 -3.4528
21484SOL    HW265894   5.629   6.873   9.682 -0.2470  0.1718  3.1687
21485SOL     OW65895   1.192   5.858  10.618  0.2141 -0.1303  0.0422
21485SOL    HW165896   1.288   5.866  10.622  0.1464  1.1631 -0.4549
21485SOL    HW265897   1.164   5.867  10.709  0.4505  1.6145 -0.0216
21486SOL     OW65898   1.943   0.569   8.447 -0.0020  0.4247 -0.2177
21486SOL    HW165899   2.000   0.645   8.433  0.4813  0.2154  0.5364
21486SOL    HW265900   1.854   0.604   8.439  0.1950  0.5712 -2.3846
21487SOL     OW65901   4.371   1.816   3.999  0.3956  0.3778  0.3122
21487SOL    HW165902   4.312   1.756   4.044 -0.0889  0.4169 -0.2581
21487SOL    HW265903   4.352   1.902   4.037 -0.5828  0.5425 -0.5087
21488SOL     OW65904   6.256   6.774  10.095  0.0744 -0.2990  0.8290
21488SOL    HW165905   6.238   6.680  10.088 -0.8461 -0.2360  2.0052
21488SOL    HW265906   6.190   6.807  10.156  0.8685  0.9788  1.0495
21489SOL     OW65907   2.393   6.170   8.443  0.8481  0.8103 -0.3773
21489SOL    HW165908   2.351   6.100   8.392 -2.0970  0.7903  1.7697
21489SOL    HW265909   2.432   6.228   8.378 -2.5875  0.7611 -2.7647
21490SOL     OW65910   6.166   5.844  11.874  0.3916  0.3093 -0.3598
21490SOL    HW165911   6.235   5.777  11.872 -0.7904 -0.9974  0.9983
21490SOL    HW265912   6.211   5.924  11.848  2.0873 -0.7940 -1.0174
21491SOL     OW65913   6.379   6.653   5.019 -0.2343 -0.1056  0.4210
21491SOL    HW165914   6.395   6.736   4.974 -1.6495  0.7553  1.3822
21491SOL    HW265915   6.329   6.600   4.957  0.0197  0.0609  0.0741
21492SOL     OW65916   7.660   0.406   6.456 -0.0686  0.0286 -0.8484
21492SOL    HW165917   7.625   0.361   6.379 -0.7710 -1.0777  0.0768
21492SOL    HW265918   7.585   0.454   6.491  0.2443  0.5141 -0.8495
21493SOL     OW65919   6.185   4.008   6.020  0.3168 -0.2902 -0.4106
21493SOL    HW165920   6.215   3.917   6.027  1.1000  0.0532  0.9004
21493SOL    HW265921   6.134   4.023   6.099 -2.1222 -0.3668 -1.8547
21494SOL     OW65922   1.332   6.741   4.071  0.1134 -0.2522 -0.1195
21494SOL    HW165923   1.415   6.785   4.089  0.0670 -0.1707 -0.1017
21494SOL    HW265924   1.325   6.741   3.976 -0.3096  0.5775 -0.0984
21495SOL     OW65925   4.314   7.176  10.392  0.0123  0.2917 -0.2156
21495SOL    HW165926   4.274   7.211  10.471  0.3514 -0.9175  0.5081
21495SOL    HW265927   4.408   7.176  10.411  0.1482  0.5775 -0.8611
21496SOL     OW65928   0.941   5.264   8.289  0.1273 -0.2599  0.1755
21496SOL    HW165929   1.001   5.298   8.355 -0.0066 -0.8994  0.6362
21496SOL    HW265930   0.913   5.179   8.323  1.1374 -1.2562 -1.3436
21497SOL     OW65931   3.895   0.351   7.047  0.2173  0.3080  0.2505
21497SOL    HW165932   3.919   0.443   7.035  1.5136 -0.0946 -0.3539
21497SOL    HW265933   3.912   0.311   6.962  2.2018 -1.0323  1.2104
21498SOL     OW65934   4.407   1.533   9.882  0.2159  0.4350  0.2242
21498SOL    HW165935   4.392   1.503   9.793  1.5904  2.1144 -0.6224
21498SOL    HW265936   4.323   1.573   9.908  0.3822  1.6782 -1.0579
21499SOL     OW65937   1.479   7.826   5.674  0.3094 -0.0158  0.2666
21499SOL    HW165938   1.435   7.818   5.758  0.1781  0.1204  0.2127
21499SOL    HW265939   1.445   7.907   5.637  0.2910 -0.1263  0.0380
21500SOL     OW65940   3.941   2.434   7.552  0.3638 -0.0684 -0.0824
21500SOL    HW165941   3.932   2.529   7.555 -0.9356 -0.1929  0.5506
21500SOL    HW265942   3.854   2.400   7.573  1.1981 -1.3989  1.4682
21501SOL     OW65943   1.227   0.749   1.328 -0.3475  0.4591 -0.1053
21501SOL    HW165944   1.294   0.731   1.395 -0.2535  0.2862 -0.2451
21501SOL    HW265945   1.210   0.843   1.336  1.8473  1.0913 -1.8423
21502SOL     OW65946   3.999   2.744   2.215 -0.3167  0.2200 -0.0425
21502SOL    HW165947   3.993   2.718   2.307 -1.4876  0.3138 -0.0745
21502SOL    HW265948   4.051   2.824   2.216  0.0250 -0.0035  0.4869
21503SOL     OW65949   0.165   5.157   4.895 -0.0677  0.0704  0.3932
21503SOL    HW165950   0.181   5.072   4.852 -1.5919  1.8034 -4.1905
21503SOL    HW265951   0.090   5.140   4.952  0.7396 -2.0044  0.9465
21504SOL     OW65952   6.914   3.044   1.817  0.5871 -0.2470  0.1599
21504SOL    HW165953   6.941   3.091   1.737  2.3544  0.5461  1.1537
21504SOL    HW265954   6.876   3.112   1.873  0.0339 -0.6600  0.2922
21505SOL     OW65955   5.828   4.626   5.878 -0.2269 -0.7549 -0.0891
21505SOL    HW165956   5.753   4.625   5.818 -1.1830 -0.8763  1.0673
21505SOL    HW265957   5.865   4.714   5.867 -0.4397 -0.7424 -0.7819
21506SOL     OW65958   5.283   4.394   1.039 -0.9733  0.7321  0.3371
21506SOL    HW165959   5.263   4.451   1.113 -2.4872  1.0278 -0.2589
21506SOL    HW265960   5.198   4.363   1.009 -0.2479 -1.0911  0.0319
21507SOL     OW65961   1.784   4.645   3.336 -0.0227  0.5986  0.5640
21507SOL    HW165962   1.731   4.612   3.263  0.1573 -0.7418  1.0017
21507SOL    HW265963   1.856   4.692   3.294  0.5112 -0.8167 -0.1841
21508SOL     OW65964   1.135   2.897  10.992 -0.1821 -0.2037  0.2129
21508SOL    HW165965   1.056   2.844  10.985  0.0678 -0.3420 -2.5026
21508SOL    HW265966   1.103   2.987  10.996 -0.5464 -0.1363 -2.4969
21509SOL     OW65967   2.499   4.217   9.885 -0.0991  0.2860 -0.5468
21509SOL    HW165968   2.524   4.244   9.974 -0.2870  0.5122 -0.5598
21509SOL    HW265969   2.413   4.176   9.897 -0.4875  1.0181 -0.7237
21510SOL     OW65970   1.766   3.063   7.052  0.3771 -0.2686 -0.2547
21510SOL    HW165971   1.706   3.067   7.127 -0.9243 -2.0273 -1.1314
21510SOL    HW265972   1.851   3.046   7.091  0.1193  0.9963  0.9464
21511SOL     OW65973   7.195   3.016  11.758 -0.1041  0.4831 -0.1667
21511SOL    HW165974   7.104   3.019  11.786 -0.1230  0.7395 -0.2549
21511SOL    HW265975   7.212   3.103  11.721  0.1935  0.4586 -0.0916
21512SOL     OW65976   0.289   0.606   8.200  0.1850  0.0358  0.0355
21512SOL    HW165977   0.344   0.684   8.208  1.0907 -0.5901  0.1064
21512SOL    HW265978   0.296   0.563   8.285 -2.2728  1.0971  0.8665
21513SOL     OW65979   6.609   4.641   8.324  0.2133 -0.3548 -0.1387
21513SOL    HW165980   6.607   4.655   8.229 -3.5973  0.6610 -0.0797
21513SOL    HW265981   6.620   4.546   8.334 -0.1574 -0.5807 -1.6251
21514SOL     OW65982   7.982   7.426   4.251  0.6968 -0.7342 -0.3051
21514SOL    HW165983   8.057   7.440   4.308 -0.1040  1.8608  0.2923
21514SOL    HW265984   7.933   7.508   4.257 -3.0027 -2.7886  0.5235
21515SOL     OW65985   5.451   3.173   8.223  0.2211  0.5060  0.0650
21515SOL    HW165986   5.507   3.101   8.194  0.1740  0.4642  0.0795
21515SOL    HW265987   5.369   3.132   8.249 -0.2858  0.6973 -1.1669
21516SOL     OW65988   5.891   1.588   0.961 -0.3207  0.0425  0.0808
21516SOL    HW165989   5.930   1.675   0.968  0.3609 -0.2639  0.2098
21516SOL    HW265990   5.809   1.594   1.011 -1.1666  1.0950 -1.3589
21517SOL     OW65991   7.946   7.673   8.433  0.0008 -0.4106  0.0735
21517SOL    HW165992   7.953   7.767   8.443  0.9569 -0.3647 -0.8125
21517SOL    HW265993   7.937   7.639   8.522  0.7729  0.4294  0.4808
21518SOL     OW65994   7.866   6.367   2.579 -0.1934 -0.2318  0.2223
21518SOL    HW165995   7.787   6.378   2.633  1.2293  1.1404  2.1486
21518SOL    HW265996   7.925   6.314   2.633  0.6947 -0.1460 -0.6411
21519SOL     OW65997   0.208   7.618  11.657  0.3497  0.1829 -0.3286
21519SOL    HW165998   0.280   7.554  11.655 -1.4059 -2.0977  1.9966
21519SOL    HW265999   0.234   7.680  11.725  0.1445 -0.6925  0.5772
21520SOL     OW66000   5.179   3.026   2.217  0.0709 -0.1044  0.0167
21520SOL    HW166001   5.266   3.066   2.219  0.1579 -0.3017  0.2305
21520SOL    HW266002   5.193   2.942   2.173  0.6239 -1.6128  2.8781
21521SOL     OW66003   5.117   1.302   3.839 -0.0305  0.2131  0.0402
21521SOL    HW166004   5.049   1.329   3.777 -0.6212  0.7262  0.8971
21521SOL    HW266005   5.139   1.382   3.887 -0.2445 -0.3648  1.1213
21522SOL     OW66006   2.123   5.172   3.900  0.1559  0.6323 -0.3930
21522SOL    HW166007   2.074   5.151   3.980  0.0593  1.3921 -0.2537
21522SOL    HW266008   2.162   5.088   3.875 -1.3391 -0.0488 -0.5984
21523SOL     OW66009   7.645   2.477   2.436  0.2088 -0.1513  0.2767
21523SOL    HW166010   7.603   2.489   2.521 -0.2049 -0.8591  0.1784
21523SOL    HW266011   7.630   2.385   2.415 -0.3834  0.2013 -0.9312
21524SOL     OW66012   5.207   0.479  11.972  0.1616  0.2695  0.4039
21524SOL    HW166013   5.155   0.458  11.894  1.8591  0.1427 -0.7331
21524SOL    HW266014   5.267   0.548  11.944  0.5438  0.5132  1.7294
21525SOL     OW66015   0.350   4.714  10.349 -0.2960  0.0758 -0.2654
21525SOL    HW166016   0.309   4.716  10.436  0.5002  0.3668  0.1123
21525SOL    HW266017   0.444   4.708  10.367 -0.1949 -1.2993 -1.1213
21526SOL     OW66018   1.938   6.554  12.397 -0.1922  0.3841 -0.6874
21526SOL    HW166019   1.992   6.606  12.457  0.2594 -0.2197 -0.5620
21526SOL    HW266020   1.999   6.519  12.332 -0.4339 -0.2268 -0.5994
21527SOL     OW66021   0.019   7.216  10.316  0.5169  0.5078  0.5342
21527SOL    HW166022   0.070   7.165  10.379 -0.9820  0.0558  1.4191
21527SOL    HW266023  -0.046   7.263  10.369 -1.8105 -1.0885 -0.7413
21528SOL     OW66024   7.593   1.035   5.728  0.2895  0.0115  0.4669
21528SOL    HW166025   7.655   1.081   5.672 -0.7097  0.9798  0.1345
21528SOL    HW266026   7.641   0.956   5.756  1.2055  0.0805 -0.8004
21529SOL     OW66027   0.501   1.324   1.902  0.4073  0.1747  0.8501
21529SOL    HW166028   0.594   1.333   1.885  1.0136 -2.5488  2.2553
21529SOL    HW266029   0.495   1.262   1.975 -2.4906  0.5595  1.0770
21530SOL     OW66030   0.323   5.500   9.196 -0.1889  0.1208 -0.3924
21530SOL    HW166031   0.342   5.438   9.125 -1.5163 -0.0067 -0.6715
21530SOL    HW266032   0.404   5.506   9.246  0.4415 -0.6184 -1.2961
21531SOL     OW66033   0.981   3.163   8.539  0.1733 -0.9003  0.5624
21531SOL    HW166034   1.070   3.188   8.563 -0.6833  1.5433  1.5415
21531SOL    HW266035   0.947   3.239   8.492 -0.9540 -2.3711 -1.1243
21532SOL     OW66036   5.163   7.485  11.771 -0.2616  0.5183  0.0765
21532SOL    HW166037   5.176   7.499  11.865 -0.2265  0.7690  0.0352
21532SOL    HW266038   5.243   7.518  11.730  0.5784 -1.3680  0.0956
21533SOL     OW66039   1.741   4.634   0.467 -0.5609 -0.2554 -0.0830
21533SOL    HW166040   1.829   4.653   0.434 -0.3477 -2.0818 -0.6497
21533SOL    HW266041   1.749   4.644   0.562 -0.4289  2.1109 -0.2872
21534SOL     OW66042   2.323   7.287   1.179  0.2682 -0.1499 -0.5612
21534SOL    HW166043   2.247   7.309   1.234  0.8966  1.5459 -0.2888
21534SOL    HW266044   2.303   7.201   1.144 -1.3463 -0.1650  0.2749
21535SOL     OW66045   2.605   4.497   6.525  0.1328 -0.5098  0.0245
21535SOL    HW166046   2.609   4.552   6.447 -1.3563 -0.8636 -0.3300
21535SOL    HW266047   2.696   4.493   6.556  0.3580  1.8037 -0.1559
21536SOL     OW66048   3.544   2.121   1.047 -0.4618  0.0079 -0.2479
21536SOL    HW166049   3.584   2.111   0.960 -0.9992 -0.1215 -0.4830
21536SOL    HW266050   3.451   2.110   1.032 -0.5338 -0.3195  0.3980
21537SOL     OW66051   5.452   0.135  11.747 -0.0983 -0.2798  0.4130
21537SOL    HW166052   5.499   0.175  11.820  1.2669 -0.1675 -0.4740
21537SOL    HW266053   5.387   0.078  11.788  0.2182  0.2536  1.7047
21538SOL     OW66054   4.120   0.920   8.375  0.0076  0.3375  0.0014
21538SOL    HW166055   4.040   0.974   8.369  0.3593  0.7578 -1.2500
21538SOL    HW266056   4.149   0.911   8.284  0.3979 -1.3275  0.2670
21539SOL     OW66057   1.854   1.003   3.330  0.1484  0.4371 -0.7815
21539SOL    HW166058   1.911   0.954   3.389  0.8003  0.8366 -1.0724
21539SOL    HW266059   1.877   0.972   3.242 -0.5316  0.1391 -0.8611
21540SOL     OW66060   7.316   4.848   2.119 -0.0479  0.2486 -0.0622
21540SOL    HW166061   7.267   4.815   2.043  1.9479  0.0970 -1.3493
21540SOL    HW266062   7.389   4.788   2.128  0.1588  0.7142  1.5424
21541SOL     OW66063   7.796   0.980   3.985 -0.1372 -0.2518  0.3558
21541SOL    HW166064   7.769   0.922   3.914 -1.6836 -0.8084  1.3460
21541SOL    HW266065   7.767   1.067   3.958  0.2446 -0.2863 -0.1681
21542SOL     OW66066   6.253   2.059   9.882  0.1699  0.0924 -0.1076
21542SOL    HW166067   6.189   2.045   9.812 -0.6230 -1.6108  0.9073
21542SOL    HW266068   6.299   2.139   9.856  0.1676 -0.6625 -2.7539
21543SOL     OW66069   0.523   3.873   3.373  0.3497 -0.2589 -0.3956
21543SOL    HW166070   0.482   3.788   3.389 -1.0107  0.6065  1.0029
21543SOL    HW266071   0.617   3.857   3.384  0.2101 -1.7517 -1.0995
21544SOL     OW66072   0.149   3.851   9.286 -0.1175 -0.0041  0.8082
21544SOL    HW166073   0.224   3.802   9.320 -0.5976 -1.9004 -0.7048
21544SOL    HW266074   0.188   3.929   9.247  0.7393  0.5063  2.5580
21545SOL     OW66075   2.489   4.810  10.506 -0.0287  0.0463  0.4398
21545SOL    HW166076   2.412   4.762  10.474 -0.3359  0.5142  0.4692
21545SOL    HW266077   2.455   4.868  10.573  0.4276 -0.0672  0.7760
21546SOL     OW66078   7.253   2.653   3.380 -0.1618 -0.0401 -0.3643
21546SOL    HW166079   7.296   2.568   3.367 -0.5594 -0.2979 -0.0160
21546SOL    HW266080   7.324   2.717   3.375  0.4600 -0.5403  1.4109
21547SOL     OW66081   7.609   4.754   0.130 -0.5580  0.3490 -0.0002
21547SOL    HW166082   7.575   4.666   0.113  1.3941 -0.6814  1.0895
21547SOL    HW266083   7.547   4.792   0.192 -0.6035 -0.8690  0.7408
21548SOL     OW66084   0.444   6.681   2.896  0.4065  0.0358  0.6284
21548SOL    HW166085   0.506   6.609   2.903  0.4593 -0.1116 -0.9669
21548SOL    HW266086   0.371   6.655   2.952 -0.4452 -2.2558 -1.3306
21549SOL     OW66087   7.214   4.241  11.086 -0.1030  0.0854 -0.2097
21549SOL    HW166088   7.308   4.238  11.103 -0.0097 -0.3252 -0.7794
21549SOL    HW266089   7.191   4.152  11.059 -0.7235  0.0897  0.2697
21550SOL     OW66090   1.327   6.448   9.830  0.4094  0.6983 -0.0028
21550SOL    HW166091   1.336   6.387   9.903  0.8782  1.2982  0.4626
21550SOL    HW266092   1.236   6.442   9.804  0.3326  0.1803  0.3749
21551SOL     OW66093   1.232   7.893   9.984 -0.8273  0.0398  0.1525
21551SOL    HW166094   1.176   7.969   9.967 -1.3597 -0.7495 -1.8185
21551SOL    HW266095   1.303   7.929  10.037 -2.1696  1.4602  1.0977
21552SOL     OW66096   4.961   5.082   8.138  0.5299  0.1849 -0.3437
21552SOL    HW166097   5.055   5.065   8.147  0.8032  1.2635 -0.9206
21552SOL    HW266098   4.930   5.015   8.077  0.6835 -0.8849  0.7349
21553SOL     OW66099   6.204   0.023   7.104 -0.3933  0.9685  0.4207
21553SOL    HW166100   6.151  -0.055   7.116  0.5638  0.0627 -0.9566
21553SOL    HW266101   6.225   0.024   7.010  0.5870  2.2343  0.6256
21554SOL     OW66102   4.644   4.588   2.568 -0.0775  0.4001  0.1836
21554SOL    HW166103   4.663   4.603   2.660  1.4148  0.4621 -0.1024
21554SOL    HW266104   4.675   4.498   2.551 -0.2195  0.4336 -0.2769
21555SOL     OW66105   3.620   5.929   1.100 -0.7791 -0.0073 -0.5916
21555SOL    HW166106   3.654   6.006   1.146  0.4002 -0.7196 -0.2297
21555SOL    HW266107   3.620   5.956   1.008 -0.4521  0.4602 -0.4643
21556SOL     OW66108   2.571   7.047   9.025  0.5628 -0.4342 -0.3009
21556SOL    HW166109   2.597   7.071   8.937  0.6127 -2.0740 -0.7621
21556SOL    HW266110   2.542   6.956   9.018 -0.3266 -0.3006  1.1918
21557SOL     OW66111   0.623   6.585   3.519  0.2873 -0.3392 -0.0590
21557SOL    HW166112   0.699   6.606   3.573 -0.5581  0.1599  0.9804
21557SOL    HW266113   0.660   6.553   3.437  1.6314  1.1777 -0.1032
21558SOL     OW66114   2.958   3.598  10.570  0.2796  0.3287  0.3130
21558SOL    HW166115   2.933   3.532  10.505 -0.2241  1.1230 -0.3092
21558SOL    HW266116   3.033   3.643  10.531  0.8680 -0.1085  0.9046
21559SOL     OW66117   3.517   0.081   5.618  0.0751 -0.2482 -0.0393
21559SOL    HW166118   3.550   0.170   5.607  1.1994 -0.7900 -1.2382
21559SOL    HW266119   3.435   0.092   5.668 -0.4344  1.5590 -1.1907
21560SOL     OW66120   2.343   2.234   5.801 -0.1373  0.0406  0.7949
21560SOL    HW166121   2.408   2.261   5.737 -1.0169  2.2415  0.7306
21560SOL    HW266122   2.394   2.203   5.876  0.9031 -1.3399 -0.4414
21561SOL     OW66123   1.070   6.431   0.729  0.1799  0.3265 -0.1017
21561SOL    HW166124   1.062   6.359   0.793 -0.7309  0.9559  0.5230
21561SOL    HW266125   1.051   6.390   0.645  0.5791 -0.3541  0.1327
21562SOL     OW66126   5.937   5.590   0.688  0.0853 -0.3873  0.1325
21562SOL    HW166127   5.974   5.659   0.632 -0.7171  0.4102  0.5496
21562SOL    HW266128   5.862   5.632   0.731  0.1542 -1.2471  1.1333
21563SOL     OW66129   5.798   4.161   1.485  0.2541  0.4909 -0.0753
21563SOL    HW166130   5.712   4.129   1.512 -0.0493 -0.4723 -2.0493
21563SOL    HW266131   5.782   4.249   1.453  0.0396  0.3728 -0.2903
21564SOL     OW66132   3.075   6.709   9.110  0.1751  0.2076 -0.3679
21564SOL    HW166133   3.022   6.754   9.175 -1.8401  0.9308 -2.3633
21564SOL    HW266134   3.079   6.618   9.140 -0.0179  0.6689  1.1170
21565SOL     OW66135   6.298   6.581   3.709 -0.7173  0.2794  0.0943
21565SOL    HW166136   6.224   6.575   3.649 -0.5233  0.7857 -0.1994
21565SOL    HW266137   6.367   6.624   3.659 -0.2034 -0.2290  0.3496
21566SOL     OW66138   3.043   2.954  11.486 -0.1494  0.3286  0.1438
21566SOL    HW166139   3.045   2.898  11.563  0.6749  0.2220  0.0538
21566SOL    HW266140   3.103   2.913  11.424 -1.9605 -0.4521 -1.1884
21567SOL     OW66141   1.328   3.874   5.447  0.0454  0.5327 -0.3525
21567SOL    HW166142   1.350   3.856   5.356  0.8973 -0.9171  0.1037
21567SOL    HW266143   1.412   3.890   5.489 -0.2994  0.7818  0.2535
21568SOL     OW66144   2.599   5.341   3.357 -0.0194  0.3847  0.3297
21568SOL    HW166145   2.522   5.333   3.414 -1.8801  1.7587 -1.7749
21568SOL    HW266146   2.611   5.254   3.320 -1.3081  0.3672 -0.1137
21569SOL     OW66147   4.273   6.191   4.747  0.1504 -0.1203 -0.7608
21569SOL    HW166148   4.234   6.266   4.792  0.2884 -0.1018 -0.6699
21569SOL    HW266149   4.303   6.226   4.663 -1.6434 -0.5253 -1.6106
21570SOL     OW66150   3.091   4.753  10.247  0.2544 -0.1286  0.1385
21570SOL    HW166151   3.108   4.687  10.180  1.6592 -0.0487  0.3837
21570SOL    HW266152   3.146   4.727  10.321 -0.3695  0.4430  0.8112
21571SOL     OW66153   5.066   7.956   4.963 -0.0868 -0.8838  0.5286
21571SOL    HW166154   5.004   7.993   5.025  1.6531  2.0317  0.7211
21571SOL    HW266155   5.142   7.932   5.016  0.9819  0.6152 -0.2208
21572SOL     OW66156   6.933   4.313   1.277 -0.1107 -0.3448 -0.2590
21572SOL    HW166157   6.840   4.327   1.291  0.0008 -0.1388  0.2908
21572SOL    HW266158   6.942   4.218   1.269 -0.3256 -0.3846 -0.0144
21573SOL     OW66159   6.873   4.073   7.487 -0.9585 -0.0978  0.0931
21573SOL    HW166160   6.860   4.028   7.570 -0.0937  0.7687  0.7259
21573SOL    HW266161   6.936   4.143   7.507 -0.7779  0.1647 -1.2735
21574SOL     OW66162   6.290   3.090   2.582  0.5877 -0.3261 -0.3321
21574SOL    HW166163   6.242   3.033   2.522  0.4960  0.7030 -1.2818
21574SOL    HW266164   6.239   3.171   2.584 -0.7224 -1.1045  3.0452
21575SOL     OW66165   5.892   4.798  12.210 -0.3433  0.2715 -0.4056
21575SOL    HW166166   5.853   4.711  12.221 -0.8938  0.6682  0.9472
21575SOL    HW266167   5.860   4.848  12.285  0.5611  1.4295 -0.7732
21576SOL     OW66168   2.291   6.270   1.778  0.1900  0.7260 -0.2344
21576SOL    HW166169   2.256   6.305   1.860  0.8871 -0.0348  0.4063
21576SOL    HW266170   2.242   6.188   1.764 -0.5862  1.3080 -1.0905
21577SOL     OW66171   7.604   5.243   1.552  0.4495  0.0174  0.1143
21577SOL    HW166172   7.650   5.326   1.565  0.5770 -0.0657  0.2001
21577SOL    HW266173   7.626   5.191   1.630  0.4634 -0.1379  0.0087
21578SOL     OW66174   2.054   5.926  10.839 -0.2970  0.4512 -0.3099
21578SOL    HW166175   2.017   5.897  10.923 -1.0893  0.7046 -0.5639
21578SOL    HW266176   2.137   5.968  10.863 -0.5623  0.6134  0.3615
21579SOL     OW66177   2.517   7.721  12.334 -0.0994  0.0822  0.2174
21579SOL    HW166178   2.422   7.718  12.338 -0.0951  0.4080  0.5739
21579SOL    HW266179   2.546   7.667  12.408 -0.0050 -0.4088 -0.1742
21580SOL     OW66180   0.909   4.292   2.092 -0.0669  0.1023 -0.0625
21580SOL    HW166181   0.853   4.327   2.023 -0.2715  2.1299  1.0475
21580SOL    HW266182   0.896   4.197   2.087 -2.5584  0.3884 -0.7489
21581SOL     OW66183   2.113   5.314   4.664  0.0884  0.2089  0.0956
21581SOL    HW166184   2.050   5.369   4.713 -0.6657 -0.1892 -0.4034
21581SOL    HW266185   2.154   5.375   4.602 -1.8720 -0.0242 -1.5522
21582SOL     OW66186   4.718   6.468  11.203 -0.2699 -0.2251 -0.0598
21582SOL    HW166187   4.651   6.410  11.166  0.5581 -1.5501  0.4469
21582SOL    HW266188   4.726   6.441  11.295  0.1887  0.6485  0.1700
21583SOL     OW66189   7.829   1.615  12.462 -0.7194 -0.3574  0.1042
21583SOL    HW166190   7.918   1.627  12.494 -1.6375  0.5094  2.5510
21583SOL    HW266191   7.824   1.523  12.437  0.8477 -0.4089 -0.0584
21584SOL     OW66192   0.072   0.492   6.596  0.4383  0.3836 -0.0265
21584SOL    HW166193   0.146   0.453   6.642  1.8825  1.5664 -1.2715
21584SOL    HW266194  -0.002   0.434   6.617  2.1285 -2.0486 -0.4455
21585SOL     OW66195   1.731   1.881  11.537  0.1835 -0.0648 -0.0829
21585SOL    HW166196   1.673   1.919  11.604 -1.5130 -0.5780 -1.1845
21585SOL    HW266197   1.716   1.934  11.459  0.8023 -0.5538 -0.5484
21586SOL     OW66198   3.730   0.034   2.214  0.0378  0.2206 -0.1297
21586SOL    HW166199   3.720  -0.058   2.235 -0.4896  0.4614  0.7072
21586SOL    HW266200   3.821   0.054   2.236 -0.0560  0.0789  0.3971
21587SOL     OW66201   0.917   2.880   3.216 -0.3846 -0.2506 -0.3320
21587SOL    HW166202   0.931   2.871   3.122 -0.6649  2.0492 -0.6515
21587SOL    HW266203   0.823   2.890   3.225 -0.2970  0.2528  0.0909
21588SOL     OW66204   4.827   0.939   3.105  0.4625  0.2685  0.2629
21588SOL    HW166205   4.841   1.002   3.035 -0.3959 -1.0027 -1.1293
21588SOL    HW266206   4.871   0.859   3.075  1.1670  0.0476  1.7757
21589SOL     OW66207   5.270   7.036   2.929 -0.3837  0.8767 -0.1320
21589SOL    HW166208   5.209   6.974   2.888  1.3929 -0.5265 -0.8058
21589SOL    HW266209   5.286   7.000   3.016 -0.7921  1.4551  0.1891
21590SOL     OW66210   1.234   6.613  10.606 -0.7821  0.0931 -0.1474
21590SOL    HW166211   1.317   6.584  10.568 -1.7693  0.7031 -2.9739
21590SOL    HW266212   1.252   6.703  10.635 -0.4057  0.1769 -0.6199
21591SOL     OW66213   5.176   1.961   8.958  0.3263  0.5515  0.2719
21591SOL    HW166214   5.247   1.990   8.901 -0.4670  0.5197 -0.7841
21591SOL    HW266215   5.175   1.866   8.949 -0.4798  0.6201 -0.5377
21592SOL     OW66216   7.249   4.086   3.509 -0.3258  0.3377 -0.0650
21592SOL    HW166217   7.327   4.120   3.464  1.4733 -1.8019  1.2233
21592SOL    HW266218   7.220   4.013   3.454 -0.5275  0.1955  0.2306
21593SOL     OW66219   1.680   0.374  11.389 -0.8634 -0.1286  0.3714
21593SOL    HW166220   1.730   0.385  11.469 -0.5329  2.2000 -0.0982
21593SOL    HW266221   1.737   0.323  11.331 -0.3579 -0.2477  0.9674
21594SOL     OW66222   3.944   2.009   7.940  0.2640  0.3660  0.3851
21594SOL    HW166223   4.009   1.939   7.930 -0.6711 -0.2781 -1.8963
21594SOL    HW266224   3.994   2.090   7.937  1.0724 -0.1400 -0.5591
21595SOL     OW66225   6.113   1.887   0.180  0.2790  0.9820  0.2922
21595SOL    HW166226   6.183   1.941   0.144 -0.1437  0.2409 -1.7864
21595SOL    HW266227   6.136   1.798   0.155  0.3244  0.2802  2.5990
21596SOL     OW66228   4.968   6.702   6.482 -0.3094  0.1345 -0.0611
21596SOL    HW166229   5.043   6.643   6.478 -0.9282 -0.8360  1.6031
21596SOL    HW266230   5.006   6.786   6.508  0.2253 -0.3491  0.7922
21597SOL     OW66231   7.473   1.963  12.010  0.0207  0.2741 -0.0882
21597SOL    HW166232   7.534   2.021  11.964  0.3093  0.3976  0.4411
21597SOL    HW266233   7.387   2.005  12.000 -0.0101  0.0211 -0.9626
21598SOL     OW66234   0.458   4.638   9.930  0.4477 -1.1577 -0.3021
21598SOL    HW166235   0.492   4.556   9.966  1.6076 -0.5753 -0.0201
21598SOL    HW266236   0.472   4.702  10.000  1.3874 -0.3128 -1.2371
21599SOL     OW66237   1.078   1.913   1.466 -0.4187 -0.8574  0.1346
21599SOL    HW166238   1.030   1.878   1.390 -0.0570 -0.5454 -0.2413
21599SOL    HW266239   1.060   1.850   1.536 -0.8106 -1.1170 -0.1910
21600SOL     OW66240   6.597   7.453   8.723 -0.5544  0.0590 -0.5187
21600SOL    HW166241   6.560   7.470   8.810  2.0051 -1.0737  0.8922
21600SOL    HW266242   6.580   7.533   8.674 -0.2861  1.5678  1.6771
21601SOL     OW66243   0.054   6.585   1.797 -0.1351 -0.4862  0.5021
21601SOL    HW166244   0.022   6.557   1.711 -0.0995  0.1887  0.2606
21601SOL    HW266245   0.080   6.677   1.784  1.3499 -0.8264  0.8278
21602SOL     OW66246   1.500   7.896   6.599  0.2212 -0.0420 -0.0309
21602SOL    HW166247   1.539   7.865   6.517 -1.6059 -0.8183 -0.6733
21602SOL    HW266248   1.574   7.927   6.651  1.4349  0.5742 -2.0037
21603SOL     OW66249   6.620   2.141   7.628 -0.2307  0.3046  0.5223
21603SOL    HW166250   6.601   2.122   7.719  0.2193 -0.2033  0.5106
21603SOL    HW266251   6.620   2.237   7.623 -0.8459  0.3329  0.9228
21604SOL     OW66252   3.601   2.879  10.830 -0.0027  0.1074  0.0002
21604SOL    HW166253   3.541   2.820  10.875  0.4482  0.2780  0.8622
21604SOL    HW266254   3.632   2.938  10.899  2.3105 -0.9225 -0.0760
21605SOL     OW66255   7.341   2.155   6.021 -0.0480 -0.0113  0.4172
21605SOL    HW166256   7.282   2.221   6.057  1.0807  0.9501  0.6147
21605SOL    HW266257   7.299   2.126   5.941 -1.5558 -0.5807  1.3882
21606SOL     OW66258   3.272   5.408  12.449 -0.2152  0.4028  0.1780
21606SOL    HW166259   3.327   5.409  12.527  1.6700  0.3018 -1.0632
21606SOL    HW266260   3.317   5.467  12.388 -2.0706  1.1156 -0.5734
21607SOL     OW66261   2.952   4.607   9.050 -0.2355 -0.1545  0.2087
21607SOL    HW166262   2.934   4.551   8.974  0.3214 -0.7899  0.5343
21607SOL    HW266263   2.977   4.691   9.012  0.4505 -0.5877 -0.3334
21608SOL     OW66264   2.781   3.256  10.074  0.0275 -0.1515  0.6313
21608SOL    HW166265   2.868   3.287  10.101  0.6059 -1.7042  0.6503
21608SOL    HW266266   2.720   3.299  10.134  0.4877  2.8358 -0.8261
21609SOL     OW66267   1.602   6.167   3.472 -0.3454  0.2056  0.0501
21609SOL    HW166268   1.630   6.112   3.545  0.1524 -0.9777 -1.0092
21609SOL    HW266269   1.650   6.249   3.485 -0.9925  0.3915  1.5659
21610SOL     OW66270   4.184   1.957   4.871 -0.0246  0.5446 -0.0664
21610SOL    HW166271   4.240   1.888   4.835 -0.3698  0.1988  0.0590
21610SOL    HW266272   4.096   1.933   4.844 -0.0844  1.2333 -0.4847
21611SOL     OW66273   3.035   6.268  12.079 -1.2708  0.2168 -0.1557
21611SOL    HW166274   3.109   6.310  12.036  0.9275 -0.9752  2.2159
21611SOL    HW266275   2.960   6.291  12.025  0.7849  1.5278 -2.6619
21612SOL     OW66276   4.804   7.628   3.976  0.0516 -0.5706  0.2121
21612SOL    HW166277   4.852   7.548   3.996 -1.5722 -1.4273  0.8339
21612SOL    HW266278   4.818   7.684   4.052 -1.8399 -1.7848  1.5637
21613SOL     OW66279   6.609   6.022   4.420  0.2217 -0.2613 -0.1089
21613SOL    HW166280   6.525   6.026   4.374  0.6099  1.2801 -0.7728
21613SOL    HW266281   6.586   6.035   4.512 -0.2470  0.7575 -0.3471
21614SOL     OW66282   2.128   2.398   5.341  0.3606  0.5927 -0.0071
21614SOL    HW166283   2.079   2.350   5.407 -0.0497  1.6132  0.4576
21614SOL    HW266284   2.175   2.331   5.292  1.2327 -0.1556  1.7694
21615SOL     OW66285   5.926   0.474   7.438  0.2766  0.7329  0.1375
21615SOL    HW166286   5.991   0.404   7.449  0.5163  1.1847  1.8055
21615SOL    HW266287   5.969   0.538   7.381  0.4225  0.0063 -0.5972
21616SOL     OW66288   3.115   4.928   0.907  0.3056  0.4050 -0.2083
21616SOL    HW166289   3.086   4.840   0.882 -1.1239  1.1001 -1.0994
21616SOL    HW266290   3.110   4.928   1.003  0.2664 -0.4571 -0.2016
21617SOL     OW66291   1.593   3.363   3.764  0.2305 -0.6346 -0.5184
21617SOL    HW166292   1.574   3.337   3.674  0.0758 -3.0817  0.1297
21617SOL    HW266293   1.671   3.313   3.787  0.2079 -0.1312  0.7329
21618SOL     OW66294   7.269   0.903   8.912  0.6889 -0.6060  0.5010
21618SOL    HW166295   7.333   0.959   8.955  0.2313 -1.0963  1.8743
21618SOL    HW266296   7.188   0.917   8.961  0.3454 -1.7711  0.3025
21619SOL     OW66297   4.027   3.517  11.609  0.3302  0.8030 -0.0713
21619SOL    HW166298   4.005   3.466  11.687 -0.4756  1.8766  0.4250
21619SOL    HW266299   4.122   3.511  11.603  0.2807 -0.5392  0.1091
21620SOL     OW66300   2.874   1.796   7.028 -0.2002 -0.3474 -0.1210
21620SOL    HW166301   2.869   1.834   7.116 -0.4428  1.4739 -0.8822
21620SOL    HW266302   2.919   1.712   7.041  0.4590  0.2246  1.6358
21621SOL     OW66303   0.191   2.642  10.212  0.6752  0.2811 -0.7604
21621SOL    HW166304   0.113   2.618  10.263  2.0060 -0.9963  0.7944
21621SOL    HW266305   0.202   2.735  10.227  0.1509  0.2249  0.0221
21622SOL     OW66306   0.252   5.259  11.003 -0.6807  0.1566 -0.1694
21622SOL    HW166307   0.296   5.344  11.008  0.7334 -0.5247 -0.5288
21622SOL    HW266308   0.204   5.253  11.086  0.9077  0.4173  0.8228
21623SOL     OW66309   1.801   3.848   5.787  0.0332 -0.2743  0.4201
21623SOL    HW166310   1.720   3.810   5.819 -0.6936 -0.3468 -1.3999
21623SOL    HW266311   1.841   3.778   5.735  0.1438  0.4609 -0.5141
21624SOL     OW66312   4.749   3.589  11.247  0.0812 -0.0550 -0.0108
21624SOL    HW166313   4.711   3.562  11.163  1.5629  1.8928 -1.3973
21624SOL    HW266314   4.795   3.511  11.278 -0.3165 -0.7532 -1.1027
21625SOL     OW66315   0.295   3.851   5.974  0.2525  0.3032  0.4443
21625SOL    HW166316   0.292   3.773   6.029 -0.5170 -0.6268 -0.8635
21625SOL    HW266317   0.380   3.892   5.994  1.3538 -1.6860  0.0556
21626SOL     OW66318   6.311   5.351  10.898  0.1554 -0.0602  0.6051
21626SOL    HW166319   6.407   5.349  10.889  0.0672 -0.7933 -0.2735
21626SOL    HW266320   6.291   5.444  10.912  0.9681  0.1397  0.5434
21627SOL     OW66321   3.754   6.983   5.804 -0.3622 -0.5796 -0.0540
21627SOL    HW166322   3.669   6.956   5.769 -0.7150 -0.0252  0.3484
21627SOL    HW266323   3.807   6.904   5.803 -0.0521 -0.4302 -2.6646
21628SOL     OW66324   2.391   4.560  11.246 -0.3355  0.4165  0.7116
21628SOL    HW166325   2.425   4.570  11.335 -0.1796  2.6602  0.4712
21628SOL    HW266326   2.463   4.520  11.197  0.2975  0.9399  1.1885
21629SOL     OW66327   5.864   3.352   0.650  0.1603  0.2044 -0.1088
21629SOL    HW166328   5.957   3.374   0.638  0.0296 -0.0215 -1.7104
21629SOL    HW266329   5.842   3.299   0.574 -1.1725 -0.1615  0.5077
21630SOL     OW66330   5.586   6.177   5.744  0.0967 -0.9396 -0.2842
21630SOL    HW166331   5.509   6.232   5.757  1.4490  0.8872  0.5143
21630SOL    HW266332   5.599   6.178   5.649  0.6871  1.1048 -0.2416
21631SOL     OW66333   1.410   4.793  10.264  0.4569  0.1366 -0.4421
21631SOL    HW166334   1.477   4.736  10.300  1.3941  1.9533  0.8431
21631SOL    HW266335   1.440   4.811  10.174  0.5571 -0.7405 -0.5889
21632SOL     OW66336   4.997   1.232   6.937  0.6667 -0.7483  0.2114
21632SOL    HW166337   4.947   1.209   7.015 -1.7303  1.0921 -0.6741
21632SOL    HW266338   5.001   1.150   6.887 -0.7087 -1.1478  0.7128
21633SOL     OW66339   7.429   1.765   9.792 -0.4069  0.1966  0.1133
21633SOL    HW166340   7.500   1.722   9.839  0.8459  0.8825 -1.0946
21633SOL    HW266341   7.393   1.828   9.856  0.4612  0.2570  0.5550
21634SOL     OW66342   0.734   3.210   6.980 -0.1542  0.4751  0.1686
21634SOL    HW166343   0.646   3.185   6.954 -0.9473  2.1040  1.1486
21634SOL    HW266344   0.779   3.232   6.898 -0.2962 -1.3590 -0.4334
21635SOL     OW66345   1.047   1.261   0.896 -0.2593  0.0215  0.1605
21635SOL    HW166346   1.028   1.194   0.831  2.9386 -1.0004  0.1246
21635SOL    HW266347   1.075   1.213   0.974 -2.5302  1.2644  1.8519
21636SOL     OW66348   1.847   0.087  12.439  0.5028  0.1895 -0.7223
21636SOL    HW166349   1.898   0.166  12.426  0.3532  0.2935 -0.6801
21636SOL    HW266350   1.896   0.037  12.504  0.4272  0.3979 -0.5037
21637SOL     OW66351   4.533   0.572   8.806  0.2815 -0.5338 -0.5121
21637SOL    HW166352   4.623   0.541   8.797  1.1444  0.8110  2.3489
21637SOL    HW266353   4.487   0.502   8.853  0.3343 -0.4475 -0.3310
21638SOL     OW66354   2.558   1.052  11.065 -0.7578 -0.1390  0.4019
21638SOL    HW166355   2.488   1.115  11.082 -1.1905 -0.7795  1.0379
21638SOL    HW266356   2.634   1.106  11.044 -1.3550  0.5743  0.0072
21639SOL     OW66357   0.824   3.859  10.170  0.0053  0.9923 -0.1983
21639SOL    HW166358   0.784   3.797  10.231 -0.7525  2.8349  1.2567
21639SOL    HW266359   0.768   3.854  10.092 -0.7504  0.7220  0.3452
21640SOL     OW66360   2.694   6.784   9.948  0.2859 -0.0570 -0.2605
21640SOL    HW166361   2.776   6.828   9.929 -0.0315  0.7500  0.1899
21640SOL    HW266362   2.701   6.759  10.041 -0.8026  1.9234  0.4120
21641SOL     OW66363   5.939   5.537   8.226 -0.3388  0.2739 -0.5719
21641SOL    HW166364   5.874   5.524   8.157 -2.3522 -0.0233  1.2741
21641SOL    HW266365   5.941   5.454   8.273  0.3162  0.7550  0.2784
21642SOL     OW66366   2.972   6.879   7.104  0.3275 -0.2989 -0.1240
21642SOL    HW166367   2.877   6.864   7.096  0.0900  1.5011 -1.4624
21642SOL    HW266368   2.981   6.974   7.104  2.1933 -0.4363 -0.5704
21643SOL     OW66369   3.132   0.252   3.767 -0.0286 -0.0242 -0.1603
21643SOL    HW166370   3.199   0.235   3.700  1.8954  2.2551  1.0198
21643SOL    HW266371   3.102   0.341   3.749 -0.3372  0.1846  1.2549
21644SOL     OW66372   0.059   0.888  12.424  0.2316 -0.1837 -0.2462
21644SOL    HW166373  -0.019   0.913  12.472 -0.1652 -0.0239 -0.9495
21644SOL    HW266374   0.094   0.971  12.392 -0.0752 -0.3598 -1.0672
21645SOL     OW66375   1.713   2.181   8.469 -0.3357  0.5197  0.2523
21645SOL    HW166376   1.645   2.130   8.425  0.6281 -3.1176  2.5337
21645SOL    HW266377   1.666   2.238   8.529 -1.4610 -0.3699  0.2502
21646SOL     OW66378   4.731   6.073   8.217 -0.0287  0.0850  0.3419
21646SOL    HW166379   4.746   6.081   8.311 -0.0034  2.8574  0.2017
21646SOL    HW266380   4.762   6.156   8.181 -1.5126 -0.2431 -1.9148
21647SOL     OW66381   3.621   0.420   0.776 -0.1628  0.3220 -0.0867
21647SOL    HW166382   3.700   0.442   0.824 -0.5241  0.4971  0.4395
21647SOL    HW266383   3.636   0.454   0.688  0.2958  0.4540  0.0403
21648SOL     OW66384   6.147   2.942  10.960  0.4577 -0.2682 -0.2186
21648SOL    HW166385   6.137   3.010  11.025  0.3834  0.3186 -0.8341
21648SOL    HW266386   6.145   2.988  10.876  1.2264 -0.9215 -0.6149
21649SOL     OW66387   4.588   7.049   8.641 -0.0814  0.2515  0.0210
21649SOL    HW166388   4.629   7.129   8.673 -1.7782  1.5815 -0.9362
21649SOL    HW266389   4.606   6.984   8.708  0.8154  1.5906  1.1378
21650SOL     OW66390   5.736   0.190   6.706 -0.0606  0.0130 -0.1105
21650SOL    HW166391   5.652   0.145   6.711 -0.5307  0.7252 -1.2847
21650SOL    HW266392   5.714   0.280   6.683  0.9987  0.3283  0.0554
21651SOL     OW66393   6.106   7.500   8.834 -0.0805  0.5576  0.1808
21651SOL    HW166394   6.184   7.466   8.878 -0.1867 -0.0896 -0.1166
21651SOL    HW266395   6.139   7.543   8.755 -0.0274  0.1933  0.0018
21652SOL     OW66396   7.184   3.024   1.882 -0.3233  0.1454 -0.2004
21652SOL    HW166397   7.090   3.036   1.894 -0.3687  0.6968 -1.0522
21652SOL    HW266398   7.224   3.093   1.935 -0.3120 -1.1996  1.6475
21653SOL     OW66399   0.479   6.752   3.881 -0.3304 -0.0492  0.4052
21653SOL    HW166400   0.508   6.662   3.869  0.7339  0.4425 -0.8934
21653SOL    HW266401   0.451   6.781   3.794 -1.8989  0.4823  1.0362
21654SOL     OW66402   1.756   6.368   0.542 -0.1216 -0.2459  0.3493
21654SOL    HW166403   1.759   6.422   0.462 -0.9173 -0.2995  0.2751
21654SOL    HW266404   1.802   6.420   0.607 -2.3216  1.3615  0.7507
21655SOL     OW66405   5.608   1.646   0.709 -0.2453 -0.2232  0.0116
21655SOL    HW166406   5.579   1.614   0.794 -1.8904  0.0278 -0.4231
21655SOL    HW266407   5.658   1.725   0.729 -1.1939  0.2170  0.7318
21656SOL     OW66408   4.695   1.607   6.720  0.2271 -0.1915  0.2274
21656SOL    HW166409   4.705   1.700   6.737 -0.6574 -0.1634  0.6647
21656SOL    HW266410   4.608   1.600   6.679  0.9476 -0.6370 -1.3121
21657SOL     OW66411   6.743   1.228   5.278 -0.0239  0.7824 -0.3171
21657SOL    HW166412   6.759   1.147   5.328 -0.6540  0.2945 -0.8893
21657SOL    HW266413   6.818   1.283   5.298  0.3296  0.1219  0.2277
21658SOL     OW66414   3.327   5.467   7.590  0.2094  0.4282  0.3412
21658SOL    HW166415   3.278   5.410   7.649 -0.6829  0.9287  0.0973
21658SOL    HW266416   3.363   5.408   7.523 -1.0256  0.1799 -0.1297
21659SOL     OW66417   1.764   6.390   3.484 -0.0648  0.2989  0.6669
21659SOL    HW166418   1.856   6.415   3.482  0.7995 -2.5389 -0.0836
21659SOL    HW266419   1.725   6.437   3.411  1.3825 -0.2446 -0.5188
21660SOL     OW66420   4.626   5.544   1.361  0.0269  0.4933 -0.1951
21660SOL    HW166421   4.691   5.606   1.393  0.3863  0.2005 -0.3463
21660SOL    HW266422   4.606   5.489   1.437  0.7442 -0.0847 -0.4060
21661SOL     OW66423   6.157   2.832   2.511 -1.0178  0.1786  0.0105
21661SOL    HW166424   6.243   2.790   2.513 -0.3775  1.3721 -1.3354
21661SOL    HW266425   6.115   2.803   2.592  1.1810  0.7030  1.4182
21662SOL     OW66426   5.359   3.846   2.809  0.3846 -0.4528 -0.2114
21662SOL    HW166427   5.346   3.775   2.746  0.0987 -0.0294 -0.6366
21662SOL    HW266428   5.390   3.803   2.888  0.6889 -1.0010 -0.6247
21663SOL     OW66429   1.471   1.459  10.613 -0.4363  0.1590 -0.2528
21663SOL    HW166430   1.552   1.410  10.603  0.6947  1.8909 -0.0338
21663SOL    HW266431   1.442   1.476  10.524 -0.6147 -0.5126 -0.3315
21664SOL     OW66432   3.850   7.261   6.784  0.1379 -0.5994  0.2659
21664SOL    HW166433   3.774   7.204   6.800  0.3203 -0.6874  0.8389
21664SOL    HW266434   3.825   7.312   6.707 -0.5875 -0.4917  0.5590
21665SOL     OW66435   2.980   1.498  10.171  0.0061 -0.1764  0.0200
21665SOL    HW166436   2.995   1.419  10.118 -0.1765  0.1598 -0.5435
21665SOL    HW266437   2.953   1.465  10.256 -0.1766 -0.7222 -0.2462
21666SOL     OW66438   0.655   4.680   9.412 -0.1383  0.4957  0.0267
21666SOL    HW166439   0.581   4.725   9.371 -0.2530  1.7847  1.5208
21666SOL    HW266440   0.626   4.663   9.502  1.1279  0.4210  0.4487
21667SOL     OW66441   0.735   0.418  12.107  0.2073  0.2082  0.2096
21667SOL    HW166442   0.820   0.460  12.118 -0.8582  2.6860 -0.2114
21667SOL    HW266443   0.672   0.486  12.131 -1.6740 -1.8045  1.3177
21668SOL     OW66444   6.740   3.240   1.985 -0.5860  0.2645  0.2124
21668SOL    HW166445   6.776   3.290   2.059 -1.2110  2.9409 -1.1538
21668SOL    HW266446   6.723   3.306   1.918 -1.0419 -1.9209 -1.9575
21669SOL     OW66447   7.491   1.867   0.084  0.5574 -0.7626  0.1862
21669SOL    HW166448   7.406   1.852   0.124  0.3077  0.8899  0.3355
21669SOL    HW266449   7.543   1.791   0.109  0.3050 -0.0242  3.3943
21670SOL     OW66450   0.624   4.806  10.200  0.3214  0.0208  0.7907
21670SOL    HW166451   0.701   4.770  10.155  0.6348  0.2562  1.1359
21670SOL    HW266452   0.637   4.784  10.292  0.2870  0.6128  0.9391
21671SOL     OW66453   4.589   1.199   6.970 -0.0508  0.0060 -0.7034
21671SOL    HW166454   4.558   1.263   6.906  0.3595  0.1346 -0.7802
21671SOL    HW266455   4.520   1.134   6.975 -0.6089  0.6051 -0.4191
21672SOL     OW66456   5.649   1.774   9.882 -0.1579  0.4647 -0.0511
21672SOL    HW166457   5.631   1.681   9.890 -1.5067  0.6791 -0.3239
21672SOL    HW266458   5.598   1.814   9.953  1.4609  0.9121  0.9265
21673SOL     OW66459   5.281   0.614   3.807  0.0324 -0.0052 -0.0768
21673SOL    HW166460   5.334   0.540   3.777 -0.0422 -0.5959  1.2082
21673SOL    HW266461   5.192   0.590   3.782  0.1393  0.1812 -0.6630
21674SOL     OW66462   0.605   3.663   5.953 -0.5188  0.4699  0.2588
21674SOL    HW166463   0.625   3.699   6.039  0.8584  0.7119 -0.1354
21674SOL    HW266464   0.604   3.738   5.894 -0.7890  0.2320 -0.0478
21675SOL     OW66465   7.352   4.973   2.641  0.2750  0.0327 -0.1107
21675SOL    HW166466   7.277   5.017   2.680  0.5556  0.2832  0.1548
21675SOL    HW266467   7.317   4.890   2.607 -0.2441  0.4360 -0.5677
21676SOL     OW66468   7.726   6.769   1.163 -0.0194  0.0986 -0.6834
21676SOL    HW166469   7.690   6.858   1.153  0.6178  0.5424  0.7659
21676SOL    HW266470   7.723   6.753   1.257  0.6742 -1.0923 -0.8572
21677SOL     OW66471   0.620   5.630   8.544  0.6041 -0.3740  0.3047
21677SOL    HW166472   0.620   5.718   8.583  1.8430  0.9641 -2.4636
21677SOL    HW266473   0.531   5.599   8.556 -0.6469  2.3853 -0.8601
21678SOL     OW66474   3.684   2.242   3.572 -0.2317 -0.4030 -0.4463
21678SOL    HW166475   3.648   2.183   3.506 -1.9738  0.1670 -0.0676
21678SOL    HW266476   3.666   2.329   3.539  0.7652 -0.0863 -0.1869
21679SOL     OW66477   7.655   0.307   1.294  0.1217  0.0540 -0.1346
21679SOL    HW166478   7.742   0.318   1.256  0.2358 -1.4763 -0.3794
21679SOL    HW266479   7.671   0.285   1.386 -0.0856  1.5085  0.2746
21680SOL     OW66480   7.750   0.145   8.807 -0.5310  0.3991  0.5390
21680SOL    HW166481   7.702   0.188   8.736 -0.0480 -0.5755 -0.4032
21680SOL    HW266482   7.765   0.215   8.871  0.3858  1.6867 -1.0052
21681SOL     OW66483   5.624   4.425   5.281 -0.3140 -0.6607 -0.6108
21681SOL    HW166484   5.531   4.439   5.302 -0.3159  0.2454 -1.2007
21681SOL    HW266485   5.635   4.460   5.193  0.9162  0.6718  0.0213
21682SOL     OW66486   6.377   2.198   1.090 -0.0595  0.0606 -0.3794
21682SOL    HW166487   6.384   2.184   1.184 -1.1543  2.6742  0.1519
21682SOL    HW266488   6.467   2.206   1.060  0.3597 -2.0137  0.1785
21683SOL     OW66489   3.711   3.093   8.900 -0.0530  0.1514  0.3148
21683SOL    HW166490   3.654   3.170   8.900  0.5993  0.6615  1.2298
21683SOL    HW266491   3.768   3.105   8.824  0.0635  0.5994  0.4680
21684SOL     OW66492   3.135   1.755   1.702 -0.8143  0.9027  0.0481
21684SOL    HW166493   3.214   1.805   1.721  1.1218 -1.6178 -0.7954
21684SOL    HW266494   3.165   1.664   1.694 -3.4847  0.0660 -2.1960
21685SOL     OW66495   3.067   1.940   9.361 -0.3518 -0.5837  0.4120
21685SOL    HW166496   3.065   1.903   9.450  2.0710  0.8566  1.1646
21685SOL    HW266497   3.160   1.946   9.340 -0.8568 -0.2061 -1.9674
21686SOL     OW66498   5.530   4.234   8.160  0.0661  0.2390  0.1574
21686SOL    HW166499   5.451   4.279   8.190 -0.3458  0.5837 -1.3828
21686SOL    HW266500   5.498   4.164   8.104  0.8208 -0.1683  0.2267
21687SOL     OW66501   4.397   0.325  11.401  0.0766  0.1509  0.0097
21687SOL    HW166502   4.412   0.401  11.344  1.0074 -0.3215 -0.3946
21687SOL    HW266503   4.477   0.317  11.452  0.4700 -1.2599 -0.7846
21688SOL     OW66504   7.279   5.726   6.210 -0.4454 -0.0345  0.2806
21688SOL    HW166505   7.189   5.742   6.182  0.3636 -0.2002 -2.8488
21688SOL    HW266506   7.279   5.742   6.304 -3.1674  2.5775 -0.0176
21689SOL     OW66507   3.478   2.390   4.047  0.1463 -0.5865 -0.1616
21689SOL    HW166508   3.480   2.430   3.960  0.3976 -1.0221 -0.3572
21689SOL    HW266509   3.443   2.459   4.104 -1.6749 -0.8638 -0.8875
21690SOL     OW66510   6.208   5.082   2.209  0.1372 -0.8170  0.3207
21690SOL    HW166511   6.242   5.165   2.241  0.3834 -0.8655  0.1879
21690SOL    HW266512   6.113   5.090   2.217  0.1802 -0.6997  0.7473
21691SOL     OW66513   1.104   4.518   4.445 -0.1154 -0.6403  0.0510
21691SOL    HW166514   1.121   4.613   4.452 -0.3444 -0.5896 -0.0803
21691SOL    HW266515   1.009   4.511   4.447 -0.0900 -0.9062  0.5204
21692SOL     OW66516   1.319   0.600   6.528  0.0479  0.2506  0.7032
21692SOL    HW166517   1.405   0.616   6.489 -0.1549  0.9139  0.5230
21692SOL    HW266518   1.298   0.510   6.503 -0.0899  0.6708 -0.7618
21693SOL     OW66519   6.133   2.766   7.610  0.2893  0.4759  0.1219
21693SOL    HW166520   6.228   2.775   7.619  0.2442  0.0728  1.2099
21693SOL    HW266521   6.099   2.853   7.629  0.4235  0.5429  0.0605
21694SOL     OW66522   7.660   6.658   4.254  0.5771 -0.0047  0.3843
21694SOL    HW166523   7.712   6.714   4.198 -1.9518  0.7401 -1.4019
21694SOL    HW266524   7.683   6.686   4.343  3.4894 -0.0947 -0.2509
21695SOL     OW66525   7.210   2.940   9.020  0.4246  0.1557  0.1220
21695SOL    HW166526   7.266   2.863   9.030  1.1229  0.5501 -0.6113
21695SOL    HW266527   7.224   2.968   8.929 -1.5445 -0.1707 -0.3322
21696SOL     OW66528   2.660   4.480   9.943  0.7394  0.0910 -0.6770
21696SOL    HW166529   2.628   4.516  10.026  1.6931 -2.0218  0.7171
21696SOL    HW266530   2.755   4.488   9.948  1.1004 -3.0909  0.1040
21697SOL     OW66531   3.437   6.232   7.376 -0.3006 -0.6204  1.1201
21697SOL    HW166532   3.434   6.247   7.471  2.4210 -0.8034  1.3100
21697SOL    HW266533   3.503   6.163   7.365  1.0224  0.8555 -1.0101
21698SOL     OW66534   5.397   2.188   5.976  0.1041 -0.3532 -0.1435
21698SOL    HW166535   5.418   2.095   5.969 -0.5198 -0.3696 -2.3096
21698SOL    HW266536   5.340   2.206   5.902  0.9528  1.9822 -0.3115
21699SOL     OW66537   5.388   3.396   3.119 -0.3576 -0.3245  0.7668
21699SOL    HW166538   5.422   3.361   3.037  1.0650  2.9026 -0.1911
21699SOL    HW266539   5.297   3.421   3.098  0.7488  2.9851 -0.9039
21700SOL     OW66540   4.478   4.150   9.926 -0.0785  0.0206 -0.2425
21700SOL    HW166541   4.512   4.107   9.848  1.7521 -0.5241  0.8039
21700SOL    HW266542   4.409   4.208   9.893  0.2823 -0.5837 -2.1800
21701SOL     OW66543   0.671   6.010   3.500  0.2870  0.6605 -0.3339
21701SOL    HW166544   0.726   5.934   3.517  0.9629  1.1730 -0.1605
21701SOL    HW266545   0.710   6.079   3.555  1.6213  1.9906 -2.7906
21702SOL     OW66546   6.259   5.804   8.926  0.3542  0.3150  0.2229
21702SOL    HW166547   6.324   5.780   8.861  0.3079  1.2367 -0.1703
21702SOL    HW266548   6.178   5.764   8.894 -0.3605  3.1959 -1.9441
21703SOL     OW66549   4.065   5.297  10.643  0.4407  0.2777 -0.1241
21703SOL    HW166550   4.116   5.281  10.723  0.4141  0.2599 -0.1106
21703SOL    HW266551   3.978   5.262  10.663 -0.3540  2.6464  0.8113
21704SOL     OW66552   6.612   4.899   1.455 -0.1665  0.3393  0.5189
21704SOL    HW166553   6.682   4.839   1.480 -0.3043  0.3307  0.8920
21704SOL    HW266554   6.633   4.981   1.500  0.7484  1.0060 -1.0419
21705SOL     OW66555   0.989   2.007   8.759  0.3868  0.4717  0.0795
21705SOL    HW166556   0.945   1.990   8.676  0.2715  0.2676  0.1818
21705SOL    HW266557   0.993   2.102   8.766  1.9144  0.5201 -0.9718
21706SOL     OW66558   6.302   6.924   4.042 -0.2825 -0.0763 -0.3577
21706SOL    HW166559   6.279   6.921   3.949 -0.9709  0.9042 -0.2399
21706SOL    HW266560   6.253   6.999   4.076 -1.1576 -1.2568  1.0966
21707SOL     OW66561   4.848   6.735   2.187 -0.5307  0.7786  0.3554
21707SOL    HW166562   4.902   6.759   2.112  0.7128  0.2747  1.0579
21707SOL    HW266563   4.885   6.652   2.218 -0.4909  1.3702  2.0077
21708SOL     OW66564   0.101   4.102   5.464 -0.2143  0.2113  0.1714
21708SOL    HW166565   0.087   4.150   5.382 -0.2034  0.6724  0.4366
21708SOL    HW266566   0.129   4.015   5.436  0.6978  0.6405 -0.3161
21709SOL     OW66567   0.460   5.954   5.383  0.0171 -0.5246  0.2348
21709SOL    HW166568   0.455   5.859   5.371 -0.9267 -0.4029 -0.5004
21709SOL    HW266569   0.393   5.973   5.449 -1.3648 -0.1550 -1.2041
21710SOL     OW66570   6.183   6.527   4.863 -0.3647 -0.5949 -0.2010
21710SOL    HW166571   6.157   6.468   4.934  1.2388 -0.0787  0.8755
21710SOL    HW266572   6.100   6.559   4.827 -1.3186  0.5504  2.6833
21711SOL     OW66573   1.260   1.194  12.325 -0.3428 -0.1044 -0.9194
21711SOL    HW166574   1.349   1.162  12.343 -1.4764 -2.2014  1.6782
21711SOL    HW266575   1.224   1.130  12.263 -0.7448 -0.6171 -0.1757
21712SOL     OW66576   5.045   6.146   9.233 -0.1142 -0.5353  0.7995
21712SOL    HW166577   5.031   6.054   9.254  0.1560 -0.7844 -0.0725
21712SOL    HW266578   4.969   6.191   9.270 -1.3004 -1.3670 -0.5017
21713SOL     OW66579   0.118   5.384   4.755 -0.1818 -0.1433  0.2086
21713SOL    HW166580   0.157   5.303   4.788 -1.9076 -0.7173  0.9444
21713SOL    HW266581   0.024   5.369   4.760 -0.5351  1.6551 -0.3303
21714SOL     OW66582   6.291   3.900   9.969 -0.6047  0.1372  0.0116
21714SOL    HW166583   6.322   3.974  10.020 -2.2087  0.3620  0.7490
21714SOL    HW266584   6.232   3.938   9.904  1.5463 -0.1224 -2.2386
21715SOL     OW66585   0.225   7.744   1.073  0.0322  0.1160  0.6813
21715SOL    HW166586   0.225   7.798   0.993 -0.5453  2.8633  2.3967
21715SOL    HW266587   0.312   7.758   1.111 -0.3434  0.4031  1.4684
21716SOL     OW66588   0.589   3.282   7.924  0.4843 -0.2225  0.1941
21716SOL    HW166589   0.551   3.223   7.860 -0.4133  1.5175 -0.9659
21716SOL    HW266590   0.533   3.274   8.001 -0.4483  0.1119 -0.4380
21717SOL     OW66591   0.475   0.178   3.115  0.0081  0.1505 -0.2756
21717SOL    HW166592   0.556   0.128   3.105 -0.5356 -1.0113  0.8845
21717SOL    HW266593   0.417   0.145   3.047  0.0689  0.0536 -0.2801
21718SOL     OW66594   5.904   4.427   4.025  0.4125 -0.2326 -0.4894
21718SOL    HW166595   5.920   4.333   4.022 -1.5893 -0.6341  0.0446
21718SOL    HW266596   5.985   4.466   3.992  1.3706 -2.1162 -0.5090
21719SOL     OW66597   1.017   0.471   0.983 -0.0454  0.3601  0.5356
21719SOL    HW166598   1.031   0.447   0.891 -0.8314 -0.1839  0.5451
21719SOL    HW266599   0.992   0.563   0.980 -0.1651  0.3197  0.1909
21720SOL     OW66600   5.594   7.240  11.489  0.6410 -0.6200 -0.4028
21720SOL    HW166601   5.609   7.325  11.449 -0.1822 -0.6357 -0.7744
21720SOL    HW266602   5.552   7.260  11.573  1.0696 -0.6378 -0.1816
21721SOL     OW66603   0.830   5.710   2.519  0.1854  0.3254 -0.0175
21721SOL    HW166604   0.864   5.748   2.438 -0.3313  4.1102  1.3123
21721SOL    HW266605   0.896   5.732   2.585 -0.8081  0.1157  1.0807
21722SOL     OW66606   1.696   7.807   9.957 -0.5229 -0.5317  0.1274
21722SOL    HW166607   1.787   7.779   9.963 -0.5569 -0.3583  2.7607
21722SOL    HW266608   1.649   7.749  10.017 -2.0523 -0.1766 -0.6589
21723SOL     OW66609   2.522   1.398   6.261  0.2325 -0.1396 -0.1825
21723SOL    HW166610   2.490   1.363   6.343 -0.0385 -0.2858 -0.3491
21723SOL    HW266611   2.511   1.493   6.270  0.3998 -0.1411  0.0312
21724SOL     OW66612   2.406   7.443   8.906  0.5903 -0.2833  0.4135
21724SOL    HW166613   2.340   7.375   8.893 -0.0464  0.2598  0.7753
21724SOL    HW266614   2.389   7.507   8.836 -0.3667  0.7032  1.5019
21725SOL     OW66615   0.859   7.903   7.270 -0.8215  0.3106 -0.5236
21725SOL    HW166616   0.789   7.953   7.229 -1.2144  1.0712  1.0122
21725SOL    HW266617   0.882   7.953   7.348 -1.3027 -1.9254  1.1612
21726SOL     OW66618   7.071   7.118  10.775  0.4574  0.3923 -0.1967
21726SOL    HW166619   7.041   7.154  10.858 -1.0153  0.4078 -0.7047
21726SOL    HW266620   7.085   7.195  10.719 -0.6215  0.3139 -0.6081
21727SOL     OW66621   3.294   7.170   0.177 -0.2387  0.0545 -0.1568
21727SOL    HW166622   3.205   7.134   0.175  0.6675 -2.3170 -1.0713
21727SOL    HW266623   3.340   7.118   0.243  0.2811  1.8759  0.9875
21728SOL     OW66624   2.807   3.876   5.507 -0.7759 -0.5417 -0.1006
21728SOL    HW166625   2.844   3.903   5.423 -1.3905 -0.1987 -0.2631
21728SOL    HW266626   2.781   3.785   5.494 -0.1370 -0.7428 -0.0275
21729SOL     OW66627   3.366   7.074   0.420  0.4590  0.4638 -0.7233
21729SOL    HW166628   3.453   7.035   0.431  0.2484  0.2296  0.2563
21729SOL    HW266629   3.350   7.120   0.503 -0.5942  0.0045 -0.6623
21730SOL     OW66630   3.582   2.091   7.165  0.3215 -0.4246  0.5246
21730SOL    HW166631   3.536   2.019   7.123 -0.9508  0.6000  0.1032
21730SOL    HW266632   3.530   2.112   7.242  0.6771  0.0318  0.6462
21731SOL     OW66633   4.345   6.587   5.346 -0.5828  0.2176  0.3561
21731SOL    HW166634   4.365   6.562   5.436 -2.8849  1.7720  1.3868
21731SOL    HW266635   4.309   6.507   5.306 -0.3810 -0.2397  1.0725
21732SOL     OW66636   2.530   6.205   5.108  0.4830 -0.6172  0.2245
21732SOL    HW166637   2.543   6.293   5.142  0.8945 -0.0477 -1.3282
21732SOL    HW266638   2.618   6.166   5.108  0.5010 -0.5879 -0.1984
21733SOL     OW66639   7.366   5.858   0.137 -0.5144  0.0873  0.1108
21733SOL    HW166640   7.272   5.868   0.121 -0.4679  2.7362  1.0416
21733SOL    HW266641   7.372   5.789   0.202 -1.8920  0.2999  0.5052
21734SOL     OW66642   2.945   4.947   0.536  0.0518  0.2292 -0.5015
21734SOL    HW166643   2.882   4.980   0.601 -0.0238 -0.6794 -0.0997
21734SOL    HW266644   2.969   5.025   0.485 -0.9497  0.7025 -0.2855
21735SOL     OW66645   7.815   2.529   7.698  0.5256  0.0154 -0.5442
21735SOL    HW166646   7.839   2.534   7.605 -0.4839 -1.5512 -0.9382
21735SOL    HW266647   7.792   2.619   7.721  1.0700  0.4857 -1.7354
21736SOL     OW66648   5.492   6.305   0.234  0.1335  0.2662 -0.4153
21736SOL    HW166649   5.415   6.298   0.290  0.3664 -0.1910 -0.1466
21736SOL    HW266650   5.518   6.214   0.218 -1.1243  0.2816 -2.9411
21737SOL     OW66651   7.659   4.491  11.344  0.3175 -0.1638  0.4604
21737SOL    HW166652   7.709   4.562  11.385  2.4545 -1.6455  0.5658
21737SOL    HW266653   7.608   4.535  11.276  0.2045  1.7048  1.6936
21738SOL     OW66654   2.978   6.930   5.757 -0.5866 -0.1912 -0.1159
21738SOL    HW166655   3.036   6.990   5.711 -1.5511  1.3341  0.5697
21738SOL    HW266656   2.954   6.977   5.837 -3.1081 -0.5517 -0.5896
21739SOL     OW66657   1.545   5.187   8.471  0.1612  0.2628 -0.0083
21739SOL    HW166658   1.522   5.212   8.381  2.7105  3.1272 -0.0327
21739SOL    HW266659   1.590   5.104   8.462  2.5240  1.6017 -1.8458
21740SOL     OW66660   5.874   4.583  11.247 -0.3377 -0.0990  0.4254
21740SOL    HW166661   5.823   4.502  11.241  0.1425 -0.3371 -0.7192
21740SOL    HW266662   5.879   4.614  11.156  1.1588  0.1605  0.5796
21741SOL     OW66663   1.630   4.845   6.803  0.1921 -0.0882  0.2794
21741SOL    HW166664   1.660   4.901   6.732 -1.6498 -0.6527 -0.9982
21741SOL    HW266665   1.536   4.861   6.809 -0.1024 -1.8344  0.9540
21742SOL     OW66666   4.233   1.501   5.081  0.5859  0.3457  0.4079
21742SOL    HW166667   4.317   1.514   5.037  1.5716 -1.2711  1.6774
21742SOL    HW266668   4.178   1.573   5.051  2.0097  0.7207 -1.4578
21743SOL     OW66669   5.164   6.927  10.399 -0.3721 -0.1383  0.3326
21743SOL    HW166670   5.135   7.017  10.411 -1.8289 -0.7043  1.4246
21743SOL    HW266671   5.128   6.902  10.314 -0.4797  0.1319  0.2968
21744SOL     OW66672   2.448   3.437   7.409 -0.5197  0.0892  0.1380
21744SOL    HW166673   2.543   3.432   7.423 -0.7890  0.1462  2.3096
21744SOL    HW266674   2.439   3.457   7.316  1.6152  0.6859 -0.0072
21745SOL     OW66675   3.421   5.694   8.629 -0.3090  0.7359 -0.3451
21745SOL    HW166676   3.516   5.684   8.629 -0.3639  0.0139  0.8220
21745SOL    HW266677   3.387   5.608   8.655 -1.3260  0.7696 -1.4587
21746SOL     OW66678   4.835   6.368   3.248  0.0897 -0.2525  1.0048
21746SOL    HW166679   4.803   6.358   3.158 -2.3780 -0.4755  1.8233
21746SOL    HW266680   4.922   6.405   3.238 -0.1760 -0.0780 -1.4806
21747SOL     OW66681   7.146   5.366  10.864 -0.7557  0.6729  0.5196
21747SOL    HW166682   7.221   5.306  10.856 -0.2816  1.2792  0.3823
21747SOL    HW266683   7.180   5.451  10.837 -1.9745  0.6060 -1.3695
21748SOL     OW66684   1.472   5.734   4.368  0.2079  0.2242  0.7311
21748SOL    HW166685   1.468   5.747   4.463 -2.3320  3.1955  0.3952
21748SOL    HW266686   1.404   5.671   4.349  0.8975 -0.5775  0.8670
21749SOL     OW66687   5.303   1.850   1.458  0.1743  0.5219  0.3190
21749SOL    HW166688   5.304   1.946   1.457 -0.2260  0.5445  1.2930
21749SOL    HW266689   5.395   1.825   1.467  0.5946  0.7361 -2.4477
21750SOL     OW66690   4.887   5.901   4.893 -0.0594  0.3630 -0.3455
21750SOL    HW166691   4.879   5.866   4.982 -0.2620  0.4353 -0.3348
21750SOL    HW266692   4.837   5.983   4.895  0.4868  0.6985 -0.3484
21751SOL     OW66693   1.292   4.948   7.329  0.0712  0.5292  0.0694
21751SOL    HW166694   1.348   4.934   7.405  1.9122 -0.0248 -1.3077
21751SOL    HW266695   1.264   4.860   7.303  1.0894  0.5056 -1.0291
21752SOL     OW66696   2.810   1.130   2.956  0.0096  0.1119  0.4027
21752SOL    HW166697   2.871   1.119   3.028  0.8951  0.2426 -0.3111
21752SOL    HW266698   2.752   1.201   2.984 -1.6630 -1.8373  2.2942
21753SOL     OW66699   2.507   7.662   9.049  0.4592  0.7162 -0.0466
21753SOL    HW166700   2.480   7.583   9.002  0.3865  0.4783  0.3823
21753SOL    HW266701   2.544   7.719   8.982 -0.4258  0.7376 -0.5343
21754SOL     OW66702   1.328   3.627   2.234 -0.0510  0.4870 -0.1687
21754SOL    HW166703   1.258   3.563   2.217 -0.6095  1.0306  0.0425
21754SOL    HW266704   1.353   3.658   2.147 -1.6522  1.9350 -0.1734
21755SOL     OW66705   6.636   6.235   3.452 -0.0608 -0.1930 -0.2017
21755SOL    HW166706   6.569   6.235   3.383 -1.1042  2.1353  0.6900
21755SOL    HW266707   6.612   6.163   3.509 -2.8299  1.4122  0.8988
21756SOL     OW66708   6.656   2.128   8.777 -0.4340  0.3962 -0.0659
21756SOL    HW166709   6.568   2.111   8.745  0.1770 -0.8974 -1.1304
21756SOL    HW266710   6.654   2.101   8.869 -1.1448  0.4448 -0.0613
21757SOL     OW66711   4.695   0.925   6.358  0.8010  0.4311 -0.6464
21757SOL    HW166712   4.695   0.901   6.451  0.1854  0.1513 -0.7143
21757SOL    HW266713   4.617   0.980   6.348  0.3131 -0.3382 -1.1928
21758SOL     OW66714   3.159   1.854   6.768 -0.5162 -0.1321 -0.3767
21758SOL    HW166715   3.203   1.839   6.852  0.7990  0.0043 -1.0158
21758SOL    HW266716   3.095   1.922   6.787 -1.1132 -0.9676  0.7877
21759SOL     OW66717   5.917   1.816   9.499 -0.4468  0.3723  0.3907
21759SOL    HW166718   5.854   1.886   9.515 -2.0072 -0.8881  0.0386
21759SOL    HW266719   5.888   1.745   9.556  0.7897 -0.1807  0.3571
21760SOL     OW66720   3.319   7.959   6.917 -0.0498 -0.4914 -0.2849
21760SOL    HW166721   3.268   7.902   6.860 -1.7486 -0.5002  1.1500
21760SOL    HW266722   3.320   8.044   6.871 -1.0779 -0.5865 -0.4961
21761SOL     OW66723   2.538   1.309   6.847 -0.5506 -0.2153  0.3350
21761SOL    HW166724   2.481   1.323   6.922 -0.7884 -0.7950  0.2674
21761SOL    HW266725   2.546   1.214   6.840 -0.2953 -0.1595 -0.1943
21762SOL     OW66726   4.114   6.092  11.094  0.4100  0.2614  0.2714
21762SOL    HW166727   4.146   6.160  11.035 -0.7790 -0.6915 -1.5630
21762SOL    HW266728   4.019   6.094  11.083  0.2397 -0.5891  1.4576
21763SOL     OW66729   5.527   5.602   0.115  0.4843 -0.4842  0.2274
21763SOL    HW166730   5.467   5.660   0.162  1.0592 -0.5484  1.0538
21763SOL    HW266731   5.534   5.524   0.171  0.3143 -1.0441 -0.5056
21764SOL     OW66732   6.808   6.790   3.228  0.1423  0.0187 -0.6402
21764SOL    HW166733   6.788   6.706   3.268 -0.5760  0.3765 -0.2183
21764SOL    HW266734   6.731   6.811   3.175  0.5824  0.1140 -1.2549
21765SOL     OW66735   4.203   6.716  10.656  0.1222  0.0437  0.1762
21765SOL    HW166736   4.208   6.653  10.585 -2.3118 -1.1138  0.9241
21765SOL    HW266737   4.156   6.791  10.620  0.2341  0.1053  0.1570
21766SOL     OW66738   6.225   6.157   2.529  0.3115 -0.9838  0.3640
21766SOL    HW166739   6.246   6.218   2.458  0.7532 -3.7464 -2.0545
21766SOL    HW266740   6.310   6.126   2.560  0.0756 -1.4696  0.5370
21767SOL     OW66741   0.637   5.233  11.309  0.2162  0.5956 -0.3409
21767SOL    HW166742   0.604   5.149  11.277 -1.4170  1.3550 -0.8180
21767SOL    HW266743   0.579   5.298  11.268  0.2863  1.8421  1.4161
21768SOL     OW66744   2.915   6.456   9.930 -0.3170  0.5701 -0.4619
21768SOL    HW166745   2.925   6.364   9.905  0.4195 -0.0387  1.8312
21768SOL    HW266746   2.823   6.475   9.913 -1.2744 -1.5525  1.8232
21769SOL     OW66747   4.663   0.206  10.375  0.1269 -0.4686  0.1356
21769SOL    HW166748   4.697   0.252  10.298 -3.3348  0.0304 -1.2991
21769SOL    HW266749   4.677   0.267  10.448 -0.5700  1.0881 -0.9837
21770SOL     OW66750   2.248   1.499   4.175 -0.5187 -0.3346 -1.1259
21770SOL    HW166751   2.248   1.486   4.270 -2.2111 -2.8281 -1.3777
21770SOL    HW266752   2.240   1.594   4.164 -2.1577 -0.1068  1.2478
21771SOL     OW66753   3.499   5.703   6.231  0.7534 -0.9586  0.1300
21771SOL    HW166754   3.430   5.768   6.247  0.0779 -2.1073  2.3501
21771SOL    HW266755   3.563   5.719   6.300  1.3362 -1.6533 -0.2454
21772SOL     OW66756   1.709   3.247   5.814 -0.2465 -0.1232  0.5339
21772SOL    HW166757   1.801   3.247   5.785 -0.7210 -2.0023 -1.2145
21772SOL    HW266758   1.714   3.260   5.909  1.6466  2.3205  0.1932
21773SOL     OW66759   6.330   3.477  11.823 -0.5370  0.6104 -0.1236
21773SOL    HW166760   6.282   3.557  11.845 -0.7982  0.2363  0.7282
21773SOL    HW266761   6.420   3.494  11.853 -0.4125  0.8612 -0.6289
21774SOL     OW66762   5.086   1.214   8.503  0.3022  0.3667  0.5050
21774SOL    HW166763   5.037   1.160   8.566 -0.4117 -0.1127 -0.4423
21774SOL    HW266764   5.176   1.212   8.536 -0.0505  0.1321  1.5143
21775SOL     OW66765   2.129   1.478  10.405 -0.1364 -0.4570 -0.1177
21775SOL    HW166766   2.219   1.501  10.383  0.1263 -0.1486  1.2037
21775SOL    HW266767   2.081   1.486  10.322  0.8648  0.2523 -0.6465
21776SOL     OW66768   5.830   5.004  10.462 -0.6246  0.3052 -0.2814
21776SOL    HW166769   5.881   4.950  10.522 -0.4450  3.0491  2.2752
21776SOL    HW266770   5.894   5.039  10.400 -0.5066 -1.0920 -0.9853
21777SOL     OW66771   5.181   2.360   4.002  0.5872  0.3745  0.1273
21777SOL    HW166772   5.276   2.352   3.990  0.4186 -0.9654 -0.5420
21777SOL    HW266773   5.167   2.344   4.095  0.9568 -0.2922  0.0766
21778SOL     OW66774   7.013   2.320   4.864  0.4208  0.3844  0.1336
21778SOL    HW166775   7.047   2.328   4.775 -0.0811  0.2304 -0.0707
21778SOL    HW266776   6.921   2.343   4.857  0.1700 -0.4868  0.4538
21779SOL     OW66777   6.440   5.097   3.679 -0.2261  0.2779 -0.3386
21779SOL    HW166778   6.401   5.119   3.595 -0.4326 -0.7043 -0.5189
21779SOL    HW266779   6.473   5.007   3.667  1.7475  0.9164 -0.0730
21780SOL     OW66780   0.564   7.909  11.121 -0.1181  0.3485  0.1174
21780SOL    HW166781   0.520   7.859  11.190  0.9242 -0.1723  0.4321
21780SOL    HW266782   0.577   7.996  11.159 -0.7802  0.4762  0.0567
21781SOL     OW66783   3.576   0.849   5.827 -0.2281 -0.6262  0.4926
21781SOL    HW166784   3.610   0.843   5.738 -2.4933  2.5329 -0.7882
21781SOL    HW266785   3.653   0.846   5.883  1.2247 -3.3954 -1.4106
21782SOL     OW66786   7.667   7.203   0.838  0.6948  0.1718 -0.6328
21782SOL    HW166787   7.697   7.160   0.758 -1.1285  0.4308 -1.4971
21782SOL    HW266788   7.591   7.152   0.866  0.9525  0.4413  0.6140
21783SOL     OW66789   7.893   0.179   7.598 -0.7057 -0.2896 -0.0003
21783SOL    HW166790   7.878   0.258   7.651 -2.0187  0.3010 -1.2014
21783SOL    HW266791   7.986   0.182   7.578 -0.0801 -0.6905  2.4704
21784SOL     OW66792   1.330   5.325   6.511 -0.1563 -1.0635  0.1482
21784SOL    HW166793   1.288   5.404   6.546 -0.0717 -0.8777 -0.1672
21784SOL    HW266794   1.257   5.265   6.494 -0.2338 -0.9947  0.2354
21785SOL     OW66795   4.700   7.415  11.452 -0.1837  0.0399 -0.5987
21785SOL    HW166796   4.605   7.423  11.461 -0.2590  0.8941 -1.9232
21785SOL    HW266797   4.714   7.401  11.359  0.9333 -1.4289 -0.2438
21786SOL     OW66798   2.346   2.617  11.365  0.3033 -0.4744 -0.6332
21786SOL    HW166799   2.386   2.700  11.340 -0.6475 -0.6858 -3.1264
21786SOL    HW266800   2.404   2.549  11.330  0.6122 -0.8745  0.6056
21787SOL     OW66801   2.229   0.099   8.580  0.1625  0.1868  0.2275
21787SOL    HW166802   2.288   0.096   8.656  1.2145 -1.8219 -0.5720
21787SOL    HW266803   2.259   0.174   8.529  0.6876  0.4264  0.8716
21788SOL     OW66804   0.155   3.789   4.544 -0.1417  0.2219  0.2763
21788SOL    HW166805   0.076   3.844   4.543 -0.7358 -0.6135 -0.7085
21788SOL    HW266806   0.217   3.835   4.488 -0.1053  0.6359  0.6538
21789SOL     OW66807   0.189   4.701   9.337 -0.2576  1.0901  0.1166
21789SOL    HW166808   0.140   4.638   9.390  2.8655 -0.2270  1.6867
21789SOL    HW266809   0.146   4.697   9.251 -0.2100 -3.4035  0.0378
21790SOL     OW66810   1.436   7.005   3.024 -0.3847  0.6076 -0.3925
21790SOL    HW166811   1.457   7.064   2.952  0.1429  1.0108  0.0858
21790SOL    HW266812   1.471   7.048   3.102  0.2260 -0.4475 -0.0666
21791SOL     OW66813   0.323   4.969   8.608  0.1952  0.3613  0.4985
21791SOL    HW166814   0.274   4.991   8.687 -0.5621  0.2257  0.0681
21791SOL    HW266815   0.326   5.050   8.558 -1.1117 -0.0518 -0.2860
21792SOL     OW66816   4.141   1.213   3.196  0.5544  0.0111 -0.1182
21792SOL    HW166817   4.090   1.217   3.277 -0.5369 -1.2277 -0.7041
21792SOL    HW266818   4.188   1.296   3.194 -0.6482  0.7692  0.9715
21793SOL     OW66819   0.279   1.276   6.849 -0.0948 -0.0081 -0.4282
21793SOL    HW166820   0.221   1.336   6.894  0.1622  1.3051 -1.7621
21793SOL    HW266821   0.258   1.287   6.756  1.8549  0.0807 -0.9103
21794SOL     OW66822   6.634   7.934   8.429 -0.0104  0.4175  0.4646
21794SOL    HW166823   6.707   7.989   8.456 -0.0202  0.6709  0.0083
21794SOL    HW266824   6.579   7.993   8.376 -0.7336  0.3352  1.1089
21795SOL     OW66825   5.456   1.357  11.325  0.3389 -0.5793 -0.2410
21795SOL    HW166826   5.401   1.286  11.358 -0.3106 -0.7507 -1.6207
21795SOL    HW266827   5.510   1.316  11.258  0.9034 -0.0398 -0.1193
21796SOL     OW66828   6.989   5.792  10.548 -0.2337 -0.4100 -0.0302
21796SOL    HW166829   6.893   5.802  10.545 -0.1208  1.1342  0.4774
21796SOL    HW266830   7.013   5.820  10.636  0.7579 -0.0775 -0.3997
21797SOL     OW66831   2.890   4.797   1.095  0.0039 -0.3928 -0.3788
21797SOL    HW166832   2.846   4.874   1.130 -1.2723 -1.5897  0.7877
21797SOL    HW266833   2.976   4.797   1.136 -0.1939  0.0996  0.0433
21798SOL     OW66834   7.797   2.408   6.039  0.7576 -0.5918  0.7880
21798SOL    HW166835   7.844   2.329   6.011 -2.2486 -1.7213 -1.7289
21798SOL    HW266836   7.726   2.375   6.094  0.4625  0.5321  1.0922
21799SOL     OW66837   1.391   1.086  11.373 -0.0162  0.3395 -0.0287
21799SOL    HW166838   1.379   1.172  11.413 -0.7185  0.1489  0.1711
21799SOL    HW266839   1.472   1.095  11.322 -0.0377  1.0937  0.0586
21800SOL     OW66840   7.802   2.563   5.419 -0.7492  0.2390  0.0578
21800SOL    HW166841   7.847   2.598   5.342 -1.0163  0.2406 -0.0997
21800SOL    HW266842   7.776   2.475   5.393 -0.6919  0.1778  0.2066
21801SOL     OW66843   2.607   2.982   6.415 -0.2610  0.0781 -0.2273
21801SOL    HW166844   2.681   3.028   6.455  0.7375  0.3444 -2.2344
21801SOL    HW266845   2.531   3.009   6.467  1.1604 -1.3506  2.8262
21802SOL     OW66846   0.046   4.199   2.941  0.4729 -0.0692 -0.2605
21802SOL    HW166847   0.021   4.267   2.877 -0.5202 -0.1949 -0.0199
21802SOL    HW266848   0.042   4.117   2.892  1.2419 -0.0083 -0.4353
21803SOL     OW66849   3.931   3.731   1.486  0.7005  0.0967 -0.9358
21803SOL    HW166850   3.931   3.816   1.441 -1.9036  1.6080  1.6038
21803SOL    HW266851   3.986   3.745   1.563  0.6915 -0.7105 -0.7781
21804SOL     OW66852   7.180   6.835   5.971 -0.5127  0.5247  0.1983
21804SOL    HW166853   7.164   6.906   6.034 -0.8502  0.6538 -0.0306
21804SOL    HW266854   7.256   6.865   5.921 -0.2385  0.4193  0.5490
21805SOL     OW66855   7.486   4.216   2.427  0.1705 -0.3610 -0.2232
21805SOL    HW166856   7.422   4.148   2.450 -1.2475  1.2011  0.6622
21805SOL    HW266857   7.503   4.262   2.509  2.3390 -0.6020 -0.4856
21806SOL     OW66858   3.020   3.629   9.823  0.2357 -0.4098 -0.1908
21806SOL    HW166859   3.038   3.713   9.780  0.0819  0.5487  1.5203
21806SOL    HW266860   3.092   3.619   9.885 -1.5076  0.2209  2.0714
21807SOL     OW66861   6.821   7.249   5.455  0.1776  0.6112  0.2497
21807SOL    HW166862   6.889   7.194   5.416 -0.6487 -0.5303  0.3881
21807SOL    HW266863   6.740   7.199   5.445 -0.2429  0.8001  2.3816
21808SOL     OW66864   4.083   5.834   5.130 -0.4420 -0.1750 -0.5033
21808SOL    HW166865   3.994   5.820   5.163  0.2481  0.1665  1.6648
21808SOL    HW266866   4.099   5.761   5.070 -1.1855 -1.8809  1.2698
21809SOL     OW66867   7.939   1.055   6.865  0.5900 -0.1281  1.1206
21809SOL    HW166868   8.006   1.099   6.812 -0.7537  2.3769  1.3611
21809SOL    HW266869   7.869   1.035   6.803 -0.1924  1.1323  1.5524
21810SOL     OW66870   5.580   6.882   8.541  0.5840 -0.2393  0.4933
21810SOL    HW166871   5.639   6.838   8.481  0.3022  0.7755 -0.5584
21810SOL    HW266872   5.496   6.883   8.496 -0.3641 -1.9457  2.1010
21811SOL     OW66873   5.187   1.202   9.380  0.2450 -0.2776 -0.3334
21811SOL    HW166874   5.270   1.166   9.348  1.2725  1.0606  0.6838
21811SOL    HW266875   5.179   1.169   9.470 -0.8749 -1.2449 -0.7663
21812SOL     OW66876   3.152   1.777  10.826 -0.1033 -0.7722 -0.5379
21812SOL    HW166877   3.121   1.868  10.836  0.1053 -0.8331  0.9025
21812SOL    HW266878   3.071   1.725  10.823 -0.2202 -0.5618 -1.1708
21813SOL     OW66879   2.306   5.550   4.901 -0.4580 -0.0223  0.1026
21813SOL    HW166880   2.345   5.594   4.825 -0.9781  1.2613  0.5574
21813SOL    HW266881   2.213   5.546   4.880 -0.1572 -3.8586 -1.3824
21814SOL     OW66882   0.205   6.494  11.820 -0.3589  0.3597 -0.7480
21814SOL    HW166883   0.271   6.545  11.773 -0.3338  0.0458 -1.0509
21814SOL    HW266884   0.185   6.547  11.898  0.6606  0.1936 -0.3569
21815SOL     OW66885   0.237   7.911   3.442 -0.4379  0.0404 -1.1119
21815SOL    HW166886   0.293   7.841   3.408 -2.0030 -0.5427 -2.6647
21815SOL    HW266887   0.262   7.920   3.534  1.8410 -0.4863 -1.6181
21816SOL     OW66888   3.826   6.568   3.176  0.8797 -0.0121  0.1502
21816SOL    HW166889   3.741   6.523   3.178  0.7081  0.2495 -0.8812
21816SOL    HW266890   3.875   6.528   3.247  0.9995 -2.3983 -1.1626
21817SOL     OW66891   7.540   3.591   0.175 -0.8067  0.1677 -0.4091
21817SOL    HW166892   7.583   3.520   0.222  0.2165 -1.8966 -4.0591
21817SOL    HW266893   7.454   3.599   0.217 -0.2849 -2.0035  1.2493
21818SOL     OW66894   4.671   6.375   9.093  0.0239 -0.4775 -0.0750
21818SOL    HW166895   4.718   6.302   9.052  1.9098  0.2688  0.6446
21818SOL    HW266896   4.706   6.453   9.051 -2.3915  0.0519 -1.2398
21819SOL     OW66897   3.419   2.883   5.203 -0.6342  0.0576  0.8161
21819SOL    HW166898   3.335   2.902   5.161 -0.7343 -1.1139  0.4478
21819SOL    HW266899   3.478   2.951   5.172 -1.4674  0.9668  1.1752
21820SOL     OW66900   3.616   1.631   5.033 -0.4537  0.1055  0.3501
21820SOL    HW166901   3.619   1.703   5.096 -2.7934  0.5040  0.0965
21820SOL    HW266902   3.556   1.662   4.965  2.2367 -0.1264 -2.3901
21821SOL     OW66903   6.660   0.606   6.373 -0.2254 -0.4606 -0.0611
21821SOL    HW166904   6.641   0.694   6.405  1.0255 -0.7378  1.6065
21821SOL    HW266905   6.578   0.558   6.384 -0.4956  0.1090  0.4552
21822SOL     OW66906   4.723   2.230   8.956 -0.6873 -0.9858  0.0817
21822SOL    HW166907   4.627   2.221   8.958 -0.7313 -0.5081  0.2735
21822SOL    HW266908   4.748   2.231   9.049 -0.6068 -0.0656  0.0639
21823SOL     OW66909   5.510   1.468   6.613  0.0599  0.0988  0.0078
21823SOL    HW166910   5.420   1.495   6.592  0.1489  1.3014  1.1097
21823SOL    HW266911   5.553   1.464   6.527 -0.9479 -0.1839 -0.5114
21824SOL     OW66912   3.721   4.633   0.913 -0.2344  0.1397  0.3390
21824SOL    HW166913   3.744   4.561   0.855 -2.7421 -0.9435  0.5433
21824SOL    HW266914   3.760   4.610   0.997  2.1330  0.9602 -0.4712
21825SOL     OW66915   6.922   3.848   0.310  0.2834  0.3274 -0.1864
21825SOL    HW166916   6.904   3.874   0.401  0.3761  1.0087 -0.3571
21825SOL    HW266917   7.012   3.875   0.295  0.1398  0.5880 -0.6033
21826SOL     OW66918   0.952   7.458   3.863  0.3157  0.4182 -0.8898
21826SOL    HW166919   0.892   7.525   3.831 -0.1266  0.1356 -0.6600
21826SOL    HW266920   0.905   7.416   3.935 -0.2783 -1.5456 -2.3390
21827SOL     OW66921   5.069   5.952  10.610 -0.0490  0.3960  0.1532
21827SOL    HW166922   5.125   5.964  10.687 -0.0884  0.4836  0.1686
21827SOL    HW266923   4.988   5.997  10.633 -1.1362 -1.9413  1.1965
21828SOL     OW66924   3.917   5.727   4.825 -0.0983  0.7787 -0.1029
21828SOL    HW166925   3.844   5.675   4.792  1.5624 -0.7558 -1.6318
21828SOL    HW266926   3.967   5.665   4.879  0.9318  1.3288 -0.4018
21829SOL     OW66927   3.119   5.811   8.611  0.5619  0.1285 -0.1225
21829SOL    HW166928   3.163   5.790   8.694 -1.8871 -1.6295  0.8409
21829SOL    HW266929   3.153   5.745   8.550  1.3979  0.6167 -0.2057
21830SOL     OW66930   4.517   7.409   9.278  0.6524 -0.2833 -0.1071
21830SOL    HW166931   4.455   7.405   9.205  0.5781 -1.8808  0.0181
21830SOL    HW266932   4.490   7.486   9.328  0.1482  0.3129 -1.2579
21831SOL     OW66933   4.474   2.903  12.240  0.4067 -0.1540 -0.0514
21831SOL    HW166934   4.502   2.957  12.314 -1.4924 -0.6220  1.0729
21831SOL    HW266935   4.409   2.844  12.277 -0.0425 -0.9102 -1.9601
21832SOL     OW66936   5.058   6.420   6.834  0.3190  0.0985 -0.5016
21832SOL    HW166937   5.018   6.489   6.781 -0.6378  1.6477  2.0523
21832SOL    HW266938   4.999   6.345   6.825 -0.5187  0.7586 -0.6154
21833SOL     OW66939   5.019   4.468   9.007 -0.8926  0.0706  0.2106
21833SOL    HW166940   4.948   4.436   9.062 -1.6789 -0.4968 -1.0908
21833SOL    HW266941   4.978   4.534   8.951 -0.2296  0.2682 -0.0589
21834SOL     OW66942   5.371   2.562   2.029 -0.1070 -0.3040 -0.3785
21834SOL    HW166943   5.457   2.595   2.055  0.5614 -2.3361  0.1688
21834SOL    HW266944   5.373   2.563   1.933  0.9274 -1.2501 -0.3835
21835SOL     OW66945   7.465   1.410   8.680 -0.2354  0.2283 -0.1605
21835SOL    HW166946   7.472   1.481   8.617 -0.9945  2.0148  1.6811
21835SOL    HW266947   7.372   1.408   8.704  0.1695  0.1703  1.5119
21836SOL     OW66948   6.647   2.254   8.056  0.2706 -0.1853 -0.1596
21836SOL    HW166949   6.645   2.197   8.132  0.1279  1.2183  0.9161
21836SOL    HW266950   6.702   2.207   7.993 -0.8864 -2.0774  0.1883
21837SOL     OW66951   3.353   7.093   7.673 -0.1314 -0.1096 -0.0152
21837SOL    HW166952   3.430   7.035   7.677 -1.1868 -1.6361 -0.6723
21837SOL    HW266953   3.365   7.141   7.591 -0.2062 -0.8722 -0.4920
21838SOL     OW66954   7.133   6.599   5.571  0.2012 -0.6140  0.5429
21838SOL    HW166955   7.129   6.541   5.495  0.6740 -1.4493  1.1389
21838SOL    HW266956   7.123   6.541   5.647  0.5462  0.0967  1.1506
21839SOL     OW66957   4.283   0.767   0.573  0.5211 -0.1565 -0.3952
21839SOL    HW166958   4.216   0.743   0.508 -1.6113 -1.1106  1.9966
21839SOL    HW266959   4.291   0.862   0.566  0.4476 -0.2325 -2.0620
21840SOL     OW66960   7.344   5.914   7.766  0.0566  0.3425  0.6709
21840SOL    HW166961   7.360   6.008   7.772 -0.1068  0.3794  0.5571
21840SOL    HW266962   7.430   5.874   7.774  0.2124  0.5340  0.0630
21841SOL     OW66963   0.484   1.873   4.651  0.0439  0.5036 -0.4995
21841SOL    HW166964   0.534   1.793   4.664 -1.0901 -0.0750  0.3996
21841SOL    HW266965   0.417   1.872   4.719 -0.8641  1.5288 -1.3350
21842SOL     OW66966   5.331   1.033   3.219 -0.5388  0.1469  0.1211
21842SOL    HW166967   5.381   0.951   3.216 -2.3243 -0.9862  0.2934
21842SOL    HW266968   5.322   1.052   3.312 -1.0696 -0.0778  0.1197
21843SOL     OW66969   3.216   2.276   3.806  0.4294  0.1653  0.1601
21843SOL    HW166970   3.293   2.221   3.823  0.2234 -0.1151  0.1973
21843SOL    HW266971   3.202   2.270   3.712  1.2035  1.2273 -0.0375
21844SOL     OW66972   3.486   1.547   2.979  0.0940 -0.1003 -0.1700
21844SOL    HW166973   3.418   1.479   2.985  0.6026 -0.6233 -0.2558
21844SOL    HW266974   3.503   1.571   3.070 -0.5069  0.3484 -0.1649
21845SOL     OW66975   1.440   0.553  10.903  0.1899  0.0696  0.1781
21845SOL    HW166976   1.401   0.587  10.822  0.1308  0.3941  0.3395
21845SOL    HW266977   1.534   0.552  10.887  0.4833  2.9457  1.1058
21846SOL     OW66978   4.054   5.015  10.894 -0.1021 -0.2481 -0.1687
21846SOL    HW166979   3.967   5.020  10.855 -0.4516  0.9538  0.6955
21846SOL    HW266980   4.038   5.014  10.988  0.8412  1.4867  0.0491
21847SOL     OW66981   7.396   6.014   0.556  0.2806 -0.5681  0.0783
21847SOL    HW166982   7.482   6.024   0.596  0.6333 -0.1367 -0.7679
21847SOL    HW266983   7.398   6.070   0.478 -0.2681 -1.6212 -0.7305
21848SOL     OW66984   6.923   7.702   9.326 -0.5274  0.1245  0.2419
21848SOL    HW166985   6.846   7.754   9.347  0.7513  1.4543  2.0349
21848SOL    HW266986   6.913   7.622   9.377 -1.2529 -0.2418 -0.4572
21849SOL     OW66987   5.921   1.798   6.426 -0.0628  0.2996  0.5683
21849SOL    HW166988   5.938   1.753   6.508  0.1425 -1.2635 -0.2949
21849SOL    HW266989   5.906   1.728   6.363 -1.3509  1.4797 -0.4964
21850SOL     OW66990   4.393   2.493  11.078  0.3865 -0.0953  0.1997
21850SOL    HW166991   4.426   2.425  11.020 -0.4550 -0.0972 -0.2902
21850SOL    HW266992   4.370   2.565  11.020 -1.2342 -0.4018  0.4319
21851SOL     OW66993   3.138   7.934   1.064 -0.3100  0.2026 -0.5350
21851SOL    HW166994   3.053   7.904   1.031 -1.1997  1.0820  0.8287
21851SOL    HW266995   3.124   7.942   1.159  1.2420  0.5702 -0.3224
21852SOL     OW66996   1.479   0.918   8.804  0.1792 -0.7011 -0.2423
21852SOL    HW166997   1.491   0.989   8.867 -1.1304 -1.4018  0.8472
21852SOL    HW266998   1.516   0.951   8.722 -1.7315  1.8122 -0.1795
21853SOL     OW66999   3.081   5.400   4.095 -0.0651  0.3442 -0.0802
21853SOL    HW167000   3.155   5.375   4.149 -0.4675  0.0107  0.3216
21853SOL    HW267001   3.038   5.318   4.073 -0.2678  0.5262 -0.3811
21854SOL     OW67002   7.734   1.581   9.670 -0.6949 -0.2342  0.3902
21854SOL    HW167003   7.729   1.491   9.638 -0.1755 -0.4783  0.9625
21854SOL    HW267004   7.710   1.635   9.595  1.6056 -0.7209 -0.7799
21855SOL     OW67005   1.229   2.524   2.911 -0.4666 -0.6023 -0.0713
21855SOL    HW167006   1.241   2.556   3.000 -0.3495 -1.6481  0.3032
21855SOL    HW267007   1.217   2.603   2.858 -0.3424  0.0359  0.8370
21856SOL     OW67008   4.833   4.590   0.827  0.0255 -0.0123 -0.2645
21856SOL    HW167009   4.791   4.505   0.813  0.2627 -0.0296 -0.9345
21856SOL    HW267010   4.761   4.652   0.833 -0.1394  0.1826 -2.8572
21857SOL     OW67011   4.745   0.346   2.880  0.1711 -0.4060 -0.1484
21857SOL    HW167012   4.650   0.347   2.892  0.0661 -0.7167 -0.8908
21857SOL    HW267013   4.766   0.432   2.845  0.2145 -0.2175  0.3277
21858SOL     OW67014   7.465   1.424  11.595  0.2741  0.5895  0.4539
21858SOL    HW167015   7.436   1.514  11.579 -1.4593 -0.2507 -1.6782
21858SOL    HW267016   7.557   1.423  11.568  0.2972  1.7099  0.4438
21859SOL     OW67017   6.387   2.738  10.881 -0.3221 -0.1707 -0.0893
21859SOL    HW167018   6.306   2.767  10.922 -0.1194  1.2764 -0.6378
21859SOL    HW267019   6.360   2.672  10.817 -0.8309 -1.0987  1.0661
21860SOL     OW67020   0.819   0.559   6.678 -0.5300 -0.2062 -0.2799
21860SOL    HW167021   0.773   0.513   6.749  1.1382 -1.7857 -0.1696
21860SOL    HW267022   0.820   0.650   6.706  2.7103 -1.1165  3.3568
21861SOL     OW67023   1.069   0.192   7.557  0.0052 -0.1654 -0.1748
21861SOL    HW167024   1.096   0.104   7.531  0.9378  0.0109  0.1815
21861SOL    HW267025   1.059   0.187   7.652  0.8109  0.3048 -0.0585
21862SOL     OW67026   5.057   2.451  11.959  0.1905 -0.1394  0.0040
21862SOL    HW167027   5.127   2.433  12.022  0.7810  1.6392 -0.0907
21862SOL    HW267028   4.996   2.507  12.007 -0.5281 -0.6611 -0.2981
21863SOL     OW67029   0.778   1.438   2.046 -0.4537  0.4961 -0.2085
21863SOL    HW167030   0.870   1.412   2.049 -0.6360 -0.0566  0.9921
21863SOL    HW267031   0.781   1.533   2.033  0.3314  0.6846  1.1557
21864SOL     OW67032   3.682   1.034   2.604 -0.0032 -0.8323 -0.1322
21864SOL    HW167033   3.772   1.048   2.573 -0.0991  0.3746  0.0831
21864SOL    HW267034   3.681   1.069   2.693 -0.0438 -3.2105  0.8845
21865SOL     OW67035   7.768   3.167   7.498  0.2924  0.2893  0.5002
21865SOL    HW167036   7.842   3.133   7.447  1.4747  0.6831  1.8903
21865SOL    HW267037   7.713   3.210   7.433  1.2377 -0.0798 -0.5900
21866SOL     OW67038   4.265   2.724  12.318 -0.4912  0.3097 -0.8206
21866SOL    HW167039   4.266   2.764  12.405  1.4131  0.3336 -0.8232
21866SOL    HW267040   4.215   2.643  12.329  2.3947 -1.3522  1.1244
21867SOL     OW67041   1.371   3.212   4.405 -0.3781 -0.5654 -0.4937
21867SOL    HW167042   1.464   3.190   4.399 -0.5253 -1.3141 -0.2085
21867SOL    HW267043   1.364   3.266   4.483 -0.4517 -2.1412  0.6332
21868SOL     OW67044   5.504   4.177   7.703  0.3874 -0.0108 -0.0027
21868SOL    HW167045   5.429   4.120   7.688 -0.4289  0.4895  1.8698
21868SOL    HW267046   5.481   4.258   7.658 -1.3664  0.9706  2.4111
21869SOL     OW67047   6.617   0.202   3.319 -0.7588  0.0094 -0.1699
21869SOL    HW167048   6.569   0.264   3.265 -1.7417 -0.2378  0.3965
21869SOL    HW267049   6.636   0.250   3.399  1.1838  0.5596 -0.9018
21870SOL     OW67050   2.673   7.376   9.784  0.2986  0.1199  0.0093
21870SOL    HW167051   2.741   7.311   9.763  2.0676  1.7228  0.5378
21870SOL    HW267052   2.681   7.442   9.715  0.4972  1.2137  1.0488
21871SOL     OW67053   6.378   2.417   9.146  0.3415  0.1369  0.0335
21871SOL    HW167054   6.429   2.343   9.111  3.0930  2.2197 -0.6823
21871SOL    HW267055   6.345   2.462   9.068 -0.5875  0.1771  0.4419
21872SOL     OW67056   7.244   0.195   7.692  0.5061  0.6189 -0.3009
21872SOL    HW167057   7.275   0.274   7.648  0.7959  0.2282 -0.8052
21872SOL    HW267058   7.149   0.197   7.679  0.3840  1.4112  0.5812
21873SOL     OW67059   2.707   4.672   5.418  0.0970 -0.1749  0.4886
21873SOL    HW167060   2.633   4.612   5.409 -0.1959  0.3522 -0.7189
21873SOL    HW267061   2.782   4.624   5.383  0.1587 -0.3741  0.8860
21874SOL     OW67062   3.750   2.224   1.801 -0.2930 -0.9901 -0.7880
21874SOL    HW167063   3.749   2.317   1.776  1.8150 -0.4905  0.7460
21874SOL    HW267064   3.742   2.225   1.896 -0.2033 -2.3930 -0.7487
21875SOL     OW67065   7.454   0.690   5.486  0.3442  0.8094 -0.1428
21875SOL    HW167066   7.374   0.643   5.463  0.5123  0.3816  0.1230
21875SOL    HW267067   7.480   0.652   5.570  1.2378  0.4105 -0.5904
21876SOL     OW67068   7.487   6.792   0.312  0.9371 -0.2794 -0.0715
21876SOL    HW167069   7.479   6.726   0.381  0.4461  0.1201  0.2687
21876SOL    HW267070   7.550   6.856   0.348  0.4440  0.0904  0.1452
21877SOL     OW67071   0.552   1.104   3.005  0.0630  0.3799  0.0627
21877SOL    HW167072   0.587   1.069   2.923 -1.0873  0.4995 -0.4870
21877SOL    HW267073   0.505   1.183   2.980 -0.7517  0.1309  0.7654
21878SOL     OW67074   6.759   7.306   9.174  0.0165 -0.1981  0.0289
21878SOL    HW167075   6.745   7.212   9.188  2.7542 -0.5840  0.6736
21878SOL    HW267076   6.780   7.313   9.081  3.3689 -0.8542  0.6169
21879SOL     OW67077   6.690   2.535   3.066  0.3032 -0.2104  0.0303
21879SOL    HW167078   6.607   2.537   3.113 -0.1536 -1.1292 -0.7077
21879SOL    HW267079   6.724   2.624   3.075 -0.2354 -0.1044  1.2418
21880SOL     OW67080   3.194   5.043   9.038 -0.4006  0.2421 -0.3190
21880SOL    HW167081   3.189   5.131   9.076 -2.2113 -0.1345  0.3908
21880SOL    HW267082   3.238   5.056   8.954  1.2243  1.4983  0.6676
21881SOL     OW67083   0.648   4.683   8.969 -0.2812  0.3060 -0.2405
21881SOL    HW167084   0.640   4.766   8.922  0.4544  0.3588 -0.2804
21881SOL    HW267085   0.580   4.688   9.037 -0.7690  0.5970 -0.7401
21882SOL     OW67086   1.300   4.250  12.027 -0.5303  0.1753 -0.1252
21882SOL    HW167087   1.274   4.341  12.014  0.1745  0.1788 -1.6452
21882SOL    HW267088   1.340   4.249  12.114 -2.1899  0.9094  0.7068
21883SOL     OW67089   4.484   7.698   1.412 -0.2857 -0.3696 -0.0660
21883SOL    HW167090   4.524   7.774   1.369 -0.5252 -0.1500  0.0988
21883SOL    HW267091   4.390   7.711   1.400 -0.5158  0.8559  2.4139
21884SOL     OW67092   4.850   5.552   0.621  0.4400 -0.0192 -0.3264
21884SOL    HW167093   4.904   5.486   0.579 -0.1411 -0.6306 -0.1167
21884SOL    HW267094   4.772   5.505   0.651  0.2122  0.6723  0.1954
21885SOL     OW67095   6.602   7.931   0.708 -0.4002  0.2381  0.3394
21885SOL    HW167096   6.553   8.009   0.680  0.3375  0.7214  0.3665
21885SOL    HW267097   6.568   7.861   0.653 -0.9692  0.6077  0.2092
21886SOL     OW67098   6.058   1.480  12.233 -0.2361 -0.0979 -1.0566
21886SOL    HW167099   5.992   1.496  12.165  0.0685 -0.6329 -1.4883
21886SOL    HW267100   6.043   1.549  12.297 -0.0594  0.8811 -2.0358
21887SOL     OW67101   2.833   2.571  10.999 -0.1833  0.4932 -0.2192
21887SOL    HW167102   2.872   2.561  11.086 -0.6241 -2.9347 -0.2849
21887SOL    HW267103   2.739   2.557  11.013 -0.4557  1.4239 -1.0530
21888SOL     OW67104   2.048   3.017  11.816 -0.3979 -0.9160  0.1707
21888SOL    HW167105   2.004   3.084  11.764 -0.7119 -1.6279 -0.5037
21888SOL    HW267106   2.135   3.009  11.777  0.1465  0.0637  1.1251
21889SOL     OW67107   5.133   3.959   3.410  0.0993 -0.0598  0.1206
21889SOL    HW167108   5.193   3.959   3.335 -0.1359  1.2517 -0.0912
21889SOL    HW267109   5.156   4.038   3.460  0.0917 -0.7863  1.3145
21890SOL     OW67110   2.849   7.024   8.264 -0.2314  0.1889  0.4533
21890SOL    HW167111   2.769   7.036   8.315 -0.6423 -0.1524 -0.1063
21890SOL    HW267112   2.884   6.939   8.292 -0.5657 -0.0928  0.0269
21891SOL     OW67113   4.257   0.519  12.354  0.2288  0.0390  0.2445
21891SOL    HW167114   4.203   0.440  12.352  1.0893 -0.5831 -2.0585
21891SOL    HW267115   4.313   0.508  12.430 -0.9253 -0.6519  1.0300
21892SOL     OW67116   1.077   0.133   9.894 -0.8496 -0.0958 -0.5072
21892SOL    HW167117   0.986   0.144   9.920 -0.9149  0.6805 -1.0411
21892SOL    HW267118   1.108   0.222   9.877  0.8041 -0.0118  2.2835
21893SOL     OW67119   2.690   3.658   5.004  0.1023 -0.2991  0.3908
21893SOL    HW167120   2.699   3.721   5.075  1.1115 -1.1774  1.0848
21893SOL    HW267121   2.770   3.671   4.952 -0.2134 -0.2621 -0.0848
21894SOL     OW67122   0.653   4.888   0.676  0.6476  0.4267 -0.4794
21894SOL    HW167123   0.676   4.960   0.618  1.1554  0.5375 -0.1435
21894SOL    HW267124   0.565   4.862   0.648 -0.1569  2.1270  0.3348
21895SOL     OW67125   6.829   0.773   1.943  0.1751  0.7479 -0.4774
21895SOL    HW167126   6.843   0.727   2.026 -0.6697  0.3507 -0.5457
21895SOL    HW267127   6.844   0.865   1.963  2.4619  0.4221 -0.4657
21896SOL     OW67128   1.219   2.540  12.136  0.2708  0.1423  0.9095
21896SOL    HW167129   1.174   2.590  12.068  0.9647 -0.0103  0.3200
21896SOL    HW267130   1.221   2.599  12.212 -0.0455  0.5181  0.6299
21897SOL     OW67131   5.021   5.005   4.425  0.8946 -0.1080 -0.2338
21897SOL    HW167132   4.987   4.916   4.435  1.7327 -0.2624  1.9005
21897SOL    HW267133   4.969   5.056   4.487  1.6963  0.4801 -0.0318
21898SOL     OW67134   2.099   6.711   5.059  0.1480  0.2163 -0.5533
21898SOL    HW167135   2.046   6.787   5.034 -0.3309 -0.5087 -1.8603
21898SOL    HW267136   2.137   6.680   4.977  0.9594 -0.5008  0.0717
21899SOL     OW67137   0.875   3.900  11.155 -0.3613  0.0742 -0.1241
21899SOL    HW167138   0.797   3.851  11.129  0.6032 -1.6410 -0.0100
21899SOL    HW267139   0.882   3.971  11.091 -1.5707 -0.2227 -0.6023
21900SOL     OW67140   1.909   3.623   5.681  0.6695 -0.1605 -0.0631
21900SOL    HW167141   1.971   3.661   5.619  1.6355 -0.3249  0.7849
21900SOL    HW267142   1.963   3.584   5.749 -0.3743  1.7129  1.9491
21901SOL     OW67143   2.304   0.535   0.904 -0.2254 -0.1826 -0.0299
21901SOL    HW167144   2.322   0.482   0.981 -1.1214  1.1067  1.0991
21901SOL    HW267145   2.210   0.551   0.907  0.2319  2.8668  0.6360
21902SOL     OW67146   6.312   6.093   2.136 -0.2017  0.5245  0.1200
21902SOL    HW167147   6.330   6.006   2.170 -0.6262  1.1192  2.0042
21902SOL    HW267148   6.299   6.080   2.042  0.3783 -1.3259  0.2590
21903SOL     OW67149   4.949   0.380   7.239  0.0181 -0.2362  0.6521
21903SOL    HW167150   4.912   0.402   7.325 -1.5774 -2.1767  0.5367
21903SOL    HW267151   4.874   0.348   7.189  1.0930  0.0127 -1.1927
21904SOL     OW67152   6.125   6.334   6.747  0.3028 -0.1324  0.4146
21904SOL    HW167153   6.082   6.419   6.753  0.5694  0.2169 -1.8709
21904SOL    HW267154   6.217   6.354   6.728  0.3989 -0.9137 -0.0018
21905SOL     OW67155   5.349   7.361   1.622 -0.0477  0.0814  0.0356
21905SOL    HW167156   5.281   7.414   1.580  0.8739  0.2322 -1.3096
21905SOL    HW267157   5.415   7.347   1.554  0.1319 -2.1225  0.5950
21906SOL     OW67158   4.353   6.542   3.723  0.2822  0.7358 -0.1502
21906SOL    HW167159   4.362   6.612   3.658  1.7009  1.1369  0.4452
21906SOL    HW267160   4.361   6.586   3.808  1.5986 -0.1572  0.2311
21907SOL     OW67161   7.477   3.669   9.359  0.2233 -0.3506  0.1591
21907SOL    HW167162   7.461   3.657   9.266  0.4141 -0.2897  0.1181
21907SOL    HW267163   7.493   3.581   9.393 -0.9321 -0.4994  0.3410
21908SOL     OW67164   1.669   3.950   8.707 -0.2250  1.1521 -0.0036
21908SOL    HW167165   1.750   3.929   8.751  0.2117  1.0148 -0.8468
21908SOL    HW267166   1.696   3.984   8.621 -1.0107  2.1946  0.1380
21909SOL     OW67167   1.383   4.436   0.410  0.1233  0.2848  0.0325
21909SOL    HW167168   1.392   4.359   0.354  0.7904  0.1734  0.2837
21909SOL    HW267169   1.288   4.453   0.414 -0.2497 -1.8292  1.7563
21910SOL     OW67170   2.719   4.207   5.596 -0.5501  0.7342 -0.5247
21910SOL    HW167171   2.714   4.123   5.641 -0.1519  1.4190  0.8465
21910SOL    HW267172   2.790   4.196   5.532 -0.1342  0.2019  0.0231
21911SOL     OW67173   3.636   6.653   3.970 -0.0190  0.0537 -0.1862
21911SOL    HW167174   3.561   6.594   3.980 -0.3977  0.5781  0.0640
21911SOL    HW267175   3.625   6.719   4.038  0.8878 -0.0849  0.1135
21912SOL     OW67176   0.211   0.294   9.677  0.1403 -1.2103 -0.0428
21912SOL    HW167177   0.282   0.358   9.678 -1.1664  0.3053  0.6845
21912SOL    HW267178   0.230   0.237   9.752  1.3788 -1.7960 -0.7659
21913SOL     OW67179   7.425   3.049   7.640 -0.2386  0.2559  0.3191
21913SOL    HW167180   7.494   3.084   7.697  0.3859 -0.0356 -0.2428
21913SOL    HW267181   7.343   3.080   7.679  0.2041  0.5112  1.0623
21914SOL     OW67182   5.344   3.790   1.565 -0.4691  0.4756  0.8153
21914SOL    HW167183   5.370   3.774   1.475 -1.5724  0.2463  0.5214
21914SOL    HW267184   5.426   3.809   1.611  0.1071  0.5234 -0.2109
21915SOL     OW67185   5.211   1.893   2.680 -0.0060 -0.3453 -0.1553
21915SOL    HW167186   5.300   1.861   2.664  1.0677  1.9699  0.7098
21915SOL    HW267187   5.169   1.891   2.594  2.0834  1.7659 -1.3298
21916SOL     OW67188   0.285   4.500   0.308  0.4684 -0.4835  0.0951
21916SOL    HW167189   0.339   4.578   0.298 -0.6873  0.4469  0.7528
21916SOL    HW267190   0.276   4.464   0.220  0.4008  0.5743 -0.3377
21917SOL     OW67191   7.188   4.655  11.162 -0.2704  0.0956  0.1754
21917SOL    HW167192   7.272   4.671  11.119  0.1380 -0.3427  0.8067
21917SOL    HW267193   7.124   4.662  11.091  0.2996  0.3923 -0.3194
21918SOL     OW67194   5.500   2.003   0.176  0.0916  0.3486 -0.2433
21918SOL    HW167195   5.547   2.084   0.157  2.3034 -0.9668 -0.6929
21918SOL    HW267196   5.499   1.997   0.271 -1.5779  1.6585 -0.1144
21919SOL     OW67197   0.968   7.960   8.357 -0.4402 -0.0785  0.5240
21919SOL    HW167198   0.941   8.004   8.277  0.2179 -0.8378 -0.1217
21919SOL    HW267199   0.911   7.884   8.363 -0.5035 -0.0122  0.7952
21920SOL     OW67200   7.634   7.031   2.701  0.1552 -0.5147  0.5909
21920SOL    HW167201   7.716   7.073   2.726  0.9762 -1.8330  0.2081
21920SOL    HW267202   7.653   6.938   2.704 -1.3945 -0.8551  0.6638
21921SOL     OW67203   5.396   0.189   2.541 -0.1314 -0.3128  0.2498
21921SOL    HW167204   5.407   0.217   2.450 -1.5401  1.4888  0.5729
21921SOL    HW267205   5.373   0.097   2.535 -1.0670 -0.0245 -1.3033
21922SOL     OW67206   6.774   2.585   2.416  0.2106  0.5887 -0.4536
21922SOL    HW167207   6.749   2.560   2.505  0.5988  0.1002 -0.4766
21922SOL    HW267208   6.735   2.671   2.403  1.3781  1.3282  0.7258
21923SOL     OW67209   6.011   2.507   4.311 -0.3157 -0.2998 -0.3476
21923SOL    HW167210   5.917   2.497   4.300 -0.4149 -0.6593  0.7162
21923SOL    HW267211   6.049   2.435   4.261 -0.6592 -0.7592  0.0452
21924SOL     OW67212   5.879   3.621   5.743 -0.3272  0.1683 -0.2547
21924SOL    HW167213   5.965   3.587   5.720  1.2744  3.8249 -0.3558
21924SOL    HW267214   5.887   3.648   5.834 -1.3181  0.5863 -0.2785
21925SOL     OW67215   5.874   0.419   1.706 -0.1318 -0.2981  0.1999
21925SOL    HW167216   5.891   0.466   1.624  0.2568 -0.1844  0.3461
21925SOL    HW267217   5.798   0.365   1.686 -1.8538  1.8284  0.6007
21926SOL     OW67218   4.453   0.424   3.329  0.1585 -0.5475  0.1181
21926SOL    HW167219   4.540   0.460   3.349 -0.2405  0.5218 -0.0289
21926SOL    HW267220   4.463   0.385   3.242  0.4919 -0.4479  0.1104
21927SOL     OW67221   0.911   5.441  10.135  0.2063  0.2369  0.1196
21927SOL    HW167222   0.982   5.418  10.195  0.3157 -0.4227 -0.2520
21927SOL    HW267223   0.852   5.495  10.187 -0.4317 -1.4872  1.2610
21928SOL     OW67224   5.208   5.917   8.796 -0.1703  0.2004 -0.3067
21928SOL    HW167225   5.251   5.835   8.816 -0.9430 -0.1174  0.0797
21928SOL    HW267226   5.139   5.894   8.733  1.2949  0.9621 -2.2761
21929SOL     OW67227   3.250   1.986  11.897  0.2797 -0.2958  0.0291
21929SOL    HW167228   3.281   1.931  11.826  0.9809  1.0216 -0.7220
21929SOL    HW267229   3.305   1.963  11.972  1.0976 -0.0719 -0.4960
21930SOL     OW67230   1.664   4.447  12.219  0.3785  0.3072  0.0936
21930SOL    HW167231   1.745   4.495  12.231  1.0059 -0.6917  0.0002
21930SOL    HW267232   1.597   4.501  12.261  1.3244  0.4428  1.4996
21931SOL     OW67233   2.938   5.114   4.012  0.1448 -0.3608 -0.0544
21931SOL    HW167234   2.894   5.030   4.027  0.2385 -0.2737  0.7325
21931SOL    HW267235   3.019   5.108   4.062 -0.0794  0.3894  0.4038
21932SOL     OW67236   4.452   0.501   8.044  0.1850  0.4843 -0.2319
21932SOL    HW167237   4.487   0.412   8.045  4.1992  1.8665  1.0125
21932SOL    HW267238   4.442   0.522   7.951 -0.4846 -1.0893 -0.5440
21933SOL     OW67239   6.002   2.841  12.044 -0.3558 -0.1876  0.1806
21933SOL    HW167240   6.033   2.858  12.133  0.6433  0.7908 -0.3276
21933SOL    HW267241   5.976   2.927  12.011  1.4301 -0.1282 -1.2405
21934SOL     OW67242   0.837   4.290  12.297 -0.1560  0.6872  0.0668
21934SOL    HW167243   0.827   4.382  12.271 -1.8058 -0.0133 -2.1103
21934SOL    HW267244   0.930   4.272  12.288 -0.0711  1.6833 -1.2673
21935SOL     OW67245   7.852   1.576  12.115  0.3246 -0.6401 -0.2809
21935SOL    HW167246   7.940   1.610  12.102  0.5646 -0.1195  2.1337
21935SOL    HW267247   7.809   1.642  12.171 -0.7719 -2.0197  0.5844
21936SOL     OW67248   5.012   4.456  11.015 -0.0808 -0.0384  0.5839
21936SOL    HW167249   5.107   4.446  11.004 -0.0960 -0.6875  0.9809
21936SOL    HW267250   4.994   4.419  11.101 -0.8870 -1.2401 -0.0662
21937SOL     OW67251   4.874   0.754   1.534  0.3085  0.1733  0.6400
21937SOL    HW167252   4.807   0.709   1.483 -0.7368  0.2249  1.9098
21937SOL    HW267253   4.838   0.841   1.550  0.0405 -0.2345  2.4778
21938SOL     OW67254   0.441   2.390   4.244 -0.4003 -0.2435  0.3342
21938SOL    HW167255   0.487   2.306   4.246  0.6840  0.3569  1.4722
21938SOL    HW267256   0.462   2.427   4.159  0.0213 -0.6291  0.2673
21939SOL     OW67257   1.485   5.172   3.164  0.0427 -0.1496  0.4108
21939SOL    HW167258   1.504   5.078   3.161  2.0262  0.1944  0.8083
21939SOL    HW267259   1.392   5.179   3.141 -1.0595 -2.4890  3.5062
21940SOL     OW67260   6.037   1.967   3.640 -0.6916  0.1980  0.0615
21940SOL    HW167261   6.115   2.009   3.604  0.1114 -1.0812  0.2453
21940SOL    HW267262   5.964   2.010   3.596  0.1429  0.9344 -0.6389
21941SOL     OW67263   2.639   7.528   6.884  0.2757 -0.1052  0.1379
21941SOL    HW167264   2.631   7.623   6.878  1.6761  0.0640  0.5745
21941SOL    HW267265   2.584   7.504   6.958 -0.6770  0.2565 -0.4321
21942SOL     OW67266   5.245   1.858   5.227 -0.0268 -0.7382 -0.7954
21942SOL    HW167267   5.329   1.816   5.248  0.2594 -0.1767 -0.7956
21942SOL    HW267268   5.270   1.941   5.186 -0.5365  0.5155  1.3053
21943SOL     OW67269   3.416   7.152   6.509 -0.8810 -0.0019  0.3547
21943SOL    HW167270   3.485   7.158   6.443 -0.7715  0.8415  0.5300
21943SOL    HW267271   3.401   7.058   6.520 -0.6044 -0.1606 -0.5573
21944SOL     OW67272   3.653   5.247   6.775 -0.1554 -0.6007  0.2116
21944SOL    HW167273   3.726   5.208   6.823 -0.3262 -1.8375 -0.5146
21944SOL    HW267274   3.593   5.276   6.844  0.4821 -0.5979  0.7848
21945SOL     OW67275   6.249   2.872  11.300 -0.9275  0.1915  0.4401
21945SOL    HW167276   6.293   2.927  11.235 -0.1450 -1.1057 -0.1602
21945SOL    HW267277   6.258   2.921  11.382  0.2950  0.6780  0.0356
21946SOL     OW67278   6.253   4.371   7.011 -0.6312  0.0501  0.1454
21946SOL    HW167279   6.319   4.361   6.943 -1.0077  0.7451 -0.3287
21946SOL    HW267280   6.246   4.466   7.024  1.2010 -0.0642  2.8990
21947SOL     OW67281   7.322   1.806   4.379  0.2656 -0.1152  0.0005
21947SOL    HW167282   7.300   1.880   4.437 -0.0805  2.2932 -2.9815
21947SOL    HW267283   7.414   1.788   4.398  0.4633  1.3304  0.5420
21948SOL     OW67284   5.960   2.902   6.132 -0.6214  0.5172 -0.3951
21948SOL    HW167285   5.883   2.877   6.182 -1.2720 -0.7059 -1.9295
21948SOL    HW267286   6.027   2.919   6.198 -0.8195 -3.0204  0.9371
21949SOL     OW67287   7.356   2.867  10.913  0.3527  0.1762  0.3554
21949SOL    HW167288   7.326   2.786  10.871 -0.9187  0.8018  0.0171
21949SOL    HW267289   7.446   2.877  10.883  0.3152 -0.7618 -0.1288
21950SOL     OW67290   5.633   2.927  11.205  0.2256  0.3472 -0.1282
21950SOL    HW167291   5.598   3.012  11.178  0.4882 -0.0239 -1.7533
21950SOL    HW267292   5.562   2.886  11.253  0.7144  2.2075  2.3782
21951SOL     OW67293   6.740   7.414   1.318 -0.2116 -0.3621  0.3180
21951SOL    HW167294   6.827   7.412   1.280 -0.3766  2.1986 -0.3181
21951SOL    HW267295   6.684   7.450   1.250 -1.0740  1.4904  1.9180
21952SOL     OW67296   2.018   7.431  10.030  0.2483 -0.4719  0.1666
21952SOL    HW167297   1.972   7.448  10.112  0.2352 -1.8439  0.4653
21952SOL    HW267298   2.109   7.456  10.048 -0.1762  1.5073 -0.1839
21953SOL     OW67299   4.298   5.906   9.582 -0.1684  0.5931  0.0271
21953SOL    HW167300   4.368   5.970   9.568 -1.0228  1.2836 -1.3677
21953SOL    HW267301   4.319   5.865   9.666  1.5475  1.2249 -0.0473
21954SOL     OW67302   5.293   1.434   7.883 -0.5502 -0.1168  0.9258
21954SOL    HW167303   5.225   1.367   7.893  0.0364 -0.7656  0.6862
21954SOL    HW267304   5.363   1.405   7.941  0.0532 -0.1793  0.1780
21955SOL     OW67305   6.487   6.913   8.411  0.2413  1.0287 -0.1312
21955SOL    HW167306   6.530   6.828   8.404 -0.2014  0.6398  1.3836
21955SOL    HW267307   6.546   6.973   8.365 -0.4452 -0.3656 -3.1066
21956SOL     OW67308   5.374   0.448   1.026  1.1891 -0.4225  0.1345
21956SOL    HW167309   5.461   0.451   0.988  0.7272 -1.2544 -1.0628
21956SOL    HW267310   5.329   0.377   0.979 -0.2412  0.2163  0.4611
21957SOL     OW67311   3.181   3.071   7.970  0.2914  0.4531 -0.3708
21957SOL    HW167312   3.165   3.119   7.888  1.8295  0.8134 -0.4931
21957SOL    HW267313   3.265   3.104   8.001 -0.4403  0.6255  1.5981
21958SOL     OW67314   7.562   4.188   0.161 -0.0379  0.0986  0.5666
21958SOL    HW167315   7.498   4.225   0.222  0.6804 -0.5180  1.7478
21958SOL    HW267316   7.579   4.100   0.195  2.1533  0.5899  0.8808
21959SOL     OW67317   1.380   2.867   1.953 -0.2139  0.2186 -0.0658
21959SOL    HW167318   1.426   2.883   1.871  0.9191  1.6501  0.7803
21959SOL    HW267319   1.446   2.884   2.021 -1.3172 -0.1571  1.1484
21960SOL     OW67320   7.729   6.353   1.417  0.0643 -0.1577  0.1164
21960SOL    HW167321   7.682   6.418   1.470 -1.1977 -1.4754  0.6920
21960SOL    HW267322   7.815   6.346   1.458  0.2883  1.2605 -0.0718
21961SOL     OW67323   6.906   4.539   7.597 -0.1012  0.6766  0.6391
21961SOL    HW167324   6.964   4.611   7.570  0.4743  0.4643  1.2808
21961SOL    HW267325   6.819   4.579   7.599  0.2042  1.3494  0.9478
21962SOL     OW67326   4.033   4.699   9.220  0.6388  0.0465  0.7148
21962SOL    HW167327   3.961   4.762   9.214 -0.0968 -0.8709 -0.5096
21962SOL    HW267328   4.048   4.672   9.129  1.7322 -0.6642  1.0976
21963SOL     OW67329   1.539   6.108   2.656  0.5319  0.3796 -0.2396
21963SOL    HW167330   1.479   6.129   2.584  1.1313  0.1773 -0.8079
21963SOL    HW267331   1.501   6.151   2.733 -1.7822 -1.9182  0.0114
21964SOL     OW67332   3.912   0.048   4.401 -0.2880 -0.8941  0.5301
21964SOL    HW167333   3.918  -0.039   4.441  0.3107 -1.3688 -0.5334
21964SOL    HW267334   3.862   0.100   4.463 -1.0823 -2.1335  0.9707
21965SOL     OW67335   6.495   2.951   8.539  0.4458 -0.2176  0.8862
21965SOL    HW167336   6.582   2.973   8.573 -0.1093  4.0160  0.1249
21965SOL    HW267337   6.448   2.915   8.615  1.8666  0.5873  2.2067
21966SOL     OW67338   6.740   0.527   3.778 -0.3009 -0.4377  0.1632
21966SOL    HW167339   6.771   0.438   3.765  0.2469 -0.1008 -0.9427
21966SOL    HW267340   6.746   0.568   3.692 -1.0909  0.4980  0.5333
21967SOL     OW67341   5.627   6.984   5.856 -0.1271  0.5039 -0.1318
21967SOL    HW167342   5.545   7.003   5.900 -0.0780 -0.4464  0.3989
21967SOL    HW267343   5.674   7.067   5.854 -0.4054  0.6946  1.0197
21968SOL     OW67344   1.939   5.373   3.198 -0.2367  0.4137  0.4571
21968SOL    HW167345   1.981   5.429   3.263 -0.3567 -0.6764  1.5018
21968SOL    HW267346   1.864   5.424   3.168  1.0002  1.8065 -0.4153
21969SOL     OW67347   1.975   6.973   1.006 -0.2603 -0.0666 -0.0452
21969SOL    HW167348   1.962   7.036   0.934 -1.8242  1.2490  1.2778
21969SOL    HW267349   2.068   6.977   1.025  0.0154  0.2852 -1.3765
21970SOL     OW67350   7.833   3.592   0.280  0.6309  0.0443  1.1145
21970SOL    HW167351   7.928   3.582   0.285  0.5152 -1.7604  0.6361
21970SOL    HW267352   7.799   3.508   0.312 -0.7088 -0.3879 -1.2023
21971SOL     OW67353   6.509   5.109   4.178  0.3154  0.0383  0.2250
21971SOL    HW167354   6.458   5.031   4.200 -0.5126  1.0215  1.9758
21971SOL    HW267355   6.479   5.133   4.090 -1.3186 -0.1396  0.7062
21972SOL     OW67356   6.522   2.528   2.048  0.4352 -0.2997  0.0657
21972SOL    HW167357   6.586   2.600   2.045 -0.9886  1.0063 -0.9414
21972SOL    HW267358   6.572   2.450   2.027  1.6651  0.7397 -1.0862
21973SOL     OW67359   2.693   7.806   9.190 -0.4325  0.0974 -0.1392
21973SOL    HW167360   2.655   7.728   9.152 -0.1199  0.4756 -1.2603
21973SOL    HW267361   2.695   7.870   9.119 -2.6419  1.8826  1.2463
21974SOL     OW67362   0.154   7.407  10.479 -0.1837  0.0305  0.4299
21974SOL    HW167363   0.248   7.418  10.472 -0.2164 -0.2868 -0.5336
21974SOL    HW267364   0.137   7.408  10.574  0.6824  0.8609  0.5903
21975SOL     OW67365   3.999   5.263   0.166 -0.1171  0.4071 -0.1474
21975SOL    HW167366   4.049   5.182   0.166 -1.4907 -0.5220  1.8669
21975SOL    HW267367   4.065   5.332   0.174  0.9208 -0.7632  2.3199
21976SOL     OW67368   6.092   1.032   9.853 -0.2610  0.4317  0.3360
21976SOL    HW167369   6.040   1.032   9.933  0.1261 -0.9249  0.6114
21976SOL    HW267370   6.177   0.996   9.879 -0.7461 -1.9361 -1.0221
21977SOL     OW67371   5.418   4.202   7.098  0.2731  0.4676 -0.1930
21977SOL    HW167372   5.360   4.253   7.042 -0.9270 -1.0670 -0.4308
21977SOL    HW267373   5.362   4.171   7.169  1.6888  2.0783  1.7355
21978SOL     OW67374   1.707   1.485  11.315  0.3239 -0.0414 -0.0270
21978SOL    HW167375   1.789   1.533  11.313 -0.0486  0.6874  1.2994
21978SOL    HW267376   1.639   1.552  11.324 -0.4106 -0.6460 -0.8001
21979SOL     OW67377   1.500   5.044  10.461  0.2570  0.4177  0.1688
21979SOL    HW167378   1.443   4.980  10.418  0.3200  0.3641  0.1628
21979SOL    HW267379   1.576   5.049  10.403  1.1883 -1.0373  1.1782
21980SOL     OW67380   7.107   1.173   4.663 -0.3568  0.3882  0.4293
21980SOL    HW167381   7.195   1.192   4.696 -0.5864  1.5027  0.4354
21980SOL    HW267382   7.061   1.134   4.737 -0.3862  1.3949  0.9559
21981SOL     OW67383   3.491   0.983   7.453 -0.4368 -0.1418 -0.2646
21981SOL    HW167384   3.462   1.058   7.505 -0.2764 -0.2215 -0.0557
21981SOL    HW267385   3.565   1.017   7.402 -0.7604  0.0041 -0.6336
21982SOL     OW67386   1.169   1.846  11.256  0.1661  0.2091  0.8579
21982SOL    HW167387   1.119   1.796  11.190  1.3261  0.3942 -0.1936
21982SOL    HW267388   1.182   1.932  11.216  1.3153  0.1627  1.1007
21983SOL     OW67389   4.055   5.458   6.568 -0.2087 -0.0748  0.2637
21983SOL    HW167390   4.068   5.377   6.518  3.9147 -0.4099  1.4379
21983SOL    HW267391   4.013   5.430   6.649  1.7672 -1.3279  0.9497
21984SOL     OW67392   0.577   6.559   0.067 -0.1304 -0.3202 -0.0511
21984SOL    HW167393   0.601   6.643   0.028  0.0332 -0.0860  0.5424
21984SOL    HW267394   0.586   6.496  -0.004 -0.9736  0.2710 -0.7084
21985SOL     OW67395   3.023   2.243   6.558 -0.1161 -0.6020  0.1160
21985SOL    HW167396   3.081   2.169   6.571  0.3277 -0.1410  0.8375
21985SOL    HW267397   3.019   2.255   6.463  0.9883 -0.6316  0.0531
21986SOL     OW67398   0.377   7.169  10.176  0.0788 -0.1491  0.6862
21986SOL    HW167399   0.359   7.135  10.264 -1.3813 -0.7826  0.1792
21986SOL    HW267400   0.296   7.213  10.150  0.3910 -0.2088 -0.4454
21987SOL     OW67401   6.721   3.541   1.086  0.3604 -0.2236  0.6053
21987SOL    HW167402   6.742   3.628   1.122 -1.2231  0.5961 -0.3485
21987SOL    HW267403   6.628   3.547   1.063  0.3437 -2.0421  0.0874
21988SOL     OW67404   1.011   2.161   9.327 -0.2182 -0.0199  0.5509
21988SOL    HW167405   1.006   2.214   9.247 -0.2501 -0.6989  0.0889
21988SOL    HW267406   0.933   2.106   9.325  0.5088 -1.0795  0.2790
21989SOL     OW67407   3.265   4.450   3.400  0.1818 -0.0801 -0.0952
21989SOL    HW167408   3.219   4.518   3.351 -0.5720 -1.3268 -1.2074
21989SOL    HW267409   3.239   4.463   3.491 -0.6938  0.5357 -0.4258
21990SOL     OW67410   3.105   3.350   0.870  0.1456 -0.2209 -0.1170
21990SOL    HW167411   3.115   3.384   0.959  0.3410 -2.2014  0.6796
21990SOL    HW267412   3.193   3.326   0.843  0.0132 -0.1287 -0.6348
21991SOL     OW67413   2.364   7.609   1.039  0.5473 -0.0162 -0.1476
21991SOL    HW167414   2.323   7.623   1.124  2.1276  2.3255  0.3408
21991SOL    HW267415   2.380   7.515   1.034 -1.4075 -0.4849  1.2098
21992SOL     OW67416   0.729   2.108  10.975  0.5483  0.9226 -0.1210
21992SOL    HW167417   0.640   2.106  11.010  0.9084 -1.0213  0.8689
21992SOL    HW267418   0.735   2.190  10.927 -0.7545  2.6150  2.4375
21993SOL     OW67419   4.754   5.777   5.692  0.0084  0.0763 -0.0636
21993SOL    HW167420   4.668   5.739   5.708 -0.3888  1.1260  0.3941
21993SOL    HW267421   4.742   5.835   5.617  0.8410 -1.4159 -1.4177
21994SOL     OW67422   4.199   0.799   4.986 -0.2669 -0.1626  0.0782
21994SOL    HW167423   4.167   0.713   4.957 -0.4772 -0.8364  2.1389
21994SOL    HW267424   4.291   0.801   4.960 -0.2355 -1.0493  0.0985
21995SOL     OW67425   0.379   0.431   0.588 -0.4047 -0.3957  0.3020
21995SOL    HW167426   0.366   0.337   0.599 -1.5534 -0.5443 -1.7933
21995SOL    HW267427   0.311   0.471   0.641 -2.2130 -0.8926 -1.5261
21996SOL     OW67428   5.906   4.042   2.459 -0.2925 -0.4442 -0.2518
21996SOL    HW167429   5.948   3.956   2.460 -0.9910 -0.7982  0.3660
21996SOL    HW267430   5.813   4.023   2.445 -0.6830  0.0724  1.3433
21997SOL     OW67431   7.963   1.759   3.805  0.0105  0.3484  0.0358
21997SOL    HW167432   7.962   1.739   3.711 -0.7170 -1.1000  0.3203
21997SOL    HW267433   7.917   1.842   3.812 -0.3314  0.2473 -0.8475
21998SOL     OW67434   5.882   7.882   6.956  0.1149  0.1940 -0.1527
21998SOL    HW167435   5.868   7.802   7.006 -0.6492  0.5861  0.2818
21998SOL    HW267436   5.901   7.852   6.867  0.2371 -0.4778  0.0969
21999SOL     OW67437   1.271   2.758   7.712 -0.0738  0.0075 -0.0796
21999SOL    HW167438   1.184   2.737   7.746 -1.0369  2.5780 -0.7573
21999SOL    HW267439   1.306   2.821   7.775 -0.1863  1.6537 -1.5841
22000SOL     OW67440   2.947   3.110   0.897  0.1563  0.8564 -0.4157
22000SOL    HW167441   2.997   3.091   0.818  1.9280 -0.0733  0.8506
22000SOL    HW267442   2.985   3.191   0.931  1.5617 -0.3260  1.0370
22001SOL     OW67443   2.665   6.542   3.636  0.1455 -0.1586  0.1342
22001SOL    HW167444   2.753   6.542   3.598 -0.1087 -1.5850 -0.5135
22001SOL    HW267445   2.667   6.471   3.700 -0.4581 -0.0354  0.2908
22002SOL     OW67446   4.012   0.544  11.838  0.0927  0.1311  0.9971
22002SOL    HW167447   4.019   0.468  11.896  0.4041 -0.6773 -0.0778
22002SOL    HW267448   4.087   0.599  11.862  1.1879 -0.9801  0.2809
22003SOL     OW67449   7.316   1.026  12.287 -0.3722  0.4051 -0.0580
22003SOL    HW167450   7.325   1.062  12.199 -0.0355  3.0132  0.9572
22003SOL    HW267451   7.222   1.020  12.301 -0.4283  0.1761 -0.5244
22004SOL     OW67452   3.651   1.112   3.611  0.1864  0.1124 -0.4612
22004SOL    HW167453   3.609   1.176   3.669  0.5038  0.6070 -0.7703
22004SOL    HW267454   3.743   1.136   3.611  0.6547 -1.5223  0.9151
22005SOL     OW67455   4.913   6.221  11.997  0.4559 -0.8416  0.3501
22005SOL    HW167456   4.858   6.200  11.922  0.2364  0.6109  0.0780
22005SOL    HW267457   5.002   6.210  11.965  0.3518 -1.7941  0.3647
22006SOL     OW67458   5.349   5.481  12.068  0.2616  0.3635  0.1869
22006SOL    HW167459   5.381   5.516  12.151  2.6266  0.4172 -0.6506
22006SOL    HW267460   5.305   5.555  12.026  1.2636  1.0811  0.3536
22007SOL     OW67461   4.419   5.798   0.829  0.0208  0.2670  0.2498
22007SOL    HW167462   4.334   5.781   0.788  1.0829 -2.5671 -1.0017
22007SOL    HW267463   4.446   5.883   0.793 -1.9255  0.8716  0.1191
22008SOL     OW67464   2.488   3.633   1.346  0.4082  0.1958  0.2754
22008SOL    HW167465   2.524   3.701   1.289  0.4143  0.1702  0.2486
22008SOL    HW267466   2.553   3.562   1.343 -0.5357 -0.6697 -1.3050
22009SOL     OW67467   4.194   6.617   0.537 -0.3847  0.2179 -0.0521
22009SOL    HW167468   4.144   6.551   0.585  0.7949 -0.5989  0.0904
22009SOL    HW267469   4.250   6.566   0.478 -0.2411  1.1336 -0.7250
22010SOL     OW67470   2.911   7.572   9.871  0.0491 -0.4332 -0.2154
22010SOL    HW167471   2.929   7.636   9.803 -0.3321  0.5984  0.6363
22010SOL    HW267472   2.848   7.511   9.831 -0.8765  0.6859 -0.5086
22011SOL     OW67473   6.054   3.966   8.658  0.2996 -0.3742  0.4214
22011SOL    HW167474   6.011   3.912   8.724 -2.0011 -0.6480 -1.2203
22011SOL    HW267475   6.030   3.927   8.575  0.6248  1.7208 -0.7273
22012SOL     OW67476   4.177   2.336   1.498 -0.0820 -0.2650 -0.0607
22012SOL    HW167477   4.098   2.388   1.485  1.2639  1.8967 -0.0405
22012SOL    HW267478   4.201   2.306   1.410  0.1734  0.8207 -0.3793
22013SOL     OW67479   7.436   0.514   9.189  0.2809 -0.1553 -0.3719
22013SOL    HW167480   7.524   0.479   9.196  0.1405 -0.6606 -1.1022
22013SOL    HW267481   7.407   0.492   9.101 -0.1946  0.9047 -0.5057
22014SOL     OW67482   3.047   6.750   6.363 -0.3420  0.5694  0.3007
22014SOL    HW167483   3.123   6.777   6.414 -0.0922 -0.6096  0.5766
22014SOL    HW267484   2.985   6.716   6.427 -0.2135 -0.5017 -0.1242
22015SOL     OW67485   0.172   4.778   7.690 -0.1896 -0.0211  0.5200
22015SOL    HW167486   0.178   4.805   7.598  0.1541 -0.7505  0.3259
22015SOL    HW267487   0.082   4.748   7.700 -0.6826  1.4474  0.8227
22016SOL     OW67488   7.527   4.422   9.762 -0.0321 -0.5867  0.5430
22016SOL    HW167489   7.460   4.450   9.699  0.5611 -0.0537  0.1252
22016SOL    HW267490   7.537   4.497   9.821  2.0872  0.4844 -1.0189
22017SOL     OW67491   4.826   1.013   9.225 -0.4286  0.6393 -0.3948
22017SOL    HW167492   4.764   1.053   9.285 -0.5051 -1.3161  0.9097
22017SOL    HW267493   4.772   0.964   9.163 -0.2593  0.8135 -0.6846
22018SOL     OW67494   2.389   5.306   7.883  0.1486  0.0321  0.0671
22018SOL    HW167495   2.339   5.336   7.958 -0.6931 -1.3752  0.0991
22018SOL    HW267496   2.343   5.340   7.807  0.7896  1.1416  0.1607
22019SOL     OW67497   5.581   3.529   7.616  0.4371  0.1841 -0.3177
22019SOL    HW167498   5.557   3.590   7.686  0.8636  0.5837 -0.5155
22019SOL    HW267499   5.672   3.549   7.597  1.8107 -2.9409  2.0926
22020SOL     OW67500   1.851   1.703   5.747 -0.8793 -0.4454  0.1061
22020SOL    HW167501   1.794   1.664   5.813  0.0037  0.0278  1.1658
22020SOL    HW267502   1.933   1.654   5.754 -0.1139  0.8807  0.7279
22021SOL     OW67503   5.066   5.603   6.474 -0.2257  0.3095  0.3158
22021SOL    HW167504   5.012   5.680   6.492  1.0769  1.0927  1.0168
22021SOL    HW267505   5.050   5.583   6.382 -0.2558  1.6866  0.0116
22022SOL     OW67506   3.073   0.986   7.741 -0.2150  0.0635  0.2893
22022SOL    HW167507   3.039   0.963   7.827  1.6587  1.7011  1.5478
22022SOL    HW267508   3.168   0.978   7.750  0.0902  1.4325 -1.2415
22023SOL     OW67509   1.225   5.649   0.645 -0.2045  0.0177 -0.1119
22023SOL    HW167510   1.196   5.706   0.573  0.0752  2.2617  1.4408
22023SOL    HW267511   1.313   5.681   0.666 -0.2279 -0.6841  1.1370
22024SOL     OW67512   7.512   3.252   3.126 -0.5677 -0.2460  0.0613
22024SOL    HW167513   7.606   3.234   3.135 -0.4194  0.5701  0.2086
22024SOL    HW267514   7.470   3.168   3.145  0.1823 -0.9837 -1.3591
22025SOL     OW67515   7.785   2.719   1.152  0.4155 -0.0608 -0.1174
22025SOL    HW167516   7.805   2.631   1.183 -2.0253 -1.4367 -2.1198
22025SOL    HW267517   7.715   2.750   1.210  0.1062 -0.1600 -0.4290
22026SOL     OW67518   5.426   7.285   9.232  0.0618 -0.1759 -0.2299
22026SOL    HW167519   5.336   7.316   9.245 -0.1173 -0.8066  0.0872
22026SOL    HW267520   5.474   7.363   9.205 -0.7850 -0.0301 -1.4230
22027SOL     OW67521   2.900   6.066   2.007  0.8617  0.0823  0.3915
22027SOL    HW167522   2.869   6.017   2.084 -1.1277  2.1726  1.0240
22027SOL    HW267523   2.985   6.100   2.033  0.0795  1.0238  1.8604
22028SOL     OW67524   2.131   4.848   3.732  0.3068  0.3137  0.0933
22028SOL    HW167525   2.214   4.879   3.767  0.7631 -0.4001 -0.3108
22028SOL    HW267526   2.154   4.813   3.645 -0.1020 -1.4063  0.6370
22029SOL     OW67527   7.747   6.717  10.789 -0.3519 -0.1076 -0.3944
22029SOL    HW167528   7.831   6.674  10.804  0.2404  0.1819 -2.5474
22029SOL    HW267529   7.732   6.708  10.695 -2.0982  1.0037 -0.2618
22030SOL     OW67530   0.310   7.300   2.972  0.0850 -0.2471 -0.0125
22030SOL    HW167531   0.385   7.242   2.987  0.7816  0.4343 -0.7733
22030SOL    HW267532   0.349   7.387   2.964 -0.6623 -0.0206 -1.5164
22031SOL     OW67533   4.153   0.391   1.888 -0.1640 -0.1303 -0.3977
22031SOL    HW167534   4.076   0.387   1.944 -0.7332 -1.3813 -1.2175
22031SOL    HW267535   4.122   0.436   1.809 -0.0633 -0.6167 -0.7190
22032SOL     OW67536   1.367   1.493   6.334 -0.3152 -0.3854  1.0290
22032SOL    HW167537   1.354   1.531   6.421  0.3089  1.0212  0.5374
22032SOL    HW267538   1.279   1.467   6.306 -0.6749  0.1231  1.6560
22033SOL     OW67539   1.022   2.993   5.378 -0.1929 -0.2733 -0.1017
22033SOL    HW167540   1.037   3.080   5.341  0.9523  0.0196  0.9772
22033SOL    HW267541   1.097   2.978   5.436 -0.6703 -1.7373  0.1865
22034SOL     OW67542   3.566   5.844  12.005 -0.0820  0.3827  0.5924
22034SOL    HW167543   3.645   5.897  12.003  0.1970 -0.0357  0.1394
22034SOL    HW267544   3.494   5.906  11.991  0.3492  0.4532 -1.7410
22035SOL     OW67545   6.702   7.060   7.265 -0.1283 -0.2690 -0.0720
22035SOL    HW167546   6.609   7.066   7.286  0.1088  0.2444  0.9014
22035SOL    HW267547   6.712   7.106   7.182 -0.7897 -0.6200 -0.3521
22036SOL     OW67548   7.258   5.360   6.296  0.0430 -0.3825 -0.2602
22036SOL    HW167549   7.294   5.415   6.227  0.9253 -0.5177  0.0798
22036SOL    HW267550   7.278   5.407   6.377 -3.5224  1.2747 -0.1632
22037SOL     OW67551   0.641   5.031   9.766  0.3316  0.0127 -0.5522
22037SOL    HW167552   0.689   5.021   9.684  1.4174  0.4126  0.0167
22037SOL    HW267553   0.608   4.943   9.785 -0.8128  0.1094 -1.9153
22038SOL     OW67554   0.396   0.748   7.018  0.0809 -0.1519 -0.0603
22038SOL    HW167555   0.372   0.700   7.097 -1.1822 -1.8232 -1.3830
22038SOL    HW267556   0.417   0.836   7.049  2.0643 -1.3688  2.4209
22039SOL     OW67557   5.668   6.174   6.229 -0.1216  0.1204  0.0111
22039SOL    HW167558   5.714   6.258   6.238  0.2830 -0.1367  0.3946
22039SOL    HW267559   5.676   6.153   6.136 -0.4155  0.6084 -0.1322
22040SOL     OW67560   3.424   3.313   7.464  0.3488 -0.3006  0.1793
22040SOL    HW167561   3.399   3.276   7.379  0.6224  2.3667 -1.1625
22040SOL    HW267562   3.342   3.346   7.501  0.4879  0.0776  0.1502
22041SOL     OW67563   0.505   2.764   0.833  0.4696 -0.5605 -0.0490
22041SOL    HW167564   0.432   2.712   0.799 -0.1348  0.8294 -0.9571
22041SOL    HW267565   0.575   2.751   0.769  0.6952 -1.0928  0.2957
22042SOL     OW67566   7.192   4.459   0.689 -0.2976  0.3767  0.2559
22042SOL    HW167567   7.265   4.480   0.748 -1.3149 -1.3559  2.2655
22042SOL    HW267568   7.234   4.428   0.609  1.1324  1.9366  0.3380
22043SOL     OW67569   4.594   0.624   6.411  0.0349  0.0704  0.3771
22043SOL    HW167570   4.588   0.563   6.484  0.9025 -1.3263 -0.6513
22043SOL    HW267571   4.686   0.651   6.409 -0.3463  1.4601  0.8316
22044SOL     OW67572   4.109   0.176   9.736 -0.3373  0.0108  0.1479
22044SOL    HW167573   4.136   0.211   9.821  0.3340  1.3154 -0.5718
22044SOL    HW267574   4.024   0.216   9.719 -0.7873 -0.7732  0.4875
22045SOL     OW67575   0.798   6.134   1.919 -0.7250 -0.0204 -0.3296
22045SOL    HW167576   0.855   6.153   1.845  0.0025  0.7236  0.3960
22045SOL    HW267577   0.836   6.057   1.960 -0.7325 -0.0336 -0.3475
22046SOL     OW67578   4.721   2.519  12.419  0.2739 -0.5480  0.1178
22046SOL    HW167579   4.754   2.446  12.367  0.6691 -0.6174  0.4576
22046SOL    HW267580   4.652   2.481  12.473  0.4285 -0.6584  0.2397
22047SOL     OW67581   7.536   2.964   4.631  0.6358  0.4696  0.2652
22047SOL    HW167582   7.622   2.930   4.657  0.2973 -0.6761 -0.0329
22047SOL    HW267583   7.474   2.899   4.664  0.0993 -0.3874 -2.1807
22048SOL     OW67584   2.640   5.295   2.213 -0.6180 -0.0132  0.7107
22048SOL    HW167585   2.582   5.370   2.207  1.4605  1.7310  1.1934
22048SOL    HW267586   2.688   5.295   2.130  1.0212  0.6711  1.6037
22049SOL     OW67587   2.750   3.542   4.211 -0.4655 -0.1256 -0.3739
22049SOL    HW167588   2.792   3.622   4.244  0.5110 -0.6366 -0.3147
22049SOL    HW267589   2.736   3.559   4.118 -1.4287  0.5817 -0.1153
22050SOL     OW67590   5.554   7.301   8.842 -0.3376  0.9131 -0.0963
22050SOL    HW167591   5.609   7.300   8.764 -1.7601  1.2875 -1.1347
22050SOL    HW267592   5.565   7.214   8.880 -1.7376 -0.2964 -2.2721
22051SOL     OW67593   2.193   6.537   7.368 -0.3940  0.2794 -0.1667
22051SOL    HW167594   2.282   6.531   7.334 -0.5592  0.7837 -0.6981
22051SOL    HW267595   2.137   6.516   7.294 -0.7408  0.7865 -0.0557
22052SOL     OW67596   1.600   4.219  10.605 -0.1328  0.0531  0.3236
22052SOL    HW167597   1.528   4.207  10.543 -0.6879 -0.5660  1.0600
22052SOL    HW267598   1.653   4.139  10.595  0.6716  0.6680 -0.4760
22053SOL     OW67599   6.826   7.855  10.622 -0.1756 -0.2641  0.0855
22053SOL    HW167600   6.842   7.873  10.530 -1.2336 -1.0472 -0.2815
22053SOL    HW267601   6.757   7.916  10.647  1.0178  0.8631  0.7518
22054SOL     OW67602   1.565   7.921   1.030  0.7417  0.0225 -0.1022
22054SOL    HW167603   1.486   7.955   0.988  2.9989  2.2099 -3.0533
22054SOL    HW267604   1.581   7.981   1.103  0.2118  0.1881 -0.1192
22055SOL     OW67605   6.913   1.724   8.461 -0.1444 -0.3723 -0.5121
22055SOL    HW167606   6.949   1.771   8.536  0.5195  0.4577 -1.3243
22055SOL    HW267607   6.976   1.654   8.444 -0.8591 -1.2434  0.3686
22056SOL     OW67608   6.911   2.407   3.005  0.1449 -0.0346  0.0131
22056SOL    HW167609   6.825   2.449   3.013 -0.3476 -1.0254  0.0843
22056SOL    HW267610   6.972   2.469   3.044 -0.4614  0.9239 -0.5357
22057SOL     OW67611   6.877   0.314   5.527 -0.2020 -0.0036 -0.1137
22057SOL    HW167612   6.897   0.370   5.602 -0.7666 -0.4155  0.3615
22057SOL    HW267613   6.883   0.225   5.563  0.6544 -0.2564 -0.8427
22058SOL     OW67614   2.929   1.554   4.335 -0.5287 -0.3162 -0.1793
22058SOL    HW167615   2.995   1.579   4.270 -0.4573  0.3211  0.1372
22058SOL    HW267616   2.854   1.526   4.283 -0.9680  1.4733 -0.5533
22059SOL     OW67617   4.392   0.997   8.239  0.0828 -0.0394  0.1408
22059SOL    HW167618   4.439   0.914   8.248 -0.6913 -0.4062  0.8862
22059SOL    HW267619   4.312   0.974   8.191 -0.2916  0.2158  0.6388
22060SOL     OW67620   7.932   0.322   6.248 -0.0548  0.2338 -0.2095
22060SOL    HW167621   7.937   0.276   6.332  0.0991  1.0932  0.2567
22060SOL    HW267622   7.943   0.253   6.182  2.5110 -0.1261  0.5054
22061SOL     OW67623   0.660   2.731   9.477 -0.2939  0.3235 -0.4957
22061SOL    HW167624   0.621   2.720   9.563  1.5716  1.2034  0.5108
22061SOL    HW267625   0.621   2.662   9.424 -1.8367  0.0724  0.9079
22062SOL     OW67626   1.728   7.070  11.862 -0.0318 -0.2833 -0.5553
22062SOL    HW167627   1.639   7.037  11.846 -0.0753 -0.4610  0.0200
22062SOL    HW267628   1.751   7.116  11.782 -1.2817  1.1559 -0.1623
22063SOL     OW67629   4.517   0.392   6.587  0.2587  0.0612  0.0931
22063SOL    HW167630   4.452   0.322   6.592 -0.7311  0.9804  0.7272
22063SOL    HW267631   4.591   0.361   6.639 -0.2966 -0.3815  0.6350
22064SOL     OW67632   6.634   1.311   4.066 -0.3371  0.1904  0.6241
22064SOL    HW167633   6.697   1.245   4.039 -1.7041 -0.8715 -0.1051
22064SOL    HW267634   6.557   1.262   4.095 -1.7525  1.3880 -0.8252
22065SOL     OW67635   1.589   2.194  10.285 -0.0596 -0.2795  0.0141
22065SOL    HW167636   1.533   2.242  10.346  0.0922 -1.3554  1.0429
22065SOL    HW267637   1.664   2.251  10.272 -0.4027  0.2484  0.3258
22066SOL     OW67638   4.341   5.378   8.294  0.5205  0.4197  0.1290
22066SOL    HW167639   4.251   5.347   8.302  1.0643 -0.8945  1.6085
22066SOL    HW267640   4.353   5.396   8.201 -0.9145 -0.4649 -0.2428
22067SOL     OW67641   3.601   6.109  11.382 -0.0481  0.6637 -0.2726
22067SOL    HW167642   3.530   6.052  11.354  1.8072 -1.5450 -0.7398
22067SOL    HW267643   3.618   6.085  11.473  0.0945  1.2097 -0.1478
22068SOL     OW67644   0.193   0.245  10.608 -0.7700  0.1159  0.3234
22068SOL    HW167645   0.176   0.168  10.661 -0.0297  0.3210  0.8822
22068SOL    HW267646   0.258   0.294  10.658 -1.4208  1.2342  0.0997
22069SOL     OW67647   3.189   1.896   8.413  0.4124  0.3235 -0.0455
22069SOL    HW167648   3.217   1.806   8.401  2.9571  0.9060  0.8866
22069SOL    HW267649   3.210   1.939   8.330 -1.7785 -0.0990 -0.8781
22070SOL     OW67650   5.910   0.103   3.978  0.1863  0.3443 -0.3197
22070SOL    HW167651   5.989   0.111   4.032  0.3290 -0.4930 -0.3858
22070SOL    HW267652   5.922   0.020   3.932 -1.0770 -0.1525  0.2164
22071SOL     OW67653   4.132   6.730   5.606  0.4217 -0.0141 -0.0377
22071SOL    HW167654   4.051   6.697   5.646 -0.6408  0.5338 -1.6592
22071SOL    HW267655   4.183   6.651   5.588  0.6220 -0.3234  1.6559
22072SOL     OW67656   4.882   0.663   6.734 -0.3122 -0.0729 -0.2390
22072SOL    HW167657   4.869   0.679   6.640  0.2354  2.2675  0.0247
22072SOL    HW267658   4.800   0.624   6.763 -1.6165  1.7920 -1.1917
22073SOL     OW67659   5.392   3.767   5.201  0.3009 -0.1934 -0.5020
22073SOL    HW167660   5.328   3.726   5.143 -0.6406 -1.5599  1.3969
22073SOL    HW267661   5.343   3.787   5.280  1.6068  1.3612 -0.0399
22074SOL     OW67662   7.081   0.435   9.065 -0.2941 -0.7228 -0.3896
22074SOL    HW167663   7.104   0.368   9.129 -2.3030 -0.9228  0.1858
22074SOL    HW267664   6.986   0.444   9.072 -0.4145  0.2359 -2.3879
22075SOL     OW67665   6.906   7.006   8.727  0.0917  0.5785  0.0851
22075SOL    HW167666   6.913   7.096   8.696 -0.4924  0.0176 -1.8582
22075SOL    HW267667   6.812   6.988   8.728  0.2460 -0.7987 -2.2527
22076SOL     OW67668   6.960   5.171  10.786  0.3797  0.4314 -0.2643
22076SOL    HW167669   7.032   5.229  10.811  1.0595 -1.4929  2.7808
22076SOL    HW267670   7.002   5.087  10.769 -0.9356 -0.0854 -1.1045
22077SOL     OW67671   3.069   2.140  10.221 -0.4518 -0.0779 -0.1400
22077SOL    HW167672   3.030   2.138  10.308  0.0602 -0.0876  0.0889
22077SOL    HW267673   3.123   2.061  10.216  0.3436  0.4529 -0.0820
22078SOL     OW67674   7.188   3.185   7.711  0.0772 -0.3407 -0.2264
22078SOL    HW167675   7.142   3.224   7.785 -0.6195 -0.9520 -0.3294
22078SOL    HW267676   7.148   3.226   7.634  2.3433  2.0333 -0.2782
22079SOL     OW67677   3.474   1.758  11.055  0.6099  0.0612 -0.0329
22079SOL    HW167678   3.441   1.720  10.974 -0.1694 -0.6318  0.5858
22079SOL    HW267679   3.458   1.690  11.121  0.8309  0.7831  0.7728
22080SOL     OW67680   2.345   5.304   2.556  0.2526 -0.4342 -0.4473
22080SOL    HW167681   2.346   5.275   2.647  0.4505  0.8014 -0.0269
22080SOL    HW267682   2.255   5.334   2.542  0.4949  0.3934 -0.2979
22081SOL     OW67683   3.495   3.718   0.822 -0.1000  0.0934  0.3219
22081SOL    HW167684   3.549   3.788   0.859 -0.9152  0.6272  0.5502
22081SOL    HW267685   3.407   3.757   0.817 -0.8934 -1.3698  1.8049
22082SOL     OW67686   4.465   2.205  10.981 -0.2579  0.0496 -0.1201
22082SOL    HW167687   4.374   2.175  10.978  0.4338 -2.4592  0.9092
22082SOL    HW267688   4.505   2.151  11.050  2.6623 -0.9842 -2.4314
22083SOL     OW67689   5.161   7.220   6.454 -0.1722 -0.3777 -0.0975
22083SOL    HW167690   5.071   7.252   6.451  0.4494  1.4519 -1.0462
22083SOL    HW267691   5.157   7.132   6.417 -1.4519  0.0620 -1.0736
22084SOL     OW67692   5.569   7.419   3.997 -0.0093 -0.4274  0.0485
22084SOL    HW167693   5.489   7.457   4.032 -0.2004 -0.8044  0.0264
22084SOL    HW267694   5.607   7.371   4.072  0.5111  0.2484  0.2298
22085SOL     OW67695   0.143   0.356   0.157  0.8958 -0.0937  0.0812
22085SOL    HW167696   0.167   0.445   0.130  0.8628  0.1397  0.7829
22085SOL    HW267697   0.209   0.300   0.116 -0.1181  0.0467 -1.8527
22086SOL     OW67698   7.432   6.170   5.469 -0.2590 -0.7358 -0.0459
22086SOL    HW167699   7.396   6.166   5.557 -0.1626  2.5290  0.2805
22086SOL    HW267700   7.490   6.247   5.470 -0.9972  0.0345 -3.1789
22087SOL     OW67701   0.984   4.326   7.008  0.2453  0.3473  0.1702
22087SOL    HW167702   1.070   4.290   6.986 -0.4773 -2.5558  1.5767
22087SOL    HW267703   0.926   4.294   6.938  0.0477  1.1183 -0.0246
22088SOL     OW67704   0.575   1.516   7.361 -0.2336  0.1860  0.2799
22088SOL    HW167705   0.512   1.454   7.397 -0.4438 -0.0220 -0.4250
22088SOL    HW267706   0.659   1.472   7.368 -0.3898 -0.2217 -0.2793
22089SOL     OW67707   3.036   1.299   5.472  0.3372 -0.3423 -0.4432
22089SOL    HW167708   2.988   1.372   5.433 -1.5474 -0.4750  1.4466
22089SOL    HW267709   3.035   1.231   5.404  0.0781  0.5797 -1.3809
22090SOL     OW67710   0.793   6.885   7.014 -0.0594  0.1963 -0.0282
22090SOL    HW167711   0.764   6.908   6.925  1.7932 -0.8794 -0.9588
22090SOL    HW267712   0.876   6.839   7.001  0.8668  1.0613  2.3583
22091SOL     OW67713   5.765   1.546  11.958 -0.5973  0.4535 -0.4569
22091SOL    HW167714   5.739   1.636  11.977 -1.4390  0.2749 -0.7343
22091SOL    HW267715   5.686   1.495  11.970 -0.1806 -0.2215 -0.5273
22092SOL     OW67716   1.380   2.448   7.060  0.4653 -0.2644 -0.6108
22092SOL    HW167717   1.404   2.381   7.124  0.0570 -1.0374 -1.2528
22092SOL    HW267718   1.464   2.480   7.026  0.6718 -0.1241  0.0240
22093SOL     OW67719   4.675   7.784   7.482 -0.2181 -0.2227  0.2476
22093SOL    HW167720   4.762   7.815   7.505 -0.1851  2.2740 -2.5596
22093SOL    HW267721   4.616   7.849   7.519 -0.8342 -1.1848  1.0111
22094SOL     OW67722   7.874   1.622  10.056  0.3661 -0.2917  0.2259
22094SOL    HW167723   7.934   1.630   9.982  1.9830 -0.2373  1.4872
22094SOL    HW267724   7.931   1.602  10.131 -1.0991  0.5031  1.6163
22095SOL     OW67725   0.358   4.014   7.215  0.1850 -0.1824  0.0040
22095SOL    HW167726   0.368   3.922   7.240 -1.4644 -0.1177  1.0342
22095SOL    HW267727   0.432   4.058   7.256  0.7821 -0.9876 -0.1864
22096SOL     OW67728   3.756   0.159  10.286 -0.0204  0.3415  0.1266
22096SOL    HW167729   3.718   0.080  10.249 -0.3624  0.5284  0.0772
22096SOL    HW267730   3.817   0.127  10.353 -0.8727  0.0607  0.7931
22097SOL     OW67731   5.223   6.230  10.462 -0.0578 -0.4168  0.2063
22097SOL    HW167732   5.185   6.151  10.424 -0.0028  0.0946 -0.9556
22097SOL    HW267733   5.279   6.266  10.393  1.1963 -0.2204  1.2791
22098SOL     OW67734   2.662   1.503   2.610  0.0932  0.1750  0.3510
22098SOL    HW167735   2.586   1.552   2.579  0.0294  0.1944  0.5344
22098SOL    HW267736   2.624   1.430   2.659  0.1955  0.2904  0.6032
22099SOL     OW67737   5.324   6.284   3.657 -0.0223  0.1922  0.4093
22099SOL    HW167738   5.248   6.249   3.704 -1.8888  1.3680 -1.5568
22099SOL    HW267739   5.337   6.371   3.693 -0.6843  0.6271 -0.3802
22100SOL     OW67740   7.660   6.324   5.520 -0.5145 -0.0126  0.1582
22100SOL    HW167741   7.675   6.419   5.525 -2.1560  0.2710  0.0426
22100SOL    HW267742   7.676   6.302   5.429  1.2383 -0.1323  0.4465
22101SOL     OW67743   2.317   1.316   3.436 -0.4100 -0.2422  0.0667
22101SOL    HW167744   2.242   1.261   3.457  0.1303 -0.3285  1.9467
22101SOL    HW267745   2.391   1.255   3.433  0.0811  0.2554  1.4775
22102SOL     OW67746   3.225   1.482   9.946 -0.6383  0.0969 -0.0225
22102SOL    HW167747   3.297   1.456   9.888  0.7047  2.4890  0.4200
22102SOL    HW267748   3.234   1.425  10.022  2.0025  1.4858  0.8207
22103SOL     OW67749   7.162   7.832   4.185  0.4412 -0.2815 -0.1990
22103SOL    HW167750   7.145   7.748   4.141 -0.3008 -0.0234 -0.4169
22103SOL    HW267751   7.249   7.822   4.223 -0.4204 -1.9287  1.5447
22104SOL     OW67752   4.077   0.926   2.796  0.3028  0.3767 -1.1007
22104SOL    HW167753   4.062   1.016   2.827  0.8796  0.5600 -1.3324
22104SOL    HW267754   4.119   0.937   2.711 -1.5365 -0.1147 -2.1307
22105SOL     OW67755   2.183   6.073   1.595  0.1977 -0.8023  0.0880
22105SOL    HW167756   2.091   6.052   1.610  0.4374 -0.6641  2.1554
22105SOL    HW267757   2.183   6.163   1.564 -0.3379 -0.5349  0.8375
22106SOL     OW67758   7.272   1.200   5.325 -0.0132 -0.5078 -0.1057
22106SOL    HW167759   7.335   1.181   5.255  0.7697 -1.3910  0.8082
22106SOL    HW267760   7.234   1.115   5.347  1.3017 -0.6197  1.9760
22107SOL     OW67761   4.445   1.771   8.931 -0.2287 -0.3193 -0.4618
22107SOL    HW167762   4.508   1.710   8.892  1.4447  1.6667 -1.0018
22107SOL    HW267763   4.471   1.857   8.899 -2.9316  0.6751 -0.2921
22108SOL     OW67764   2.967   3.992   8.551 -0.4328 -0.0289 -0.6656
22108SOL    HW167765   2.988   3.901   8.534  0.8925 -0.0262  0.7620
22108SOL    HW267766   2.973   4.035   8.466 -0.1415 -1.0880 -1.1903
22109SOL     OW67767   3.063   2.968   2.373 -0.1346  0.5300 -0.3435
22109SOL    HW167768   3.092   3.037   2.313 -1.4244  0.8091 -0.6612
22109SOL    HW267769   2.983   3.003   2.414  0.0831 -0.1265  0.6918
22110SOL     OW67770   5.222   2.446   8.105 -0.0265 -0.4912 -0.3555
22110SOL    HW167771   5.226   2.465   8.198 -1.7840 -0.5362 -0.2445
22110SOL    HW267772   5.298   2.390   8.089  0.8408  0.3031  0.8382
22111SOL     OW67773   3.561   0.470   3.687  0.6868  0.2609 -0.6105
22111SOL    HW167774   3.611   0.392   3.711  0.4620  0.0780 -0.7365
22111SOL    HW267775   3.593   0.538   3.746  0.3992 -0.0931 -0.0385
22112SOL     OW67776   4.068   1.409   4.154  0.2374  0.0497  0.1752
22112SOL    HW167777   4.117   1.435   4.076  0.1601 -0.0672  0.0867
22112SOL    HW267778   4.002   1.348   4.121 -0.2184  0.5007  0.2372
22113SOL     OW67779   0.694   4.158   1.267  0.2713 -0.1463  0.3030
22113SOL    HW167780   0.756   4.180   1.198  0.5288 -1.7497 -0.0204
22113SOL    HW267781   0.744   4.102   1.327 -0.7507 -1.1723  0.2220
22114SOL     OW67782   1.769   6.355   3.118  0.5586 -0.3091  0.0061
22114SOL    HW167783   1.718   6.274   3.128  0.2308  0.1211  2.3501
22114SOL    HW267784   1.860   6.326   3.120  0.4792 -0.5692  2.2628
22115SOL     OW67785   7.264   3.610   1.134 -0.5655  0.2089 -0.5551
22115SOL    HW167786   7.248   3.662   1.055 -0.2680 -0.8979 -1.3575
22115SOL    HW267787   7.325   3.542   1.107  1.1681  1.0095  1.1252
22116SOL     OW67788   0.950   7.432   7.548 -0.0439  0.3051  0.0581
22116SOL    HW167789   0.862   7.420   7.514  0.3926  1.0943 -1.4419
22116SOL    HW267790   0.959   7.527   7.561  0.4763  0.2048  0.4963
22117SOL     OW67791   5.269   6.117   6.767 -0.2804  0.2848 -0.3757
22117SOL    HW167792   5.317   6.040   6.736  0.7202  0.6539  0.1867
22117SOL    HW267793   5.288   6.184   6.702 -0.6230  0.2351 -0.5266
22118SOL     OW67794   7.862   1.927   0.754  0.1264 -0.4419  0.3304
22118SOL    HW167795   7.802   1.874   0.807  0.5478 -3.7390 -2.1856
22118SOL    HW267796   7.922   1.965   0.818 -2.3839  0.0222  2.6048
22119SOL     OW67797   5.579   7.736   4.194 -0.3813  0.4672  0.0602
22119SOL    HW167798   5.514   7.805   4.179  0.6919  2.0607  2.2250
22119SOL    HW267799   5.647   7.754   4.129  0.5893  2.4705  1.5241
22120SOL     OW67800   6.244   1.542   8.086 -0.0207 -0.2121 -0.4646
22120SOL    HW167801   6.232   1.627   8.043  2.4855  0.5357  0.1558
22120SOL    HW267802   6.300   1.493   8.027  2.5126  0.3997  1.2764
22121SOL     OW67803   2.251   5.945   2.676 -0.2457 -0.3042 -0.8029
22121SOL    HW167804   2.157   5.966   2.672 -0.6658 -1.1437  2.1143
22121SOL    HW267805   2.280   5.982   2.759  1.4151 -2.1180 -0.4911
22122SOL     OW67806   0.407   1.662   2.918  0.1517  0.4663 -0.0721
22122SOL    HW167807   0.398   1.638   3.011 -1.2672 -2.0915 -0.7926
22122SOL    HW267808   0.493   1.629   2.893  0.1578  0.3393  0.1149
22123SOL     OW67809   1.960   0.314  10.827 -0.0602 -0.5593 -0.0236
22123SOL    HW167810   1.941   0.244  10.765 -0.9992 -0.4447  0.1177
22123SOL    HW267811   1.928   0.281  10.911 -0.4501  0.0132  0.0545
22124SOL     OW67812   0.533   4.035   9.890  1.1024  0.5182 -0.3172
22124SOL    HW167813   0.458   4.021   9.948  1.2271  0.3884 -0.1877
22124SOL    HW267814   0.500   4.094   9.823  0.6817 -0.0820 -0.6531
22125SOL     OW67815   4.343   2.642   2.455  0.2300  0.3575  0.7756
22125SOL    HW167816   4.298   2.712   2.502  0.5980 -0.9426  3.2318
22125SOL    HW267817   4.290   2.627   2.377 -0.8513  2.1233  1.1278
22126SOL     OW67818   3.751   6.505  10.626 -0.2138 -0.5570  0.2466
22126SOL    HW167819   3.785   6.542  10.707 -2.6695 -1.1903  1.6541
22126SOL    HW267820   3.707   6.578  10.583  1.2466 -0.1739 -0.6897
22127SOL     OW67821   2.595   3.544   3.412  0.1720 -0.2409  0.3753
22127SOL    HW167822   2.593   3.639   3.410 -0.4434 -0.2676 -0.8960
22127SOL    HW267823   2.559   3.521   3.497 -0.7495  0.6364  0.2342
22128SOL     OW67824   1.098   7.356   6.134  0.7333 -0.1185  0.0430
22128SOL    HW167825   1.080   7.265   6.111  1.5032 -0.8847  2.1507
22128SOL    HW267826   1.120   7.353   6.227  1.0904  2.1966  0.1026
22129SOL     OW67827   2.461   0.809   9.280  0.7570 -0.1653 -0.2280
22129SOL    HW167828   2.448   0.742   9.347  1.1892 -0.7090 -0.6759
22129SOL    HW267829   2.555   0.827   9.282  0.7439 -0.0503 -0.5562
22130SOL     OW67830   5.784   5.159   6.975  0.1420 -0.3554 -0.2661
22130SOL    HW167831   5.821   5.134   6.890  1.2546  0.4884 -0.0607
22130SOL    HW267832   5.718   5.092   6.994 -0.5366 -0.2394 -2.0501
22131SOL     OW67833   1.286   6.350   2.958 -0.9090  0.1117 -0.0204
22131SOL    HW167834   1.223   6.297   3.007 -0.4972 -0.7167 -0.3681
22131SOL    HW267835   1.239   6.377   2.880 -0.4776 -1.5494 -0.8972
22132SOL     OW67836   5.602   7.299   4.615 -0.4101 -0.1247 -0.0519
22132SOL    HW167837   5.635   7.211   4.631  0.5614  0.4239  1.1123
22132SOL    HW267838   5.627   7.349   4.693  0.7510  1.6552 -1.4708
22133SOL     OW67839   2.070   7.353   1.323  0.3204  0.3279 -0.3622
22133SOL    HW167840   2.059   7.259   1.335  1.6577 -0.0417 -1.7603
22133SOL    HW267841   1.996   7.392   1.369  1.0290 -1.2548  2.3774
22134SOL     OW67842   1.147   7.818   2.278  0.0896 -0.0723 -0.5304
22134SOL    HW167843   1.066   7.835   2.230  0.0906  1.6332 -0.0008
22134SOL    HW267844   1.172   7.903   2.314  2.0124 -0.6038 -0.4952
22135SOL     OW67845   6.495   6.205   4.885 -0.2378  0.0672 -0.3341
22135SOL    HW167846   6.407   6.192   4.920  0.5460  0.4272  1.9363
22135SOL    HW267847   6.483   6.206   4.790 -2.8051  1.0101 -0.0805
22136SOL     OW67848   6.862   5.739  11.769  0.4590  0.5905  0.1367
22136SOL    HW167849   6.862   5.652  11.807  0.8216  0.6712  0.3267
22136SOL    HW267850   6.872   5.798  11.844  0.9230  0.7615 -0.0581
22137SOL     OW67851   1.752   7.504   0.963 -0.1361  0.0223  0.4372
22137SOL    HW167852   1.723   7.499   0.872 -1.1563 -0.9803  0.7867
22137SOL    HW267853   1.829   7.561   0.961  1.6212 -2.1718 -1.5034
22138SOL     OW67854   3.438   7.648   8.400 -0.4288 -0.1762  0.0100
22138SOL    HW167855   3.349   7.683   8.389 -0.0586  1.1355  1.0464
22138SOL    HW267856   3.437   7.607   8.486  0.4372  1.3715  0.7848
22139SOL     OW67857   2.478   1.024  10.141 -0.0230  0.0483 -0.3410
22139SOL    HW167858   2.479   1.076  10.061 -1.4389  1.5387  0.5498
22139SOL    HW267859   2.565   0.985  10.145 -0.0843 -0.4541 -2.8238
22140SOL     OW67860   7.961   6.126   9.926  0.3532 -0.3071 -0.0994
22140SOL    HW167861   8.053   6.146   9.905  0.3117 -1.0425 -1.0159
22140SOL    HW267862   7.922   6.212   9.942  1.2984 -0.0142  0.7379
22141SOL     OW67863   4.322   1.021   0.496  0.2979  0.4135  0.1497
22141SOL    HW167864   4.408   1.057   0.472  0.0078  0.4160 -0.9623
22141SOL    HW267865   4.271   1.027   0.415 -0.6813  0.2082  0.7451
22142SOL     OW67866   3.479   1.256   7.474 -0.3028  0.0398  0.0595
22142SOL    HW167867   3.534   1.266   7.396 -0.5056 -0.4340 -0.1461
22142SOL    HW267868   3.412   1.324   7.466 -1.5671 -1.2916 -1.2374
22143SOL     OW67869   4.372   1.917  11.481  0.9581 -0.2541  0.7119
22143SOL    HW167870   4.371   1.844  11.419  0.3236  0.3637 -0.0392
22143SOL    HW267871   4.412   1.989  11.432  0.4634  0.2427  1.0299
22144SOL     OW67872   1.853   2.891   0.903  0.3662  0.1020 -0.7344
22144SOL    HW167873   1.820   2.809   0.941 -0.0133  0.7039  0.2591
22144SOL    HW267874   1.805   2.960   0.948  0.0973  0.8674 -2.1198
22145SOL     OW67875   6.502   6.054   2.522 -0.5384 -0.0914 -0.5025
22145SOL    HW167876   6.531   6.068   2.432 -0.6607 -0.3598 -0.5834
22145SOL    HW267877   6.506   5.959   2.535  0.1811 -0.0060  0.0095
22146SOL     OW67878   7.147   3.375   9.496 -0.0029  0.1200 -0.1078
22146SOL    HW167879   7.054   3.352   9.489 -0.1738  0.6400  0.2975
22146SOL    HW267880   7.166   3.363   9.589  0.3157  0.0952 -0.1781
22147SOL     OW67881   5.287   3.320   5.347  0.2974  0.4790 -0.3421
22147SOL    HW167882   5.218   3.272   5.394  1.0979 -0.9111 -0.5519
22147SOL    HW267883   5.249   3.339   5.261 -1.1192  2.8930  0.6878
22148SOL     OW67884   4.369   0.179   2.912  0.1018  0.0825  0.1800
22148SOL    HW167885   4.393   0.252   2.855  0.3763 -0.3833 -0.3097
22148SOL    HW267886   4.434   0.111   2.892 -0.1698 -0.3056  0.6055
22149SOL     OW67887   0.788   6.261  12.161  0.3819 -0.2208 -0.0358
22149SOL    HW167888   0.857   6.199  12.186  0.6301  0.4556  1.0432
22149SOL    HW267889   0.796   6.269  12.066  2.7578  0.9396  0.1808
22150SOL     OW67890   0.335   3.122  10.953 -0.1280  0.4238  0.2293
22150SOL    HW167891   0.420   3.162  10.975  0.7047 -0.9924 -0.2504
22150SOL    HW267892   0.278   3.146  11.026  0.8644  0.8923  0.8851
22151SOL     OW67893   0.151   3.605   0.715  0.3123  0.1448 -0.6355
22151SOL    HW167894   0.158   3.510   0.715  0.8127  0.1611  0.9954
22151SOL    HW267895   0.240   3.636   0.700  0.3955  0.3538  0.2659
22152SOL     OW67896   1.020   6.737   0.470 -0.2747 -0.2053  0.4379
22152SOL    HW167897   0.974   6.816   0.443 -2.4621 -1.8473 -0.9928
22152SOL    HW267898   1.063   6.706   0.390  0.2333 -0.6800  0.8866
22153SOL     OW67899   5.011   4.383   4.024 -0.2223 -0.0320  0.5418
22153SOL    HW167900   5.000   4.473   4.056 -1.1108 -0.2279  0.8210
22153SOL    HW267901   4.933   4.337   4.055 -1.4705 -0.1179 -2.4383
22154SOL     OW67902   4.464   6.012   3.738  0.4794 -0.1045 -0.0290
22154SOL    HW167903   4.555   5.985   3.754  0.8242 -0.1321 -1.7578
22154SOL    HW267904   4.456   6.012   3.642 -1.1373  0.6049  0.0718
22155SOL     OW67905   5.427   7.000   4.873  0.8210 -0.1110  0.2551
22155SOL    HW167906   5.352   6.985   4.930  1.9882 -1.6053  1.5114
22155SOL    HW267907   5.413   6.942   4.798  0.2810  0.3126  0.0236
22156SOL     OW67908   3.970   6.580  11.690  0.5072  0.7281 -0.1553
22156SOL    HW167909   4.019   6.620  11.762  0.7522  0.7984 -0.3589
22156SOL    HW267910   4.035   6.568  11.621  0.6266 -0.7336  0.1730
22157SOL     OW67911   2.687   0.886   3.130  0.1102  0.0089 -0.2436
22157SOL    HW167912   2.691   0.875   3.035 -0.2945 -0.8936 -0.1670
22157SOL    HW267913   2.601   0.924   3.147 -1.0074 -2.4377 -0.0435
22158SOL     OW67914   5.065   7.720  10.811  0.3489  0.4449 -0.3471
22158SOL    HW167915   5.065   7.712  10.906  1.4004 -0.8416 -0.4317
22158SOL    HW267916   5.089   7.811  10.794  0.3504  0.6260  0.5990
22159SOL     OW67917   5.792   1.179  10.417  0.4040  0.3596 -0.1566
22159SOL    HW167918   5.859   1.232  10.374  0.0403 -0.1728 -1.4187
22159SOL    HW267919   5.748   1.133  10.346 -1.1926  0.5567  0.6656
22160SOL     OW67920   3.931   7.960   0.884 -0.5500 -0.5518 -0.3160
22160SOL    HW167921   3.907   7.896   0.951  0.9371  0.7038  1.5353
22160SOL    HW267922   3.996   7.915   0.829 -1.6565 -1.5351 -0.8590
22161SOL     OW67923   0.012   6.598   6.223  0.5241 -0.1133 -0.0767
22161SOL    HW167924  -0.028   6.678   6.257  0.0795 -0.9854  1.5690
22161SOL    HW267925   0.101   6.624   6.198  0.3502  0.9193  0.3324
22162SOL     OW67926   1.981   1.317   9.175  0.2663  0.2655  0.2654
22162SOL    HW167927   1.992   1.298   9.082 -1.1707 -3.0255  0.6447
22162SOL    HW267928   1.904   1.374   9.179  1.4824  2.0824 -0.5877
22163SOL     OW67929   5.609   6.111   0.772  0.2935 -0.2234 -0.4414
22163SOL    HW167930   5.625   6.135   0.681 -0.0949 -0.6862 -0.6339
22163SOL    HW267931   5.523   6.070   0.772  0.5669 -0.8222  0.0177
22164SOL     OW67932   5.736   6.607   5.915  0.0065 -0.3550 -0.1722
22164SOL    HW167933   5.682   6.660   5.856 -0.9073 -0.7870  0.2453
22164SOL    HW267934   5.755   6.528   5.866  0.4859 -0.0963 -0.4121
22165SOL     OW67935   4.122   7.976   2.746  0.0190 -0.3203 -0.5324
22165SOL    HW167936   4.084   8.028   2.817 -0.3169 -1.6042  0.2467
22165SOL    HW267937   4.101   8.026   2.667 -0.1102  0.8341  0.2073
22166SOL     OW67938   5.915   3.595   9.523 -0.2592  0.3833 -0.4726
22166SOL    HW167939   5.895   3.505   9.550 -0.0977  1.1598  2.6348
22166SOL    HW267940   5.883   3.601   9.433 -1.2326 -2.4559 -0.4135
22167SOL     OW67941   3.789   0.473   3.394 -0.2802 -0.0355 -0.5246
22167SOL    HW167942   3.854   0.542   3.381  0.6831  0.1557  3.8220
22167SOL    HW267943   3.705   0.518   3.394  0.2873  1.1444  1.6114
22168SOL     OW67944   7.884   7.286   8.376  0.1312  0.1503  0.0988
22168SOL    HW167945   7.881   7.367   8.428  0.7662  0.2835 -0.0647
22168SOL    HW267946   7.861   7.217   8.439 -3.5127  0.6861 -0.3936
22169SOL     OW67947   1.147   0.530   5.784 -0.2992  0.4494  0.4287
22169SOL    HW167948   1.096   0.554   5.707  0.0491  0.5622  0.2278
22169SOL    HW267949   1.169   0.613   5.826 -0.8834  0.3631  0.9127
22170SOL     OW67950   6.395   3.488   7.083  0.6983  0.1125  0.4205
22170SOL    HW167951   6.440   3.415   7.040  0.7107  0.2422  0.2112
22170SOL    HW267952   6.384   3.553   7.014  1.8661  0.8585  0.9103
22171SOL     OW67953   3.481   7.133   7.422  0.0854 -0.1399  0.2960
22171SOL    HW167954   3.546   7.161   7.358  0.0414  1.7868  1.0221
22171SOL    HW267955   3.405   7.109   7.369  1.2190 -2.1158 -0.5378
22172SOL     OW67956   5.760   6.808  10.097  0.3770  0.3470 -0.1319
22172SOL    HW167957   5.769   6.902  10.086  0.4320  0.3789  0.1737
22172SOL    HW267958   5.766   6.794  10.192  0.7209  0.0058 -0.1992
22173SOL     OW67959   2.314   6.771   4.294 -0.0959 -0.0894 -0.3551
22173SOL    HW167960   2.258   6.738   4.225  0.9722  0.5349 -1.5561
22173SOL    HW267961   2.284   6.726   4.373 -2.9054  0.9231 -0.7341
22174SOL     OW67962   7.827   5.989   1.149 -0.1933  0.1848 -0.2177
22174SOL    HW167963   7.740   6.001   1.112 -0.3096  1.0303  0.2995
22174SOL    HW267964   7.851   6.076   1.182  0.7756 -0.0752 -0.2135
22175SOL     OW67965   0.424   6.324   3.586  0.4156 -0.0322 -0.2181
22175SOL    HW167966   0.386   6.248   3.540  1.1581 -1.4558  1.4021
22175SOL    HW267967   0.487   6.360   3.523  1.2458 -1.7926 -0.4601
22176SOL     OW67968   1.599   5.464   0.753  0.8818 -0.2160  0.0685
22176SOL    HW167969   1.571   5.554   0.739 -0.2106 -0.5182  0.1966
22176SOL    HW267970   1.652   5.468   0.833  1.4434  0.4143 -0.3255
22177SOL     OW67971   1.359   4.624   6.860  0.1011  0.4435  0.2640
22177SOL    HW167972   1.436   4.588   6.904  0.4249 -1.2389 -1.5820
22177SOL    HW267973   1.381   4.717   6.847  1.3299  0.2543  0.7911
22178SOL     OW67974   0.760   7.684   1.015  0.2164  0.1760 -0.6768
22178SOL    HW167975   0.670   7.666   1.043  0.1552  0.3232 -0.7774
22178SOL    HW267976   0.815   7.632   1.074  0.1555  1.4589  0.5656
22179SOL     OW67977   1.056   5.847   2.404  0.0457 -0.1026  0.0832
22179SOL    HW167978   1.067   5.941   2.392 -0.6789  0.1429  1.2151
22179SOL    HW267979   1.083   5.809   2.320  0.2184  1.1142 -0.4344
22180SOL     OW67980   1.299   5.527   4.421 -0.5363  0.0856  0.1523
22180SOL    HW167981   1.220   5.555   4.469  0.3431  1.1439  1.0389
22180SOL    HW267982   1.351   5.481   4.487  0.0088  0.2277 -0.1776
22181SOL     OW67983   1.420   7.754   1.300  0.0473 -0.4240  0.6237
22181SOL    HW167984   1.437   7.702   1.221 -0.1559 -0.4472  0.5955
22181SOL    HW267985   1.482   7.826   1.294  0.1064 -0.4846  0.4952
22182SOL     OW67986   7.034   5.096  12.358 -0.1077 -0.4920 -0.1194
22182SOL    HW167987   7.100   5.032  12.385  0.5434  0.0093 -0.4927
22182SOL    HW267988   6.983   5.113  12.438  1.4077  0.5266  0.6586
22183SOL     OW67989   3.575   1.901   8.346  0.7368  0.0215 -0.4453
22183SOL    HW167990   3.503   1.848   8.313 -0.2770 -0.5444  2.3310
22183SOL    HW267991   3.559   1.988   8.311 -0.5859 -0.3766 -0.8734
22184SOL     OW67992   0.869   4.826  11.415 -0.1341 -0.1309  0.7295
22184SOL    HW167993   0.804   4.780  11.362 -0.6142  1.0453  0.2573
22184SOL    HW267994   0.840   4.917  11.415  1.4836  0.4118  0.5727
22185SOL     OW67995   6.650   2.455   1.584  0.0723  0.3900  0.2504
22185SOL    HW167996   6.692   2.530   1.541 -1.1530  1.2213  0.4634
22185SOL    HW267997   6.663   2.469   1.677  0.9561 -0.3507  0.2499
22186SOL     OW67998   2.271   3.163   5.666 -0.1406 -0.1155 -0.2959
22186SOL    HW167999   2.300   3.234   5.723 -1.9481  1.6021 -1.4258
22186SOL    HW268000   2.342   3.098   5.672  1.0513  1.2523  1.6243
22187SOL     OW68001   6.171   7.309   8.501 -0.2068 -0.0981 -0.5032
22187SOL    HW168002   6.209   7.342   8.420 -0.9658  0.1242 -0.7832
22187SOL    HW268003   6.092   7.362   8.513  0.4666  0.6326  0.9742
22188SOL     OW68004   5.718   2.343  10.738 -0.1486  0.4176  0.3622
22188SOL    HW168005   5.641   2.396  10.717  0.5918  1.7638  0.9462
22188SOL    HW268006   5.686   2.280  10.803 -1.1263 -0.1416 -0.6177
22189SOL     OW68007   0.919   4.781   9.654 -0.1901  0.1619 -0.3764
22189SOL    HW168008   1.005   4.745   9.676  0.0287  0.0220 -1.3811
22189SOL    HW268009   0.864   4.705   9.639 -0.3978  0.2511 -0.0565
22190SOL     OW68010   2.229   3.726   1.282 -0.0998 -0.3909 -0.1759
22190SOL    HW168011   2.249   3.818   1.266  0.8063 -0.3177  1.1455
22190SOL    HW268012   2.315   3.685   1.292 -0.4784 -0.7057  2.5714
22191SOL     OW68013   3.035   0.788   9.294 -0.1313 -0.6779 -0.1291
22191SOL    HW168014   2.945   0.758   9.281 -0.4597  0.7011 -1.3259
22191SOL    HW268015   3.032   0.835   9.378  0.0101 -2.4268  0.9127
22192SOL     OW68016   3.784   6.815   9.727 -0.0490  0.2320  1.1115
22192SOL    HW168017   3.738   6.888   9.768  0.3503  0.9918  0.2299
22192SOL    HW268018   3.753   6.814   9.637  1.0074  0.2208  0.7307
22193SOL     OW68019   1.713   5.651  10.741 -0.5209  0.0306 -0.1943
22193SOL    HW168020   1.725   5.674  10.834 -0.2206 -1.6271  0.1990
22193SOL    HW268021   1.796   5.676  10.700 -0.3790  0.0928  0.1262
22194SOL     OW68022   5.603   3.152   4.713 -0.0807  0.3971 -1.1307
22194SOL    HW168023   5.651   3.161   4.796 -0.4831  2.4057 -1.0697
22194SOL    HW268024   5.511   3.148   4.739 -0.1470 -0.4121 -1.4344
22195SOL     OW68025   2.945   5.632   8.997 -0.5155 -0.5466  0.0244
22195SOL    HW168026   2.950   5.582   9.079  0.8252 -2.5916 -1.2231
22195SOL    HW268027   3.020   5.691   9.000 -1.4264  0.6119  0.9752
22196SOL     OW68028   0.674   0.038   3.575  0.3843  0.1217 -0.7176
22196SOL    HW168029   0.680   0.074   3.486 -0.1756  2.3254  0.0595
22196SOL    HW268030   0.605  -0.029   3.569 -0.8962  1.4493 -1.6183
22197SOL     OW68031   3.508   1.833   2.551 -0.2280  0.1716  0.3216
22197SOL    HW168032   3.574   1.836   2.620  0.2458  1.1522 -0.1588
22197SOL    HW268033   3.501   1.923   2.520  0.4066 -0.4315 -1.7086
22198SOL     OW68034   4.200   7.693   9.223 -0.9343  0.4807  0.1674
22198SOL    HW168035   4.261   7.620   9.229 -1.3807  0.1962  1.6462
22198SOL    HW268036   4.136   7.665   9.157  0.9029  1.1211 -2.0105
22199SOL     OW68037   7.414   5.003   9.483  0.8583 -0.2189  0.1354
22199SOL    HW168038   7.362   4.930   9.448 -0.0395  1.4653 -2.2766
22199SOL    HW268039   7.494   5.002   9.430  1.7496 -0.6135  1.4412
22200SOL     OW68040   5.556   1.785   1.522  0.0543  0.2225 -0.6991
22200SOL    HW168041   5.545   1.851   1.591 -0.3251 -1.1280  0.5748
22200SOL    HW268042   5.649   1.788   1.500 -0.3586  3.0148 -2.6083
22201SOL     OW68043   7.933   3.167   1.246  0.0983 -0.4585 -0.1380
22201SOL    HW168044   7.917   3.088   1.195 -2.2508 -0.7145  0.8543
22201SOL    HW268045   8.023   3.158   1.277  0.7513 -1.4492 -2.1908
22202SOL     OW68046   3.598   4.644   4.141 -0.1797  0.5093  0.4041
22202SOL    HW168047   3.637   4.726   4.111  1.5103  0.3828  2.0475
22202SOL    HW268048   3.530   4.671   4.202  1.4947  0.7664  2.2647
22203SOL     OW68049   6.330   6.811   0.539  0.2413 -0.3510 -0.4315
22203SOL    HW168050   6.410   6.847   0.501  1.0556 -1.6185 -0.0021
22203SOL    HW268051   6.359   6.769   0.620 -1.1108  0.4404  0.5172
22204SOL     OW68052   2.540   6.832  11.665  0.5438  0.3239 -0.0008
22204SOL    HW168053   2.481   6.897  11.627 -2.1385 -1.5831  0.5388
22204SOL    HW268054   2.529   6.842  11.760  0.7324 -0.3190  0.0960
22205SOL     OW68055   2.652   2.068   7.000  0.4814  0.7094  0.2447
22205SOL    HW168056   2.679   2.160   6.990  1.3815  0.2785 -1.6574
22205SOL    HW268057   2.583   2.056   6.935 -0.2271  0.2388  1.0686
22206SOL     OW68058   4.556   1.163   8.557  0.1510 -1.0323  0.6212
22206SOL    HW168059   4.611   1.085   8.545 -0.4102 -1.0851 -2.5499
22206SOL    HW268060   4.467   1.133   8.541 -0.0906  0.1981 -0.5059
22207SOL     OW68061   5.855   4.364   5.093 -0.0057 -0.5017 -0.3431
22207SOL    HW168062   5.910   4.365   5.014  0.2631 -0.2383 -0.1518
22207SOL    HW268063   5.777   4.315   5.066  0.4792 -1.2034 -0.5068
22208SOL     OW68064   0.146   4.006   1.056  0.1220 -0.9048  0.1818
22208SOL    HW168065   0.071   3.982   1.001  0.9959  0.8017 -1.9019
22208SOL    HW268066   0.218   3.953   1.022  0.2502 -1.3216  1.0793
22209SOL     OW68067   2.965   7.924   5.135  0.0592 -0.1010 -0.3106
22209SOL    HW168068   3.029   7.968   5.080  0.4300  1.3794  1.2220
22209SOL    HW268069   2.965   7.974   5.217 -2.5792 -0.4562 -0.0029
22210SOL     OW68070   1.636   7.728   2.399  0.3444  0.3761  0.1490
22210SOL    HW168071   1.574   7.799   2.383  0.2782  1.2928  3.7523
22210SOL    HW268072   1.699   7.734   2.327 -0.6494  2.9581 -0.5935
22211SOL     OW68073   6.610   6.308   7.653  0.3148 -0.6190 -0.3134
22211SOL    HW168074   6.569   6.390   7.625  0.4490 -0.3865  0.1556
22211SOL    HW268075   6.537   6.250   7.673  0.1608  0.1650  1.6226
22212SOL     OW68076   5.290   0.825  10.617 -0.3458 -0.2056 -0.3812
22212SOL    HW168077   5.276   0.757  10.683  0.7432 -0.6481 -0.5857
22212SOL    HW268078   5.300   0.906  10.668 -1.3734 -0.2327 -0.1218
22213SOL     OW68079   5.382   2.005   8.314 -0.5005 -0.2018  0.2627
22213SOL    HW168080   5.377   1.940   8.244  1.8624  0.3723 -0.5438
22213SOL    HW268081   5.416   1.956   8.390 -1.6427 -0.5118  0.5902
22214SOL     OW68082   0.009   7.287   8.831  0.3325  0.4466 -0.0773
22214SOL    HW168083  -0.067   7.234   8.807  1.1036 -0.3705 -0.7501
22214SOL    HW268084   0.050   7.240   8.903 -0.1007  1.1779  0.6607
22215SOL     OW68085   1.249   6.674   6.309  0.6743  0.3446 -0.1001
22215SOL    HW168086   1.288   6.666   6.222  1.3647  0.5380  0.1827
22215SOL    HW268087   1.173   6.731   6.297 -0.7924 -1.6647 -1.0483
22216SOL     OW68088   3.269   2.254   0.950  0.0317  0.1796  0.3865
22216SOL    HW168089   3.281   2.235   0.857  0.4351 -0.6223  0.5882
22216SOL    HW268090   3.263   2.349   0.955 -2.6838  0.1566 -0.7584
22217SOL     OW68091   1.171   6.680   0.730  0.6072  0.3491 -0.0694
22217SOL    HW168092   1.101   6.702   0.668 -0.1713  1.7732  1.2242
22217SOL    HW268093   1.150   6.592   0.759  0.0639  0.2785 -0.6549
22218SOL     OW68094   1.896   5.372  11.854  0.3158  0.3655 -0.4700
22218SOL    HW168095   1.990   5.386  11.843 -0.0101  1.5291 -2.1118
22218SOL    HW268096   1.867   5.339  11.769 -0.5649 -1.2929  0.4305
22219SOL     OW68097   3.047   3.888   2.557  0.3336  0.5250 -0.3511
22219SOL    HW168098   2.972   3.913   2.612  0.8127  0.5126  0.3162
22219SOL    HW268099   3.007   3.853   2.477 -0.3879 -0.2578  0.3286
22220SOL     OW68100   1.890   3.673   6.137  0.4854  0.2377 -0.3257
22220SOL    HW168101   1.862   3.637   6.221  1.3378 -0.9207 -0.5194
22220SOL    HW268102   1.966   3.620   6.112 -0.1449  0.1255 -2.1466
22221SOL     OW68103   7.312   3.800   5.817  0.2270 -0.7379 -0.5749
22221SOL    HW168104   7.225   3.760   5.828  0.1245 -0.2063  0.8575
22221SOL    HW268105   7.295   3.894   5.822  1.1538 -0.6292  2.8943
22222SOL     OW68106   3.174   3.132   9.228 -0.3473  0.4543 -0.5995
22222SOL    HW168107   3.142   3.218   9.200  0.4953  1.7729  2.1211
22222SOL    HW268108   3.097   3.089   9.266 -0.0280  1.5898  1.4291
22223SOL     OW68109   4.752   5.315   2.537  0.2139  0.5275  0.4233
22223SOL    HW168110   4.774   5.408   2.525  0.2360  0.4271 -0.3501
22223SOL    HW268111   4.772   5.275   2.453 -2.5172  0.3354 -0.2097
22224SOL     OW68112   7.904   0.060   6.068  0.1424 -0.1605 -0.1865
22224SOL    HW168113   7.955  -0.020   6.053 -0.5806 -0.1859 -3.0134
22224SOL    HW268114   7.813   0.031   6.064 -0.2284  0.1488  3.2842
22225SOL     OW68115   7.021   1.694   9.492  0.0225  0.4447  0.6584
22225SOL    HW168116   7.096   1.753   9.488 -1.0079  1.7775  0.0427
22225SOL    HW268117   6.962   1.735   9.556 -0.9896  0.4556 -0.2397
22226SOL     OW68118   7.088   2.993   5.066  1.1923 -0.2173  0.2215
22226SOL    HW168119   7.046   2.911   5.090  1.1907 -0.8082 -1.6372
22226SOL    HW268120   7.181   2.972   5.058  1.0829 -0.3010 -1.1351
22227SOL     OW68121   0.166   0.600   7.671 -0.4093 -0.9204 -0.0192
22227SOL    HW168122   0.220   0.677   7.689  0.9282 -1.8142 -0.0501
22227SOL    HW268123   0.077   0.627   7.694 -0.0956  0.8554 -0.7142
22228SOL     OW68124   3.689   2.261   5.697 -0.0295  0.5251 -0.2125
22228SOL    HW168125   3.624   2.270   5.766 -0.7841  0.4942 -0.9060
22228SOL    HW268126   3.641   2.278   5.616  0.9532  1.1173 -0.6979
22229SOL     OW68127   4.695   5.664   5.082  0.2393  0.3334 -0.2489
22229SOL    HW168128   4.625   5.639   5.142  1.3755 -0.9183  0.5874
22229SOL    HW268129   4.649   5.703   5.007 -1.2345  1.4590  1.1648
22230SOL     OW68130   0.466   4.083   7.616  0.3338  0.2158 -0.1357
22230SOL    HW168131   0.462   3.999   7.661 -1.3404  0.5204  0.3801
22230SOL    HW268132   0.413   4.141   7.670  1.4650  1.6092 -0.4889
22231SOL     OW68133   4.545   1.886   1.526 -0.2218 -0.2033  0.3943
22231SOL    HW168134   4.625   1.842   1.499 -0.5363  0.5425 -1.9797
22231SOL    HW268135   4.572   1.940   1.601  1.3235 -0.5390  0.1226
22232SOL     OW68136   0.692   5.600   5.555  0.2514 -0.0011 -0.3004
22232SOL    HW168137   0.729   5.675   5.601 -0.1591 -0.1136  0.2264
22232SOL    HW268138   0.758   5.531   5.562  0.2655  0.0406 -0.0298
22233SOL     OW68139   6.603   5.350   7.689 -0.2835  0.1036  0.0290
22233SOL    HW168140   6.554   5.291   7.747 -2.0345  1.4102 -0.0473
22233SOL    HW268141   6.663   5.292   7.641 -1.5070 -1.5306  0.3848
22234SOL     OW68142   5.295   6.704   3.345 -0.3040 -0.1359 -0.3732
22234SOL    HW168143   5.287   6.615   3.378 -0.7331  0.7063  1.9635
22234SOL    HW268144   5.250   6.758   3.410 -1.5207  1.6548 -2.5410
22235SOL     OW68145   4.303   2.159   7.283  0.1632 -0.2919 -0.0433
22235SOL    HW168146   4.323   2.065   7.287 -0.3095 -0.4258 -0.6596
22235SOL    HW268147   4.236   2.173   7.349 -0.9253 -0.7069 -1.0242
22236SOL     OW68148   7.907   4.047  12.071 -0.1894  0.1460 -0.4335
22236SOL    HW168149   7.852   3.970  12.084 -1.0962  1.0175  1.0998
22236SOL    HW268150   7.936   4.040  11.980 -0.7782 -1.6506 -0.5171
22237SOL     OW68151   6.481   6.349   3.670 -0.2941 -0.0018 -0.7877
22237SOL    HW168152   6.545   6.277   3.669  1.0103  1.0858  0.4369
22237SOL    HW268153   6.410   6.318   3.613  0.8057 -1.7145 -1.3233
22238SOL     OW68154   7.956   6.132  11.925 -0.1345  0.0975  0.3199
22238SOL    HW168155   7.892   6.201  11.910  0.0544 -0.0417 -1.2719
22238SOL    HW268156   7.910   6.066  11.977 -1.1541  0.1920 -0.4500
22239SOL     OW68157   7.537   5.089  11.323 -0.1662 -0.2373  0.1360
22239SOL    HW168158   7.535   5.090  11.419 -2.1783 -0.5911  0.1388
22239SOL    HW268159   7.462   5.142  11.297 -0.9485 -1.9406 -1.2330
22240SOL     OW68160   1.511   5.721   1.591  0.3454  0.5882  0.1125
22240SOL    HW168161   1.465   5.720   1.675  1.1637  0.7943  0.5736
22240SOL    HW268162   1.598   5.755   1.612  1.2415 -1.2490 -0.4581
22241SOL     OW68163   0.808   3.902   6.011 -0.2648  0.6984 -0.0018
22241SOL    HW168164   0.796   3.986   6.055  0.8618  1.2155 -0.6192
22241SOL    HW268165   0.855   3.848   6.074  0.6080  1.1558 -0.2457
22242SOL     OW68166   0.087   1.909   6.183  0.3555  0.0822  0.1505
22242SOL    HW168167   0.099   1.924   6.277  2.5105  0.5692 -0.1462
22242SOL    HW268168   0.039   1.826   6.177  0.2717  0.0040  1.6645
22243SOL     OW68169   7.836   0.565   2.612  0.7379 -0.0131  0.0766
22243SOL    HW168170   7.778   0.518   2.552  1.1446  0.4753 -0.7102
22243SOL    HW268171   7.909   0.504   2.627  0.7626 -0.0388 -0.1404
22244SOL     OW68172   2.768   7.786   8.453  0.3170  0.3092 -0.0394
22244SOL    HW168173   2.810   7.836   8.382 -1.5142  0.4064 -1.1254
22244SOL    HW268174   2.839   7.735   8.492  1.3961  0.1799 -2.0287
22245SOL     OW68175   7.550   1.495   7.065 -0.1357  0.3840 -0.2190
22245SOL    HW168176   7.637   1.517   7.032 -0.5461  1.1583 -0.8104
22245SOL    HW268177   7.497   1.478   6.987 -0.9867  1.7510  0.0239
22246SOL     OW68178   6.450   1.980   2.952 -0.6156 -0.2159  0.5074
22246SOL    HW168179   6.442   2.033   2.873  0.0317  0.3076  0.7833
22246SOL    HW268180   6.395   1.903   2.935  0.0721 -0.4655 -0.7444
22247SOL     OW68181   6.759   4.545   4.753  0.2377 -0.7796  0.2882
22247SOL    HW168182   6.851   4.528   4.773  0.7514  0.1679 -1.1293
22247SOL    HW268183   6.716   4.550   4.838  1.6981 -0.1248  1.0144
22248SOL     OW68184   5.627   5.458   0.973 -0.3621 -0.1206  0.0625
22248SOL    HW168185   5.669   5.416   1.048  0.2514 -0.0329 -0.2321
22248SOL    HW268186   5.542   5.413   0.965  0.1528 -1.1055 -0.0624
22249SOL     OW68187   7.156   3.263   0.238 -0.1499  0.0987  0.1744
22249SOL    HW168188   7.072   3.289   0.276  0.6536  0.2822  1.9180
22249SOL    HW268189   7.156   3.168   0.241  0.1490  0.1197  1.2568
22250SOL     OW68190   6.453   5.756   0.223  0.0173  0.5844 -0.3060
22250SOL    HW168191   6.507   5.822   0.179  2.0175 -0.5637  0.2616
22250SOL    HW268192   6.514   5.683   0.240 -1.9081 -1.0941 -0.2215
22251SOL     OW68193   5.778   1.820  11.355  0.0592 -0.0738 -0.0407
22251SOL    HW168194   5.728   1.745  11.324 -1.5253  0.6375  0.6687
22251SOL    HW268195   5.775   1.882  11.282 -1.7462  0.6935  0.6016
22252SOL     OW68196   6.989   6.934   3.392 -0.5359 -0.4849  0.4025
22252SOL    HW168197   6.955   6.887   3.317 -1.8945  0.8163  0.1534
22252SOL    HW268198   7.076   6.962   3.365  0.6935 -3.4586  0.8747
22253SOL     OW68199   1.302   0.776   9.860  0.3341  0.3164 -0.6932
22253SOL    HW168200   1.210   0.762   9.880  0.7313  0.7316  1.7022
22253SOL    HW268201   1.305   0.780   9.764 -2.1652  0.5863 -0.8356
22254SOL     OW68202   1.014   6.224   0.542 -0.2747 -0.2249  0.4979
22254SOL    HW168203   0.981   6.192   0.458 -0.0560 -0.9526  0.6779
22254SOL    HW268204   1.069   6.152   0.575  3.5655  1.7587 -0.9053
22255SOL     OW68205   6.693   5.518   9.730 -0.1412  0.7029 -0.0365
22255SOL    HW168206   6.673   5.603   9.691 -0.8299  0.9968  0.9005
22255SOL    HW268207   6.720   5.539   9.819  0.9355  0.0221 -0.1919
22256SOL     OW68208   6.025   3.858   7.365 -0.0965 -0.4597  0.1432
22256SOL    HW168209   5.965   3.921   7.405  0.9806  1.9963 -1.8201
22256SOL    HW268210   5.969   3.804   7.310 -0.8473  0.0743  0.3617
22257SOL     OW68211   0.237   0.823   3.142  0.1094 -0.1706 -0.4994
22257SOL    HW168212   0.261   0.737   3.107  0.2648  0.5036 -2.1649
22257SOL    HW268213   0.159   0.807   3.195 -0.1776 -1.2656 -1.2296
22258SOL     OW68214   1.587   3.865  10.018 -0.0602 -1.0163  0.2806
22258SOL    HW168215   1.643   3.793   9.989  0.1959 -1.8708  2.6730
22258SOL    HW268216   1.498   3.829  10.013 -0.0322 -1.0937  0.3307
22259SOL     OW68217   0.498   1.216   8.159  0.0766  0.2629 -0.1336
22259SOL    HW168218   0.409   1.235   8.128 -0.0153 -0.6880 -0.5087
22259SOL    HW268219   0.490   1.215   8.254 -0.1518  0.9065 -0.1399
22260SOL     OW68220   6.666   7.531  12.340  0.5698 -0.3237 -0.7558
22260SOL    HW168221   6.588   7.500  12.294  0.5973 -0.5684 -0.6358
22260SOL    HW268222   6.722   7.566  12.270 -0.7217  2.2499 -0.6275
22261SOL     OW68223   5.120   3.693   5.069 -0.1669  0.3944 -0.0409
22261SOL    HW168224   5.044   3.636   5.082  0.3889 -0.6605 -1.2109
22261SOL    HW268225   5.082   3.777   5.043 -0.9579 -0.7180 -2.8726
22262SOL     OW68226   1.523   2.484   0.027 -0.0344 -0.2816  0.0758
22262SOL    HW168227   1.563   2.566   0.055 -0.5613  0.2274 -0.6480
22262SOL    HW268228   1.552   2.472  -0.063  0.1398 -0.9627  0.2138
22263SOL     OW68229   4.860   4.798   9.263 -0.3193 -0.6358 -0.0199
22263SOL    HW168230   4.765   4.789   9.253 -0.3768  1.0874 -1.5334
22263SOL    HW268231   4.874   4.892   9.272  1.3012 -0.8107 -0.4283
22264SOL     OW68232   6.552   0.243   0.654 -0.2928 -0.6792  0.2394
22264SOL    HW168233   6.596   0.304   0.714  2.2361 -2.1456  0.0322
22264SOL    HW268234   6.460   0.250   0.676 -0.0966  2.8801  0.4844
22265SOL     OW68235   5.174   2.312   6.789 -0.2643 -0.2207  0.1386
22265SOL    HW168236   5.264   2.289   6.810  0.4724  2.0263 -0.2959
22265SOL    HW268237   5.172   2.316   6.693 -0.7286  0.1153  0.1591
22266SOL     OW68238   4.158   6.036   1.010 -0.9233 -0.1430  0.0114
22266SOL    HW168239   4.249   6.019   1.035 -1.1063 -0.6770  0.3240
22266SOL    HW268240   4.113   6.048   1.094 -0.8584  1.6705 -0.1708
22267SOL     OW68241   7.652   4.156   5.188 -0.3117 -0.3429  0.0874
22267SOL    HW168242   7.657   4.078   5.132  1.1111  0.2542 -0.6519
22267SOL    HW268243   7.635   4.121   5.275 -1.3684 -1.3722 -0.4932
22268SOL     OW68244   1.612   5.851   9.978  0.2440 -0.1758  0.3734
22268SOL    HW168245   1.534   5.797   9.971 -0.0433  0.0282  1.7473
22268SOL    HW268246   1.588   5.934   9.937 -0.9060  0.5302  2.3396
22269SOL     OW68247   5.407   1.928   4.846  0.5492 -0.5451 -0.4113
22269SOL    HW168248   5.331   1.888   4.888 -0.7308  2.3086  0.2295
22269SOL    HW268249   5.476   1.923   4.913  1.1569 -3.4434 -1.1134
22270SOL     OW68250   2.252   2.839   6.603  0.3848  0.1685  0.6527
22270SOL    HW168251   2.224   2.768   6.661  0.2998 -0.3644 -0.0163
22270SOL    HW268252   2.301   2.794   6.534 -0.4429  0.6442 -0.2699
22271SOL     OW68253   5.056   5.573   4.801  0.3273 -0.3203 -0.2536
22271SOL    HW168254   5.039   5.572   4.895 -0.5208  0.4808 -0.3732
22271SOL    HW268255   5.060   5.666   4.779 -2.1772 -0.3964 -1.4190
22272SOL     OW68256   2.241   5.888   0.970 -0.3897  0.8691  0.4067
22272SOL    HW168257   2.277   5.800   0.979 -0.8713  0.6900  0.6599
22272SOL    HW268258   2.220   5.914   1.059  0.3508  1.5061  0.3972
22273SOL     OW68259   2.715   7.571   3.653 -0.0437  0.2639  0.1315
22273SOL    HW168260   2.655   7.622   3.707 -0.4461  0.9269 -0.9080
22273SOL    HW268261   2.757   7.510   3.714 -2.7914 -1.2208  0.7259
22274SOL     OW68262   5.794   5.866   5.342  0.1736 -0.9531 -0.1818
22274SOL    HW168263   5.701   5.884   5.359  0.2589 -0.5061 -0.1633
22274SOL    HW268264   5.806   5.885   5.249  0.1530 -1.4265 -0.2814
22275SOL     OW68265   1.174   3.142   0.197  0.1221  0.6266 -0.4897
22275SOL    HW168266   1.102   3.160   0.257 -0.7623 -0.7101 -1.0969
22275SOL    HW268267   1.172   3.216   0.135 -0.2521  0.9697 -0.0769
22276SOL     OW68268   0.209   4.660   8.778 -0.2032  0.4980 -0.2623
22276SOL    HW168269   0.207   4.731   8.841  1.3641 -0.6474  1.1582
22276SOL    HW268270   0.164   4.588   8.821 -0.5072  0.1686 -1.1058
22277SOL     OW68271   0.363   5.716  11.424  0.2926  0.0402  0.5686
22277SOL    HW168272   0.283   5.761  11.449  0.6947 -0.2338  2.4547
22277SOL    HW268273   0.340   5.623  11.429  0.9375 -0.0624  1.9577
22278SOL     OW68274   1.795   2.781   8.554  0.2675  0.4163 -0.6451
22278SOL    HW168275   1.879   2.748   8.584 -1.2882 -4.8188 -1.0918
22278SOL    HW268276   1.742   2.790   8.634 -0.0671 -0.8416 -0.7133
22279SOL     OW68277   3.360   2.949  11.435  0.2407 -0.1862 -0.6697
22279SOL    HW168278   3.382   3.039  11.461  0.6196 -0.7324  1.0619
22279SOL    HW268279   3.279   2.958  11.385  0.1598  1.1106 -0.3643
22280SOL     OW68280   5.996   7.270   6.590  0.3461  0.0225 -0.0928
22280SOL    HW168281   5.980   7.300   6.679  0.3936 -0.4627  0.0839
22280SOL    HW268282   6.014   7.176   6.599 -0.0698 -0.1187 -0.6575
22281SOL     OW68283   5.380   0.810   4.176  0.3141 -0.3647  0.0256
22281SOL    HW168284   5.444   0.841   4.240  1.6830  0.1119 -1.5150
22281SOL    HW268285   5.428   0.746   4.124 -0.4609 -0.0088 -1.1558
22282SOL     OW68286   0.481   6.075   5.074  0.8054 -0.1513  0.0617
22282SOL    HW168287   0.451   6.130   5.146  2.5623 -0.3064  0.9778
22282SOL    HW268288   0.448   5.988   5.096  1.1915 -0.1660  0.6194
22283SOL     OW68289   4.504   3.800   8.760 -0.1502  0.0698  0.0262
22283SOL    HW168290   4.426   3.761   8.719  0.4590 -1.4536  0.2672
22283SOL    HW268291   4.474   3.885   8.791 -1.6214 -0.3221 -0.2365
22284SOL     OW68292   2.677   6.479   4.782 -0.2127  0.1596  0.2731
22284SOL    HW168293   2.617   6.405   4.774 -2.1009  1.5753  0.6036
22284SOL    HW268294   2.716   6.488   4.695 -2.0494  0.4070 -0.5923
22285SOL     OW68295   5.657   7.659   8.528  0.2296  0.6230  0.7047
22285SOL    HW168296   5.599   7.599   8.480  0.5928  0.5499  0.3571
22285SOL    HW268297   5.637   7.642   8.621  1.1290 -0.8511  0.6620
22286SOL     OW68298   6.718   1.758   4.780 -0.2381 -0.6327 -0.4062
22286SOL    HW168299   6.775   1.833   4.792  0.1148 -0.5567 -2.2330
22286SOL    HW268300   6.642   1.776   4.834  0.3080  0.5223 -0.0009
22287SOL     OW68301   0.899   7.505   0.222  0.0517 -0.0718 -0.0839
22287SOL    HW168302   0.890   7.437   0.289 -0.6045  0.3221  0.2356
22287SOL    HW268303   0.908   7.586   0.272  0.0223  0.1721 -0.4728
22288SOL     OW68304   1.433   6.159   2.197 -0.2442 -0.0329  0.2058
22288SOL    HW168305   1.351   6.153   2.150  0.6186 -0.0150 -1.3618
22288SOL    HW268306   1.457   6.069   2.217 -0.6368 -0.0367  0.6743
22289SOL     OW68307   4.563   5.268  11.183  0.8270  0.0689 -0.6140
22289SOL    HW168308   4.593   5.322  11.110  1.0695 -1.3937 -1.6479
22289SOL    HW268309   4.474   5.242  11.159  0.4115  0.6483  0.2546
22290SOL     OW68310   2.707   1.638   4.608  0.2049  0.2041 -0.0147
22290SOL    HW168311   2.649   1.706   4.643 -2.4072 -2.6580  1.6618
22290SOL    HW268312   2.649   1.566   4.583  2.7939 -1.4463 -1.8882
22291SOL     OW68313   7.342   4.564   9.649  0.3607 -0.1668  0.8602
22291SOL    HW168314   7.356   4.643   9.700 -0.7317 -1.2241  2.9177
22291SOL    HW268315   7.285   4.591   9.577  0.8883  1.1087  0.8934
22292SOL     OW68316   3.796   3.685   7.310  0.2999 -0.3615  0.0325
22292SOL    HW168317   3.701   3.677   7.320 -0.0515  0.2425 -2.2972
22292SOL    HW268318   3.825   3.730   7.390 -1.7595  1.8667 -0.3532
22293SOL     OW68319   0.039   3.505   3.911  0.1453  0.2587 -0.0472
22293SOL    HW168320  -0.005   3.544   3.987 -1.1409  0.4975 -0.8876
22293SOL    HW268321   0.096   3.575   3.878  0.1058  0.4245  0.2340
22294SOL     OW68322   3.477   2.829  10.429 -0.3467  0.4127 -0.3167
22294SOL    HW168323   3.496   2.743  10.392  1.0576  0.0053  1.2382
22294SOL    HW268324   3.455   2.883  10.353  0.8135 -0.7812 -1.5727
22295SOL     OW68325   3.592   7.754   3.001 -0.4114 -0.2259  0.8653
22295SOL    HW168326   3.672   7.708   3.029  0.4365  0.1342 -0.8433
22295SOL    HW268327   3.614   7.789   2.915 -2.6184 -0.5665  0.1113
22296SOL     OW68328   1.269   5.643   8.743 -0.0409 -0.1125  0.0235
22296SOL    HW168329   1.246   5.582   8.813 -0.8400  0.4966  0.3046
22296SOL    HW268330   1.221   5.612   8.666 -0.1994 -0.0213  0.0856
22297SOL     OW68331   5.067   3.041   0.075 -0.5571 -0.1390  0.1436
22297SOL    HW168332   5.077   3.117   0.017 -0.2131 -0.2563  0.0451
22297SOL    HW268333   5.133   2.979   0.044 -0.0722 -0.0323  0.9420
22298SOL     OW68334   6.809   7.312   8.905  0.9306 -0.3435 -0.2480
22298SOL    HW168335   6.905   7.315   8.903  1.0154 -1.4449  1.2234
22298SOL    HW268336   6.784   7.337   8.816  2.4660  2.7846  0.0301
22299SOL     OW68337   1.872   7.314  10.473  0.4815 -0.5641 -0.1937
22299SOL    HW168338   1.794   7.267  10.503  0.9973 -0.8966  0.6872
22299SOL    HW268339   1.934   7.244  10.451  1.5959 -0.3727  2.0208
22300SOL     OW68340   6.159   1.411   9.926  0.2112  0.3215 -0.1784
22300SOL    HW168341   6.163   1.501   9.959 -2.7149 -0.5952  3.4191
22300SOL    HW268342   6.095   1.415   9.854  0.7988  1.2142 -0.6689
22301SOL     OW68343   5.288   2.762   0.664  0.5975 -0.4765 -0.0771
22301SOL    HW168344   5.343   2.687   0.688 -1.2745 -1.3846  1.6643
22301SOL    HW268345   5.222   2.726   0.606  0.1018 -0.0264  0.1959
22302SOL     OW68346   4.407   0.421   0.909 -0.1743  0.5465 -0.0427
22302SOL    HW168347   4.475   0.390   0.849 -1.5987 -1.1060 -0.8921
22302SOL    HW268348   4.359   0.487   0.858 -0.1226  0.6342  0.0220
22303SOL     OW68349   5.103   3.191  11.108 -0.2782  0.5822 -0.1781
22303SOL    HW168350   5.030   3.246  11.079  0.7268  1.1964 -1.6802
22303SOL    HW268351   5.061   3.112  11.142 -1.6601  1.1922 -0.3718
22304SOL     OW68352   3.828   2.743   7.075 -0.2570  0.1849  0.5634
22304SOL    HW168353   3.805   2.758   6.983 -0.0315 -0.7134  0.3460
22304SOL    HW268354   3.818   2.829   7.116 -1.2147  0.4206 -0.1111
22305SOL     OW68355   0.705   2.139   5.621  0.2270 -0.4343  0.2796
22305SOL    HW168356   0.766   2.203   5.656  0.7143 -0.7412  0.0045
22305SOL    HW268357   0.662   2.183   5.548  1.4640 -0.8184 -0.7136
22306SOL     OW68358   6.107   2.164   8.460  0.3132 -0.6928  0.5338
22306SOL    HW168359   6.200   2.162   8.438  0.1452 -0.3443 -0.2786
22306SOL    HW268360   6.104   2.171   8.555  1.1538  0.9695  0.4839
22307SOL     OW68361   1.636   3.491   0.393 -0.5989  0.0045  0.1832
22307SOL    HW168362   1.724   3.482   0.429 -1.1096  0.0356  1.5082
22307SOL    HW268363   1.643   3.561   0.329  0.5537 -0.6968 -0.4926
22308SOL     OW68364   1.648   7.759  12.145  0.2872  0.4477 -0.3550
22308SOL    HW168365   1.669   7.763  12.239  2.1870 -0.4248 -0.6930
22308SOL    HW268366   1.649   7.666  12.124 -0.8666  0.5874 -1.1105
22309SOL     OW68367   4.039   2.757   1.834  0.0585 -0.3944  0.3636
22309SOL    HW168368   4.072   2.714   1.756 -1.9619 -1.6309  0.1071
22309SOL    HW268369   3.973   2.697   1.869 -3.0006  2.3722 -0.0461
22310SOL     OW68370   0.611   3.529   9.431  0.3773 -0.0472 -0.3846
22310SOL    HW168371   0.703   3.504   9.430  0.6168  0.8013 -0.4296
22310SOL    HW268372   0.601   3.581   9.511  0.4196  1.5637 -1.3986
22311SOL     OW68373   7.723   4.388   0.296 -0.1520  0.0851  0.4195
22311SOL    HW168374   7.697   4.386   0.204  0.6762 -1.0215  0.1836
22311SOL    HW268375   7.818   4.399   0.293 -0.2275  1.0778  1.1823
22312SOL     OW68376   4.966   2.067   2.933 -0.0133  0.5079  0.0185
22312SOL    HW168377   4.956   1.972   2.943  1.0224  0.3211 -0.5830
22312SOL    HW268378   5.027   2.092   3.002 -0.1165  0.7036  0.0395
22313SOL     OW68379   0.913   1.074   8.764 -0.0725 -0.1813 -0.3071
22313SOL    HW168380   0.969   1.112   8.831  1.4697 -1.4704 -0.8007
22313SOL    HW268381   0.826   1.072   8.804  0.9116 -1.5780  1.9949
22314SOL     OW68382   6.369   3.746   3.585 -0.2248  0.3351  0.0927
22314SOL    HW168383   6.343   3.764   3.495 -1.6357 -0.9003  0.2122
22314SOL    HW268384   6.288   3.755   3.635  0.9375  3.3187  1.6672
22315SOL     OW68385   4.440   1.281   9.403  0.1348 -0.4466  0.2622
22315SOL    HW168386   4.533   1.298   9.386  0.1815  0.2634  1.1543
22315SOL    HW268387   4.425   1.193   9.369  1.0445 -0.4228 -0.2242
22316SOL     OW68388   2.968   6.812   4.076  0.0527  0.3489  0.5168
22316SOL    HW168389   2.941   6.894   4.034  1.0039  1.0118  1.1559
22316SOL    HW268390   2.942   6.744   4.014 -0.1984  1.1776 -0.3132
22317SOL     OW68391   5.864   0.635   3.910  0.0500 -0.5910  0.0637
22317SOL    HW168392   5.954   0.641   3.942 -0.2648 -1.6236  1.2301
22317SOL    HW268393   5.843   0.542   3.917 -1.1470 -0.3387 -0.0860
22318SOL     OW68394   2.511   4.631  12.007 -0.2790  0.1557  0.4283
22318SOL    HW168395   2.503   4.700  12.073  0.5585 -1.7807  2.7050
22318SOL    HW268396   2.595   4.648  11.966 -0.7969  1.3814 -0.1716
22319SOL     OW68397   5.623   2.620  12.288  0.1213  0.9995 -0.0460
22319SOL    HW168398   5.682   2.615  12.213 -0.9914 -1.9270 -0.8763
22319SOL    HW268399   5.679   2.608  12.364  1.0592  2.4341 -0.4644
22320SOL     OW68400   6.558   1.572   6.678  0.0510  0.1163 -0.3336
22320SOL    HW168401   6.579   1.665   6.683  0.9907 -0.0810 -0.3795
22320SOL    HW268402   6.505   1.564   6.598 -0.2522  0.6455 -0.1892
22321SOL     OW68403   2.640   2.337   3.621  0.6489  0.0567 -0.1107
22321SOL    HW168404   2.638   2.399   3.548 -0.3144  1.0389  0.7235
22321SOL    HW268405   2.729   2.343   3.655  0.3859  1.5237  0.3892
22322SOL     OW68406   6.731   6.056   4.181 -0.1977  0.2535 -0.4457
22322SOL    HW168407   6.708   6.018   4.265  1.3170  1.5025  0.5914
22322SOL    HW268408   6.676   6.009   4.117 -1.9274 -0.2002  1.2867
22323SOL     OW68409   4.202   7.733  10.740  0.4529 -0.3616  0.6335
22323SOL    HW168410   4.211   7.821  10.778  1.9955 -0.8116  1.4022
22323SOL    HW268411   4.121   7.737  10.689 -0.8040  0.7931  2.5956
22324SOL     OW68412   0.292   2.322   9.807  0.0653 -0.3317  0.4898
22324SOL    HW168413   0.342   2.273   9.872  0.4893  0.4780  0.7906
22324SOL    HW268414   0.342   2.313   9.726 -0.5247 -1.4394  0.2295
22325SOL     OW68415   1.875   0.585   7.316 -0.1011 -0.2780 -0.4322
22325SOL    HW168416   1.936   0.524   7.356 -1.2492 -0.8850  0.4572
22325SOL    HW268417   1.799   0.531   7.294 -1.4217  0.9162  0.9794
22326SOL     OW68418   5.765   2.747   0.165  0.0647  0.1988 -0.3241
22326SOL    HW168419   5.816   2.710   0.093  0.0361 -0.8681  0.1812
22326SOL    HW268420   5.677   2.713   0.152  0.3310 -1.0332  0.8872
22327SOL     OW68421   0.329   2.208  11.776  0.3214 -0.3688  0.6450
22327SOL    HW168422   0.402   2.149  11.795  1.3737  1.0760  1.2632
22327SOL    HW268423   0.290   2.226  11.862  0.0079 -0.1688  0.4628
22328SOL     OW68424   2.399   4.567   0.940  0.4293 -0.2007 -0.2068
22328SOL    HW168425   2.453   4.500   0.898  0.6590 -0.8898  1.1364
22328SOL    HW268426   2.350   4.607   0.868  0.7460 -1.3848 -1.1113
22329SOL     OW68427   2.387   3.762   8.057 -0.5591  0.3336 -0.2924
22329SOL    HW168428   2.368   3.821   8.131 -2.4062  1.1378 -1.3308
22329SOL    HW268429   2.444   3.813   8.000 -2.9725  1.6639 -1.6974
22330SOL     OW68430   0.097   1.171  11.783 -0.1305 -0.3297 -0.7582
22330SOL    HW168431   0.173   1.128  11.742  0.3842  0.2498 -0.4305
22330SOL    HW268432   0.117   1.170  11.876  0.0782  0.9643 -0.7778
22331SOL     OW68433   1.590   6.889   1.519  0.9125  0.0056 -0.2765
22331SOL    HW168434   1.542   6.909   1.439  0.3475 -0.5178 -0.0783
22331SOL    HW268435   1.525   6.899   1.589  1.2671 -0.0341  0.0632
22332SOL     OW68436   6.433   5.581   7.696  0.2004 -0.1965 -0.2140
22332SOL    HW168437   6.493   5.598   7.769  1.9742  0.2712 -1.7051
22332SOL    HW268438   6.445   5.488   7.677 -0.9928 -0.5543  0.6718
22333SOL     OW68439   2.604   5.466   6.105  0.0162 -0.0761  0.3120
22333SOL    HW168440   2.532   5.421   6.060  1.3010 -1.2255 -0.7105
22333SOL    HW268441   2.600   5.556   6.072 -0.8928 -0.1411  0.2081
22334SOL     OW68442   1.567   4.543   8.290  0.4063  0.0893 -0.5155
22334SOL    HW168443   1.653   4.572   8.261  0.3825  0.2286 -0.4462
22334SOL    HW268444   1.520   4.624   8.312  0.8617 -0.0642  1.1820
22335SOL     OW68445   0.360   2.443  10.139 -0.1509 -0.0311 -0.0084
22335SOL    HW168446   0.308   2.363  10.141  0.1478 -0.2425  2.2282
22335SOL    HW268447   0.303   2.510  10.178  0.1960  0.4294 -0.2781
22336SOL     OW68448   4.548   2.316   1.204  0.4923 -0.7276  0.2099
22336SOL    HW168449   4.617   2.349   1.262  1.1978  0.7535 -1.3997
22336SOL    HW268450   4.567   2.222   1.196  1.5453 -0.5841  0.8012
22337SOL     OW68451   4.501   2.979   2.924  0.1307 -0.0719 -0.0767
22337SOL    HW168452   4.464   2.893   2.942 -1.1616  0.4349 -0.2031
22337SOL    HW268453   4.555   2.998   3.000 -1.2502 -0.1180  0.9638
22338SOL     OW68454   3.553   3.627   0.553  0.3172  0.7021  0.2184
22338SOL    HW168455   3.526   3.657   0.640  0.2669  0.5942  0.2403
22338SOL    HW268456   3.633   3.676   0.535  0.8290  0.0763  0.7088
22339SOL     OW68457   5.717   2.208   0.755 -0.5174 -0.1041 -0.2569
22339SOL    HW168458   5.761   2.166   0.828 -0.6004 -1.0695 -0.7493
22339SOL    HW268459   5.732   2.302   0.768 -0.0971 -0.3018  0.7057
22340SOL     OW68460   7.667   5.571   2.372  0.0871  0.4072  0.8583
22340SOL    HW168461   7.649   5.558   2.279 -1.6142  1.5490  0.9776
22340SOL    HW268462   7.716   5.493   2.398 -2.4197 -1.6959 -0.2497
22341SOL     OW68463   3.074   5.310   3.432  0.3595 -0.7565  0.1850
22341SOL    HW168464   3.160   5.341   3.459  0.6521 -0.6836 -0.7937
22341SOL    HW268465   3.087   5.217   3.413  0.1017 -0.8657  0.5418
22342SOL     OW68466   4.004   6.418   3.928 -0.0232 -0.2478  0.2209
22342SOL    HW168467   4.033   6.327   3.919 -0.2479 -0.2491 -0.5321
22342SOL    HW268468   3.950   6.434   3.851 -0.1107  0.4824  0.4256
22343SOL     OW68469   3.884   2.356   1.499 -0.8348  0.3671 -0.2263
22343SOL    HW168470   3.889   2.272   1.455  0.1985  0.5374 -0.4506
22343SOL    HW268471   3.831   2.339   1.577 -0.0995 -0.6348  0.0739
22344SOL     OW68472   6.164   5.676  11.630 -0.2621 -0.5453  0.1101
22344SOL    HW168473   6.129   5.758  11.663  0.8378  0.1671 -0.4097
22344SOL    HW268474   6.214   5.640  11.703  0.5625  0.0554 -0.1433
22345SOL     OW68475   4.749   4.225   1.668  0.8021 -0.5389  0.1204
22345SOL    HW168476   4.763   4.145   1.617  1.0185  0.1996 -1.0197
22345SOL    HW268477   4.673   4.205   1.723 -1.0745 -0.5594 -2.3069
22346SOL     OW68478   7.694   7.721   5.479 -0.4963  0.2155  0.1286
22346SOL    HW168479   7.750   7.782   5.528 -0.4737  1.1141 -0.9665
22346SOL    HW268480   7.671   7.769   5.399 -1.3460 -0.8320 -0.2780
22347SOL     OW68481   6.613   4.203   9.330 -0.1566 -0.4166  0.1727
22347SOL    HW168482   6.675   4.169   9.265 -0.7446 -0.0103 -0.6210
22347SOL    HW268483   6.532   4.218   9.280 -2.0357 -4.0549  1.7714
22348SOL     OW68484   1.696   3.021   6.635 -0.1828 -0.2153  0.4521
22348SOL    HW168485   1.672   2.960   6.705 -2.5667  0.3277  0.1941
22348SOL    HW268486   1.622   3.019   6.574  0.8758  0.9253 -0.9556
22349SOL     OW68487   5.566   2.916   6.612  0.0834  0.3091 -0.0435
22349SOL    HW168488   5.543   2.974   6.685  2.1307 -0.1119  1.0176
22349SOL    HW268489   5.526   2.832   6.634 -2.6812  1.1433 -1.4624
22350SOL     OW68490   6.424   1.661   0.496 -0.2151  0.3625 -0.1727
22350SOL    HW168491   6.361   1.726   0.467  0.0511  0.7306  0.0710
22350SOL    HW268492   6.384   1.577   0.474  1.1182  0.5849 -4.1440
22351SOL     OW68493   0.285   1.148  10.287  0.0547 -0.2831  0.4732
22351SOL    HW168494   0.365   1.105  10.256  0.8822  0.6109  1.3061
22351SOL    HW268495   0.237   1.078  10.331  0.4418 -0.7987  0.0986
22352SOL     OW68496   3.413   0.588  10.061  0.3305  0.3486 -0.3678
22352SOL    HW168497   3.402   0.625  10.149 -0.5086 -0.2989 -0.1853
22352SOL    HW268498   3.391   0.495  10.071  1.8117 -0.0899 -0.9421
22353SOL     OW68499   3.375   3.608   2.355 -0.1257 -0.4869  0.8570
22353SOL    HW168500   3.456   3.587   2.308 -0.8007  0.0835 -0.6093
22353SOL    HW268501   3.400   3.679   2.415  0.6511 -0.9478  1.1088
22354SOL     OW68502   5.779   5.335   2.586 -0.1047  0.5954 -0.0908
22354SOL    HW168503   5.728   5.284   2.523  0.1190 -2.0213  1.6747
22354SOL    HW268504   5.713   5.378   2.641 -0.3177  1.2588 -0.8580
22355SOL     OW68505   2.775   0.649   0.855  0.3257 -0.0526  0.0556
22355SOL    HW168506   2.684   0.639   0.828  0.1817 -0.8203  0.7978
22355SOL    HW268507   2.797   0.567   0.899  1.3959  0.1014 -0.1483
22356SOL     OW68508   2.917   5.973   6.278 -0.1678  0.2436  0.3566
22356SOL    HW168509   2.953   6.060   6.260  1.4577 -0.2438  1.0874
22356SOL    HW268510   2.908   5.970   6.373  2.6382 -1.3926  0.6654
22357SOL     OW68511   2.137   5.217  10.079  0.0642 -0.4004  0.2266
22357SOL    HW168512   2.105   5.130  10.056  2.6829 -1.1297 -1.0924
22357SOL    HW268513   2.169   5.254   9.996 -2.1767  2.4806  0.4537
22358SOL     OW68514   2.027   0.194   8.024  0.0060 -0.1108  0.1379
22358SOL    HW168515   1.965   0.181   8.096  0.2836 -1.5963  0.1396
22358SOL    HW268516   1.973   0.217   7.949 -0.2672  1.8540  0.8571
22359SOL     OW68517   7.226   1.120  10.397  0.4028 -0.2725  0.0814
22359SOL    HW168518   7.308   1.091  10.358  0.8462 -0.3980  1.0870
22359SOL    HW268519   7.250   1.152  10.484 -0.5865 -0.1381  0.3222
22360SOL     OW68520   0.036   2.017  10.851  0.0014 -0.1948  0.3935
22360SOL    HW168521   0.030   2.024  10.947 -1.6527  0.1838  0.2936
22360SOL    HW268522   0.098   2.085  10.827 -0.0342  0.1262  1.1592
22361SOL     OW68523   7.621   2.554   2.148 -0.4011  0.2615 -0.0286
22361SOL    HW168524   7.604   2.521   2.236 -0.3669 -1.5663 -0.6611
22361SOL    HW268525   7.686   2.623   2.160  1.4501 -1.5672  1.1922
22362SOL     OW68526   7.582   5.651   0.784 -0.2621 -0.5661 -0.5362
22362SOL    HW168527   7.563   5.613   0.870 -0.2289 -0.9662 -0.7054
22362SOL    HW268528   7.507   5.629   0.730  0.0226 -0.9059 -0.8011
22363SOL     OW68529   1.187   7.830  11.367 -0.0031  0.1985  0.1940
22363SOL    HW168530   1.115   7.836  11.429  0.0726  1.5055  0.1811
22363SOL    HW268531   1.146   7.809  11.284 -0.2828  0.1319  0.3489
22364SOL     OW68532   2.039   6.360   4.912 -0.4137  0.9986 -0.0851
22364SOL    HW168533   2.098   6.435   4.911  1.0863 -0.1199  0.4789
22364SOL    HW268534   2.005   6.354   4.823 -0.0148  1.9062 -0.3096
22365SOL     OW68535   0.216   7.955   5.602 -0.0503  0.5014  0.1645
22365SOL    HW168536   0.170   8.039   5.603 -1.2034 -0.0893 -0.4084
22365SOL    HW268537   0.157   7.897   5.554  1.8125 -0.0219 -1.6074
22366SOL     OW68538   5.323   2.748  10.834  0.6694 -0.1981  0.4276
22366SOL    HW168539   5.414   2.736  10.862  0.6635 -0.1739  0.4565
22366SOL    HW268540   5.319   2.839  10.803  0.8423 -0.4225 -0.2838
22367SOL     OW68541   5.507   1.987   5.424  0.6032 -0.2960 -0.2007
22367SOL    HW168542   5.546   1.907   5.390  1.3883 -0.0011 -0.0025
22367SOL    HW268543   5.573   2.023   5.484 -0.9860 -1.1901  2.2775
22368SOL     OW68544   5.637   7.933   8.479 -0.1182 -0.4639 -0.0490
22368SOL    HW168545   5.551   7.901   8.451 -0.6661 -0.5672  1.6480
22368SOL    HW268546   5.689   7.854   8.496 -0.0166 -0.4130 -0.1203
22369SOL     OW68547   5.879   4.997  11.797 -0.3125  0.2950  0.4230
22369SOL    HW168548   5.831   4.985  11.879 -1.4445  2.3214  0.1074
22369SOL    HW268549   5.886   4.908  11.761  0.3726 -0.6867  2.7345
22370SOL     OW68550   1.827   2.906   9.404 -0.4836 -0.2551 -0.3337
22370SOL    HW168551   1.888   2.836   9.425 -0.7215 -0.1948  0.5894
22370SOL    HW268552   1.811   2.950   9.488  0.7620  1.8100 -1.0964
22371SOL     OW68553   7.782   4.370   9.808  0.4544  0.4677 -0.0514
22371SOL    HW168554   7.687   4.364   9.812  0.5136 -0.2661  0.5446
22371SOL    HW268555   7.802   4.458   9.839  0.0028  0.3901  0.4751
22372SOL     OW68556   2.474   4.771   6.440  0.7183  0.2824 -0.6044
22372SOL    HW168557   2.473   4.814   6.526 -0.8621  0.3785 -0.6433
22372SOL    HW268558   2.525   4.829   6.385  1.6903  0.2588  0.2430
22373SOL     OW68559   4.106   7.188   3.389 -0.2730 -0.0598 -0.2545
22373SOL    HW168560   4.132   7.162   3.478 -0.5837  2.5900  0.7082
22373SOL    HW268561   4.063   7.273   3.401  0.1177  0.6149 -3.0121
22374SOL     OW68562   0.189   1.382  11.541 -0.1459 -0.1738 -0.7588
22374SOL    HW168563   0.158   1.447  11.605  2.6838  1.6350 -1.0477
22374SOL    HW268564   0.210   1.305  11.594  0.1103  0.5358  0.2099
22375SOL     OW68565   0.257   1.230   8.032  0.8502  1.0224  0.1580
22375SOL    HW168566   0.193   1.296   8.003 -0.9484  0.0857  1.7360
22375SOL    HW268567   0.279   1.182   7.952 -0.0575  1.7013 -0.5255
22376SOL     OW68568   7.669   4.945   2.646  0.0643  0.6363 -0.0904
22376SOL    HW168569   7.673   4.860   2.603 -0.9275 -0.6125  2.0884
22376SOL    HW268570   7.575   4.965   2.651  0.0113  0.0755  2.5258
22377SOL     OW68571   6.875   4.874   9.084  0.4709  0.1036 -0.3904
22377SOL    HW168572   6.791   4.892   9.127  1.5747  2.9408  0.8732
22377SOL    HW268573   6.852   4.855   8.993 -1.5726  0.1065  0.0791
22378SOL     OW68574   5.155   6.073   3.161 -0.1325  0.1895 -0.2466
22378SOL    HW168575   5.063   6.058   3.185 -0.0082  0.3913  0.3895
22378SOL    HW268576   5.177   6.001   3.103 -0.2274 -0.7715  0.8671
22379SOL     OW68577   6.385   7.301   0.020 -0.1225  0.3214  0.4138
22379SOL    HW168578   6.454   7.260   0.071 -0.3469  0.5687  0.9210
22379SOL    HW268579   6.312   7.310   0.081  0.3831  2.7794  0.7633
22380SOL     OW68580   0.637   6.288   2.199  0.4182 -0.1009  0.0741
22380SOL    HW168581   0.568   6.223   2.186 -0.3196  0.9289 -1.5128
22380SOL    HW268582   0.598   6.371   2.170  2.1331  0.6094 -0.3651
22381SOL     OW68583   1.514   0.919   3.027 -0.5935 -0.2407 -0.5055
22381SOL    HW168584   1.503   0.833   2.987 -0.8994  0.2331 -1.4518
22381SOL    HW268585   1.609   0.934   3.025 -0.5267 -0.6182 -0.1998
22382SOL     OW68586   5.375   7.885   3.159 -0.4977 -0.1528 -0.1024
22382SOL    HW168587   5.404   7.852   3.074 -1.0381  0.5112 -0.5564
22382SOL    HW268588   5.294   7.836   3.177 -1.7059  1.3712 -1.1220
22383SOL     OW68589   1.972   5.841   5.395 -0.0149  0.3387 -0.8289
22383SOL    HW168590   2.037   5.794   5.447  0.4571 -0.7924 -2.3599
22383SOL    HW268591   2.024   5.905   5.345 -0.4461  1.3329 -0.0472
22384SOL     OW68592   2.307   2.678  11.642 -0.2034 -0.3812 -0.0199
22384SOL    HW168593   2.306   2.595  11.689  0.1278  0.7135  2.0367
22384SOL    HW268594   2.353   2.659  11.560  2.1512 -1.6934  1.4928
22385SOL     OW68595   7.586   1.357  10.947 -0.2381  0.1784 -0.4276
22385SOL    HW168596   7.522   1.415  10.988  0.5856  2.2978 -1.9368
22385SOL    HW268597   7.668   1.376  10.991 -0.1272 -0.6214 -0.2634
22386SOL     OW68598   4.109   2.413   3.479 -0.0767 -0.5703 -0.0150
22386SOL    HW168599   4.104   2.378   3.568  0.5490 -1.7519 -0.4229
22386SOL    HW268600   4.068   2.346   3.424  0.1328 -0.1541 -0.6922
22387SOL     OW68601   5.433   6.214  11.989 -0.6204  0.6411 -0.2002
22387SOL    HW168602   5.371   6.259  11.931  0.2190  1.3369 -0.5816
22387SOL    HW268603   5.512   6.204  11.936  0.1080  1.1215  0.7627
22388SOL     OW68604   6.615   7.207   6.048 -0.4254 -0.3131 -0.1520
22388SOL    HW168605   6.599   7.283   5.993 -3.0886 -0.5939  0.1128
22388SOL    HW268606   6.578   7.133   5.999 -2.7268 -0.5924  1.8201
22389SOL     OW68607   0.744   6.022   0.520  0.2435 -0.3197 -0.5677
22389SOL    HW168608   0.667   6.050   0.471 -0.0687 -0.6727 -0.2837
22389SOL    HW268609   0.818   6.060   0.473 -0.2160  2.0598  0.5089
22390SOL     OW68610   4.302   4.087  10.800 -0.1740  0.0595 -0.0808
22390SOL    HW168611   4.239   4.151  10.832 -0.9633 -0.8444  0.2171
22390SOL    HW268612   4.387   4.118  10.833 -0.7829 -0.0799  1.7221
22391SOL     OW68613   3.946   6.428  11.333  0.2704 -0.0655 -0.3738
22391SOL    HW168614   3.940   6.340  11.371  1.7568 -1.0969 -2.3754
22391SOL    HW268615   3.863   6.470  11.358  0.1968 -1.4203  1.9881
22392SOL     OW68616   7.349   6.554   1.019 -0.3320 -0.2425  0.2954
22392SOL    HW168617   7.402   6.476   1.033 -1.5017 -1.3032 -0.8764
22392SOL    HW268618   7.266   6.521   0.983 -0.6207  1.5635 -0.8719
22393SOL     OW68619   5.689   7.182   2.149 -0.4112 -0.1215 -0.2118
22393SOL    HW168620   5.618   7.139   2.101 -0.7344 -0.3162  0.4333
22393SOL    HW268621   5.754   7.114   2.164  0.3873  0.2774 -1.6632
22394SOL     OW68622   3.220   0.673   7.377  0.2870  0.0386  0.1489
22394SOL    HW168623   3.125   0.686   7.374  0.2384 -0.0396  1.0237
22394SOL    HW268624   3.239   0.656   7.470  1.0890 -0.4672 -0.0961
22395SOL     OW68625   4.739   5.678   9.266 -0.5537 -0.4334  0.3342
22395SOL    HW168626   4.741   5.755   9.209  1.4379 -1.2167 -0.7281
22395SOL    HW268627   4.729   5.714   9.354 -1.7177  0.9053 -0.3067
22396SOL     OW68628   5.116   4.957   2.920 -0.3794 -0.2090 -0.3398
22396SOL    HW168629   5.133   4.911   2.837 -0.4750 -0.8170 -0.0264
22396SOL    HW268630   5.178   5.030   2.921 -0.1055 -0.4349 -0.7597
22397SOL     OW68631   2.857   0.875   7.302  0.0621  0.0242 -0.2443
22397SOL    HW168632   2.767   0.882   7.336  0.2146 -1.1959  0.4474
22397SOL    HW268633   2.873   0.781   7.297  0.8827  0.2075 -1.5356
22398SOL     OW68634   7.750   1.407   3.597  0.3711 -0.1017  0.0306
22398SOL    HW168635   7.798   1.488   3.581 -1.2686  1.1801  1.1987
22398SOL    HW268636   7.669   1.436   3.639 -0.3264 -2.3543  0.3450
22399SOL     OW68637   2.518   5.039   4.730  0.0288 -0.1769 -0.0053
22399SOL    HW168638   2.523   4.984   4.808  1.7557 -1.2643 -0.8223
22399SOL    HW268639   2.426   5.036   4.704 -0.5602  0.0853  1.8528
22400SOL     OW68640   0.601   2.288   0.073  0.2582 -0.2135  0.0859
22400SOL    HW168641   0.695   2.273   0.068  0.0630 -1.1361 -1.5494
22400SOL    HW268642   0.591   2.357   0.138  1.9388 -1.0484  1.2988
22401SOL     OW68643   2.860   1.170  12.140  0.0290  0.1489  0.6626
22401SOL    HW168644   2.951   1.199  12.138 -0.2757  1.1231  0.2557
22401SOL    HW268645   2.853   1.119  12.221  0.9818 -0.1238  0.5911
22402SOL     OW68646   0.461   6.033   8.483 -0.5657  0.1981 -0.2752
22402SOL    HW168647   0.510   5.952   8.475 -0.4116  0.2547  0.0829
22402SOL    HW268648   0.528   6.102   8.482 -0.5394  0.2270  1.2010
22403SOL     OW68649   2.139   2.551   5.838 -0.5034  0.2073 -0.1431
22403SOL    HW168650   2.095   2.624   5.881  0.3143  1.8794 -1.9839
22403SOL    HW268651   2.232   2.572   5.844 -0.2681 -0.5503 -0.9342
22404SOL     OW68652   3.257   5.243   8.642 -1.1605 -0.1295  0.1102
22404SOL    HW168653   3.315   5.261   8.568 -2.1757  2.3814 -0.1722
22404SOL    HW268654   3.309   5.187   8.700 -0.1091 -1.5920 -2.1377
22405SOL     OW68655   4.434   0.848   8.685  0.4937 -0.0826  0.3645
22405SOL    HW168656   4.491   0.773   8.701  1.1645  0.1732 -0.6926
22405SOL    HW268657   4.432   0.894   8.769 -0.0051 -1.3140  1.0520
22406SOL     OW68658   3.246   7.704  11.699 -0.0785  0.3859  0.1304
22406SOL    HW168659   3.153   7.711  11.675 -0.0907 -0.4495 -0.0889
22406SOL    HW268660   3.275   7.795  11.707 -0.5525  0.6672 -1.1821
22407SOL     OW68661   5.700   2.758   5.919  0.1367  0.7297 -0.5166
22407SOL    HW168662   5.755   2.683   5.900  1.3072  1.7376 -1.2089
22407SOL    HW268663   5.681   2.750   6.013 -1.1807 -1.3068 -0.8764
22408SOL     OW68664   2.222   2.022  12.058 -0.5749  0.1478  0.1864
22408SOL    HW168665   2.292   2.085  12.041 -0.0831 -0.1542  1.0610
22408SOL    HW268666   2.147   2.076  12.082 -0.1937  0.4065  0.7972
22409SOL     OW68667   3.578   3.080   1.495 -0.7574 -0.0400 -0.4864
22409SOL    HW168668   3.633   3.065   1.418 -1.0922 -0.2957 -0.6743
22409SOL    HW268669   3.641   3.096   1.566 -0.4410 -0.1925 -0.7284
22410SOL     OW68670   0.816   4.393   5.727  0.2761  0.4809  0.7514
22410SOL    HW168671   0.721   4.383   5.734  0.1964  0.7067  0.0657
22410SOL    HW268672   0.846   4.309   5.693 -0.0901  1.4903 -2.3824
22411SOL     OW68673   4.558   7.286  10.525 -0.3014 -0.7739  0.7570
22411SOL    HW168674   4.537   7.356  10.463 -0.5064  0.3133  2.0095
22411SOL    HW268675   4.598   7.331  10.599 -0.6832 -1.9693  1.7169
22412SOL     OW68676   4.314   0.511  11.165  0.0990  0.4206 -0.0161
22412SOL    HW168677   4.327   0.491  11.072  1.6594 -1.2528  0.5105
22412SOL    HW268678   4.226   0.480  11.184  0.1878 -0.2883 -0.6910
22413SOL     OW68679   4.639   5.774   0.446 -0.1229 -0.0246 -0.3729
22413SOL    HW168680   4.599   5.798   0.362  0.5584  0.4833 -0.5644
22413SOL    HW268681   4.590   5.697   0.475  0.8257 -1.3890 -2.1737
22414SOL     OW68682   2.949   7.178  10.914  0.0186 -0.0575 -0.0460
22414SOL    HW168683   3.020   7.114  10.914  0.0379 -0.0657  1.4473
22414SOL    HW268684   2.892   7.150  10.985 -0.5172  1.0005 -0.0469
22415SOL     OW68685   1.302   5.899   2.021  0.5262  0.0789 -0.1060
22415SOL    HW168686   1.208   5.910   2.011  0.4631  2.0062  1.8303
22415SOL    HW268687   1.341   5.957   1.956  0.3455  0.2857 -0.0313
22416SOL     OW68688   3.583   2.536   5.263  0.2980 -0.0379  0.2760
22416SOL    HW168689   3.641   2.496   5.199 -0.0314 -1.0632  0.5971
22416SOL    HW268690   3.628   2.616   5.290  0.9208 -0.1358 -0.4620
22417SOL     OW68691   4.687   0.705   1.123  0.5859 -0.2087  0.0935
22417SOL    HW168692   4.640   0.671   1.199 -0.3021  0.4170 -0.1650
22417SOL    HW268693   4.621   0.750   1.071  1.0099 -1.2644 -1.4637
22418SOL     OW68694   0.953   4.597   2.421 -0.1065  0.0855  0.0921
22418SOL    HW168695   1.029   4.656   2.416 -0.4662  0.7678  1.8868
22418SOL    HW268696   0.967   4.534   2.351 -0.3114  2.9957 -2.8404
22419SOL     OW68697   7.359   1.729   0.495  0.5935  0.0905  0.9405
22419SOL    HW168698   7.357   1.637   0.519 -0.3227 -0.2397 -0.3036
22419SOL    HW268699   7.293   1.738   0.427  1.0213  1.5687  0.6737
22420SOL     OW68700   2.838   3.813   1.233  0.2258  0.4311 -0.3221
22420SOL    HW168701   2.820   3.889   1.177  1.4108  1.2515  0.3479
22420SOL    HW268702   2.756   3.797   1.279 -0.3160  0.7078 -1.1593
22421SOL     OW68703   7.218   1.480   3.992 -0.3068  0.3074 -0.0569
22421SOL    HW168704   7.163   1.402   3.998  0.6175 -0.3122  0.8564
22421SOL    HW268705   7.264   1.471   3.909  0.8362 -0.8761  0.6674
22422SOL     OW68706   5.470   3.679   7.857 -0.1362 -0.1598 -0.0209
22422SOL    HW168707   5.418   3.696   7.936  1.8413 -0.7347  1.5041
22422SOL    HW268708   5.519   3.761   7.844  1.1097 -0.7690  0.6608
22423SOL     OW68709   6.150   1.783   7.968 -0.2958  0.0743  0.3166
22423SOL    HW168710   6.108   1.858   8.009 -2.5273 -0.2565 -1.1989
22423SOL    HW268711   6.166   1.812   7.878 -0.5417 -1.0295 -0.0870
22424SOL     OW68712   3.775   7.982   2.697 -0.2243  0.4051 -0.1676
22424SOL    HW168713   3.747   7.891   2.709 -2.1110  1.1563  2.0060
22424SOL    HW268714   3.852   7.991   2.752  1.4874 -0.4321 -2.3149
22425SOL     OW68715   2.763   7.953   1.530 -0.1873 -0.1122 -1.1398
22425SOL    HW168716   2.715   7.874   1.554 -1.6874  0.4633 -2.0781
22425SOL    HW268717   2.709   8.025   1.563  1.2740  0.5630 -0.0664
22426SOL     OW68718   0.663   4.434   2.687  0.1822  0.2850  0.1374
22426SOL    HW168719   0.618   4.361   2.730  3.4650 -1.4261  1.0322
22426SOL    HW268720   0.661   4.413   2.594  0.1227 -0.3875  0.2846
22427SOL     OW68721   6.893   5.349   2.770  0.1455  0.1498  0.0752
22427SOL    HW168722   6.848   5.380   2.848  0.6406 -1.8947  1.2254
22427SOL    HW268723   6.984   5.337   2.798  0.7027  0.9516 -1.2797
22428SOL     OW68724   0.676   7.327   4.664 -0.1355 -0.0660  0.6152
22428SOL    HW168725   0.705   7.314   4.754 -1.3578  0.7329  1.1467
22428SOL    HW268726   0.757   7.324   4.612  0.4568 -1.8210  1.5539
22429SOL     OW68727   7.615   6.580   9.005  0.6728  0.3266  0.0782
22429SOL    HW168728   7.567   6.584   8.922 -0.3267 -0.8561  0.5462
22429SOL    HW268729   7.672   6.504   8.995  2.0064  1.3469 -0.2300
22430SOL     OW68730   1.461   4.192   1.407  0.1799 -0.5456 -0.0931
22430SOL    HW168731   1.482   4.194   1.314 -1.0909  0.3955 -0.3835
22430SOL    HW268732   1.375   4.233   1.414  0.1746 -0.7357  1.4847
22431SOL     OW68733   3.018   6.659   4.300  0.0182  0.2506 -0.7965
22431SOL    HW168734   2.992   6.701   4.382  0.3115  0.3161 -0.7336
22431SOL    HW268735   3.029   6.732   4.239  2.3439  0.4993 -0.2006
22432SOL     OW68736   1.716   6.261   0.081  0.2675 -0.0169  0.1893
22432SOL    HW168737   1.698   6.184   0.135  1.0673 -0.9084 -0.7639
22432SOL    HW268738   1.810   6.275   0.090 -0.0747  1.7627  1.4867
22433SOL     OW68739   1.821   1.954   6.392 -0.0384 -0.2569 -0.1933
22433SOL    HW168740   1.846   1.925   6.480  1.6481  5.1398  1.5236
22433SOL    HW268741   1.732   1.989   6.403  0.3559  0.8618 -0.4142
22434SOL     OW68742   5.705   3.822   4.198 -1.2309 -0.0637 -0.0584
22434SOL    HW168743   5.666   3.910   4.197 -1.6540 -0.2354  0.5867
22434SOL    HW268744   5.750   3.815   4.114 -1.4825  0.6429 -0.2613
22435SOL     OW68745   7.717   7.757   7.299  0.1493  0.6530  0.4163
22435SOL    HW168746   7.752   7.816   7.365 -0.5601  0.9324  0.5523
22435SOL    HW268747   7.730   7.669   7.335 -1.6341  0.8437  1.6640
22436SOL     OW68748   4.701   3.905   2.207  0.4779  0.4803 -0.0786
22436SOL    HW168749   4.675   3.815   2.189  1.4602  0.0586  0.5817
22436SOL    HW268750   4.794   3.908   2.185  0.5776  1.1909  0.4238
22437SOL     OW68751   7.465   3.443   9.521  0.0694 -0.0596 -0.1617
22437SOL    HW168752   7.375   3.411   9.525  0.4937 -1.5319 -1.2454
22437SOL    HW268753   7.511   3.394   9.589  0.1126  0.4950  0.2130
22438SOL     OW68754   6.917   6.018   3.747  0.2718  0.2173 -0.6456
22438SOL    HW168755   6.966   5.953   3.698  2.0222  1.1964 -0.3021
22438SOL    HW268756   6.952   6.012   3.836  0.4694  1.5769 -0.6039
22439SOL     OW68757   3.734   4.710   3.815  0.2971  0.0302 -0.3197
22439SOL    HW168758   3.727   4.781   3.879  0.1979 -0.5316  0.2985
22439SOL    HW268759   3.664   4.649   3.838  1.3867 -1.0747  0.1771
22440SOL     OW68760   3.802   0.852   3.508  0.3858  0.7290 -0.0792
22440SOL    HW168761   3.888   0.870   3.471  0.6193  1.1801  0.6626
22440SOL    HW268762   3.767   0.938   3.530 -0.4189  0.5771 -0.7312
22441SOL     OW68763   3.649   7.039   4.005 -0.0245  0.1712 -0.6026
22441SOL    HW168764   3.628   6.952   4.040 -0.3239  0.2695 -0.5281
22441SOL    HW268765   3.721   7.024   3.944  1.9935  0.2839  1.6014
22442SOL     OW68766   5.546   5.775  12.173  0.5428 -0.6055  0.6543
22442SOL    HW168767   5.584   5.799  12.258 -1.0517  1.3489  0.8656
22442SOL    HW268768   5.452   5.768  12.189 -0.0375  1.6583 -1.2999
22443SOL     OW68769   1.232   2.047   0.301 -0.0877  0.1076 -0.0211
22443SOL    HW168770   1.229   2.016   0.392  0.2121  0.8892  0.2630
22443SOL    HW268771   1.142   2.075   0.283 -0.3449 -0.8400 -0.2579
22444SOL     OW68772   3.230   1.243  11.648 -0.3440  0.2928  0.4906
22444SOL    HW168773   3.277   1.268  11.568 -1.9332  0.7884 -0.3387
22444SOL    HW268774   3.149   1.294  11.645 -2.0543 -2.1932  0.5919
22445SOL     OW68775   2.923   2.732   2.428  0.0244  0.5698  0.0044
22445SOL    HW168776   2.954   2.649   2.464 -1.1758 -0.3603 -1.0377
22445SOL    HW268777   3.004   2.782   2.412  0.7696 -0.4054  0.5753
22446SOL     OW68778   3.640   5.025   2.246 -0.1371  0.1406  0.2262
22446SOL    HW168779   3.655   5.097   2.308 -0.2752  0.8104 -0.5072
22446SOL    HW268780   3.703   5.040   2.176 -0.6080 -0.0868 -0.2539
22447SOL     OW68781   3.375   4.924  12.145 -0.2078 -0.2699 -0.4249
22447SOL    HW168782   3.292   4.884  12.121 -0.7695  1.3621 -1.3388
22447SOL    HW268783   3.352   4.991  12.209  0.7194 -1.3411  1.1016
22448SOL     OW68784   0.427   2.066   6.218  0.3766  0.2986 -0.2336
22448SOL    HW168785   0.471   2.020   6.147 -0.4263 -0.4938 -0.2270
22448SOL    HW268786   0.456   2.020   6.297 -0.8371 -0.5601 -0.2661
22449SOL     OW68787   0.481   4.960  11.349  0.3212  0.3456 -0.0149
22449SOL    HW168788   0.414   4.941  11.284  0.6987  2.4692 -1.1379
22449SOL    HW268789   0.545   4.890  11.338 -0.8022 -0.6659 -0.2367
22450SOL     OW68790   3.843   6.344   9.566  0.3309  0.3091 -0.3770
22450SOL    HW168791   3.770   6.398   9.537  0.9229  0.7302 -1.1325
22450SOL    HW268792   3.803   6.265   9.601 -0.5281  0.9991  0.2551
22451SOL     OW68793   6.316   5.135   9.098  0.5802 -0.6975  0.5809
22451SOL    HW168794   6.289   5.212   9.149  2.1831 -0.8235  1.6835
22451SOL    HW268795   6.402   5.112   9.133  0.1760 -2.9612  0.2270
22452SOL     OW68796   3.183   7.795   6.783 -0.0825  0.4940 -0.1837
22452SOL    HW168797   3.129   7.821   6.708  0.5091 -0.3723 -0.9359
22452SOL    HW268798   3.119   7.767   6.849 -0.6471  2.1448  0.0052
22453SOL     OW68799   2.293   6.578   3.146 -0.1347 -0.4648 -0.5489
22453SOL    HW168800   2.272   6.533   3.064  0.8996  0.2937 -1.2714
22453SOL    HW268801   2.268   6.670   3.130  2.1598  0.1625 -0.9121
22454SOL     OW68802   6.029   0.268  12.317  0.1358  0.0741  0.0945
22454SOL    HW168803   6.042   0.210  12.241  0.0747 -1.4396  1.1842
22454SOL    HW268804   5.993   0.348  12.280 -0.1031 -0.7081 -1.4693
22455SOL     OW68805   6.413   6.171   5.587  0.1539  0.7919 -0.0304
22455SOL    HW168806   6.349   6.103   5.605  0.9267  0.5864  2.3178
22455SOL    HW268807   6.366   6.237   5.537 -1.2557 -0.3739 -0.2823
22456SOL     OW68808   6.976   3.918  10.451 -0.0286 -0.9790 -0.0830
22456SOL    HW168809   7.033   3.970  10.394 -0.2453 -0.4058  0.2107
22456SOL    HW268810   6.986   3.958  10.538  0.5225 -2.0210  0.3559
22457SOL     OW68811   0.059   5.972   1.806  0.0838 -0.1008  0.4711
22457SOL    HW168812  -0.027   5.952   1.768  0.0055  0.0629  0.5605
22457SOL    HW268813   0.120   5.919   1.756  0.2545  1.6973 -1.3683
22458SOL     OW68814   3.261   6.423   9.956 -0.2102  0.2511 -0.3380
22458SOL    HW168815   3.210   6.364  10.011  0.6600 -2.4536 -2.2011
22458SOL    HW268816   3.337   6.371   9.929  1.7974  2.9884 -0.3929
22459SOL     OW68817   5.836   2.935   7.578  0.1405 -0.1646 -0.0910
22459SOL    HW168818   5.908   2.959   7.519  0.8747  0.4017  0.9952
22459SOL    HW268819   5.761   2.924   7.520  0.2348  2.7897 -0.9303
22460SOL     OW68820   6.107   1.839  10.305 -0.4730 -0.6014  0.1342
22460SOL    HW168821   6.171   1.867  10.240 -1.7297 -0.0005 -0.9028
22460SOL    HW268822   6.151   1.849  10.389  1.8200 -3.0448 -0.6472
22461SOL     OW68823   5.902   5.678   2.930  0.0372 -0.1653 -0.4481
22461SOL    HW168824   5.956   5.610   2.890 -0.1436  0.1760 -1.3036
22461SOL    HW268825   5.900   5.748   2.865 -0.6359  0.2228 -0.0237
22462SOL     OW68826   6.329   4.739   5.388 -0.0891  0.4636  0.0135
22462SOL    HW168827   6.388   4.802   5.429 -0.7444  1.0314  0.1085
22462SOL    HW268828   6.297   4.784   5.310 -1.1912  0.5693  0.5133
22463SOL     OW68829   6.403   6.162   8.836  0.5406  0.3603  0.3424
22463SOL    HW168830   6.456   6.099   8.886  0.6253  1.3293  1.5058
22463SOL    HW268831   6.419   6.246   8.879  0.8254  1.2830 -1.4952
22464SOL     OW68832   1.694   3.011   4.215 -0.2652 -0.1762  0.0511
22464SOL    HW168833   1.778   2.977   4.246 -0.9621 -2.1728 -0.1306
22464SOL    HW268834   1.666   3.072   4.283  0.1489 -1.4354  1.3979
22465SOL     OW68835   5.399   0.017   4.892 -0.5934 -0.0648 -0.3845
22465SOL    HW168836   5.449  -0.021   4.820  0.2666  0.1647  0.0798
22465SOL    HW268837   5.416  -0.041   4.966  1.7691  1.8159  0.6874
22466SOL     OW68838   2.451   4.599  11.516 -0.0983 -0.0402 -0.0063
22466SOL    HW168839   2.401   4.542  11.574  0.6354  1.1422  1.8909
22466SOL    HW268840   2.483   4.669  11.573  3.1523 -0.3657 -1.1971
22467SOL     OW68841   0.878   0.443   4.886 -0.3818  0.4736 -0.2901
22467SOL    HW168842   0.896   0.530   4.852 -1.5288  1.1696  0.8007
22467SOL    HW268843   0.835   0.397   4.814 -0.3196  1.0142 -0.6733
22468SOL     OW68844   4.751   6.602   8.924 -0.6005  0.2794 -0.1109
22468SOL    HW168845   4.804   6.624   9.001 -0.8296  1.8659 -0.3659
22468SOL    HW268846   4.810   6.617   8.850 -0.5942 -0.5623 -0.2834
22469SOL     OW68847   5.128   3.928   1.656  0.3036 -0.1949 -0.1850
22469SOL    HW168848   5.208   3.891   1.621  0.6517 -2.2173  2.4481
22469SOL    HW268849   5.069   3.854   1.667 -0.5412  0.6417  1.3722
22470SOL     OW68850   0.934   4.263   3.904  0.0936 -0.6042  0.6531
22470SOL    HW168851   0.866   4.321   3.939 -0.1792 -0.2203 -0.4648
22470SOL    HW268852   0.986   4.238   3.980  1.4028  2.6383  1.0225
22471SOL     OW68853   2.205   2.255  11.042 -0.1942 -0.3069  0.4917
22471SOL    HW168854   2.220   2.217  11.128  1.1085 -1.4623 -0.2006
22471SOL    HW268855   2.205   2.349  11.057 -1.2703 -0.4993  1.9221
22472SOL     OW68856   2.011   1.539   4.761 -0.4409 -0.3549 -0.0360
22472SOL    HW168857   1.930   1.587   4.781 -0.6425  0.1530 -1.9018
22472SOL    HW268858   2.001   1.513   4.669  2.2181  1.2131 -0.8721
22473SOL     OW68859   6.993   7.509   0.055 -0.0191 -0.5646 -0.3384
22473SOL    HW168860   7.088   7.511   0.060  0.0134  0.8258 -1.1915
22473SOL    HW268861   6.973   7.427   0.010  0.7732 -0.7985 -0.2711
22474SOL     OW68862   0.169   4.791   5.175 -0.1715 -0.2768 -1.1378
22474SOL    HW168863   0.231   4.721   5.155  0.3129 -0.4033  0.6175
22474SOL    HW268864   0.221   4.871   5.174 -0.0358 -0.3337 -0.0773
22475SOL     OW68865   0.498   6.623   6.483  0.1785  0.1625 -0.3132
22475SOL    HW168866   0.492   6.578   6.567  0.1116  0.4085 -0.1842
22475SOL    HW268867   0.571   6.581   6.437  0.6614  0.4938  0.1484
22476SOL     OW68868   3.367   4.720  11.717  0.3492 -0.4046  0.5279
22476SOL    HW168869   3.340   4.685  11.632  1.6724  0.8651 -0.4696
22476SOL    HW268870   3.412   4.646  11.759 -1.0602 -1.3004  0.5282
22477SOL     OW68871   3.393   6.537   3.959 -0.5224  0.2056  0.3062
22477SOL    HW168872   3.330   6.597   3.919 -0.9776 -0.7187 -0.4115
22477SOL    HW268873   3.339   6.469   3.999 -0.0040 -0.4169 -0.0288
22478SOL     OW68874   5.457   2.051  11.072 -0.0169 -0.2535  0.4748
22478SOL    HW168875   5.372   2.035  11.112 -0.4149  1.4714  0.3718
22478SOL    HW268876   5.509   2.092  11.141 -0.2775  1.4988 -0.3141
22479SOL     OW68877   2.583   4.097   5.278  0.2542  0.5258 -0.0735
22479SOL    HW168878   2.574   4.111   5.184  2.4678 -0.5479 -0.5022
22479SOL    HW268879   2.653   4.157   5.305  0.7246 -0.2923  0.5753
22480SOL     OW68880   6.585   3.990  10.655  0.3214 -0.5813 -0.3933
22480SOL    HW168881   6.664   3.999  10.709  0.3244  0.0420 -0.4993
22480SOL    HW268882   6.574   3.896  10.645  0.8451 -0.6817 -0.0696
22481SOL     OW68883   6.538   7.477   1.148 -0.5882  0.5663 -0.1267
22481SOL    HW168884   6.475   7.421   1.193 -0.2885 -0.2830 -0.7477
22481SOL    HW268885   6.487   7.552   1.118 -1.5329 -0.6047 -1.5290
22482SOL     OW68886   1.738   3.481   3.112  0.4531  0.5023  0.1981
22482SOL    HW168887   1.697   3.478   3.198  1.5930 -0.2934  0.7355
22482SOL    HW268888   1.700   3.407   3.065 -0.0548  0.8449  0.0600
22483SOL     OW68889   7.290   1.689   5.647 -0.0154 -0.2315 -0.4883
22483SOL    HW168890   7.242   1.733   5.577 -0.5141 -0.4262 -0.2736
22483SOL    HW268891   7.253   1.725   5.728 -1.5157 -2.1251 -0.2724
22484SOL     OW68892   5.917   4.844   0.620 -0.1663 -0.0749  0.5244
22484SOL    HW168893   5.852   4.774   0.615 -0.5245  0.2880  0.0585
22484SOL    HW268894   5.904   4.882   0.707  0.5888 -1.1119  1.1178
22485SOL     OW68895   0.166   4.761   8.508  0.3576  0.3799  0.8598
22485SOL    HW168896   0.230   4.831   8.521 -0.8577  1.3979  1.6101
22485SOL    HW268897   0.167   4.712   8.590  1.4812 -0.7697  0.2008
22486SOL     OW68898   7.075   5.200   7.494  0.6876 -0.0697  0.6716
22486SOL    HW168899   7.146   5.150   7.533  0.8757 -0.5285 -0.2164
22486SOL    HW268900   7.114   5.285   7.473  0.7911 -0.0832  0.8104
22487SOL     OW68901   0.022   2.426   2.781  0.4264 -0.0635 -0.6618
22487SOL    HW168902   0.008   2.426   2.687  0.7829 -2.6408 -0.7867
22487SOL    HW268903   0.005   2.516   2.808 -0.2649  0.5992 -3.0832
22488SOL     OW68904   2.121   5.738   9.826  0.2141 -0.4254  0.4108
22488SOL    HW168905   2.188   5.691   9.876  0.5801 -0.0816  0.2512
22488SOL    HW268906   2.052   5.673   9.811 -0.0743 -0.4315  1.6657
22489SOL     OW68907   2.896   3.932   2.772  0.3441  0.0372  0.2440
22489SOL    HW168908   2.880   3.868   2.841  0.1344  0.6813  0.8037
22489SOL    HW268909   2.812   3.975   2.758  0.3103 -0.2912 -0.6341
22490SOL     OW68910   1.164   2.201  10.530  0.3518  0.0992  0.2291
22490SOL    HW168911   1.077   2.184  10.564  0.1181 -0.7266 -0.7373
22490SOL    HW268912   1.198   2.115  10.506  0.6832  0.5920 -1.1616
22491SOL     OW68913   2.494   7.086   6.201 -0.1100  0.5055  0.2912
22491SOL    HW168914   2.468   7.096   6.293  0.2386  0.5897  0.3847
22491SOL    HW268915   2.576   7.035   6.205 -1.3908 -1.7176 -0.1192
22492SOL     OW68916   0.416   3.029   6.002  0.2532  0.2104  0.2557
22492SOL    HW168917   0.472   2.991   6.070 -0.7311  0.1681  1.0678
22492SOL    HW268918   0.474   3.087   5.953  1.3164 -0.8190  0.2397
22493SOL     OW68919   5.121   1.981   5.460 -0.5407  0.1546 -0.2521
22493SOL    HW168920   5.054   1.912   5.457 -0.5655  0.2056 -1.3646
22493SOL    HW268921   5.168   1.971   5.377 -0.4225  1.3485 -0.3346
22494SOL     OW68922   5.842   5.383  10.574  0.1169 -0.0236 -0.6937
22494SOL    HW168923   5.873   5.461  10.620 -2.2573  0.6880 -0.1819
22494SOL    HW268924   5.789   5.417  10.502  0.0011 -1.1828 -1.1847
22495SOL     OW68925   0.897   6.458   9.071 -0.0121 -0.3229  0.0679
22495SOL    HW168926   0.900   6.538   9.124 -1.7242  0.8244 -1.4521
22495SOL    HW268927   0.804   6.438   9.061  0.3582 -2.0176 -0.3210
22496SOL     OW68928   6.487   4.483   2.308  0.0847  0.0382  0.1005
22496SOL    HW168929   6.554   4.477   2.240  0.4737 -0.0093  0.4864
22496SOL    HW268930   6.472   4.393   2.336  0.0848  0.0786  0.2330
22497SOL     OW68931   5.192   0.469  11.195 -0.0284 -0.0405  0.4744
22497SOL    HW168932   5.156   0.553  11.169 -0.0040 -0.6071 -1.5701
22497SOL    HW268933   5.284   0.487  11.216 -0.1181  0.4962  0.4086
22498SOL     OW68934   1.719   2.384   2.757 -0.1014  0.2420 -0.3981
22498SOL    HW168935   1.640   2.345   2.793 -0.3956  0.9861 -0.2149
22498SOL    HW268936   1.726   2.469   2.800  0.4303  0.4672 -0.9073
22499SOL     OW68937   4.171   6.127   1.834 -0.2065 -0.3682 -0.2574
22499SOL    HW168938   4.131   6.062   1.893 -0.0642 -0.6555 -0.4733
22499SOL    HW268939   4.235   6.077   1.784 -0.1661 -0.0776 -0.4977
22500SOL     OW68940   4.471   0.393   2.802  0.3372 -0.5914  0.4068
22500SOL    HW168941   4.515   0.467   2.761 -1.0710 -0.0727 -0.2236
22500SOL    HW268942   4.397   0.432   2.850 -0.0806 -1.5276  0.5510
22501SOL     OW68943   6.271   0.397  12.267  0.1195  0.3945  0.8856
22501SOL    HW168944   6.316   0.430  12.344 -0.1956 -0.8306  1.6231
22501SOL    HW268945   6.202   0.340  12.302  0.0595 -0.2946 -0.2904
22502SOL     OW68946   1.589   1.818   0.221 -0.8161 -0.2390  0.2080
22502SOL    HW168947   1.640   1.769   0.156 -1.3525 -0.1292 -0.3016
22502SOL    HW268948   1.628   1.905   0.221 -0.2583 -0.4781  0.6694
22503SOL     OW68949   6.294   2.245   9.552  0.2889  0.0338 -0.7497
22503SOL    HW168950   6.365   2.182   9.541  0.0670 -0.3454 -0.0726
22503SOL    HW268951   6.219   2.202   9.511  0.6248  0.7825 -2.1952
22504SOL     OW68952   7.181   3.675  12.285 -0.3615  0.9847  0.3591
22504SOL    HW168953   7.236   3.686  12.208 -0.1957 -0.4541  0.2487
22504SOL    HW268954   7.234   3.625  12.347 -1.7225 -1.1255 -0.0460
22505SOL     OW68955   0.230   6.087   4.646 -0.0409  0.2012 -0.3677
22505SOL    HW168956   0.135   6.095   4.657 -0.0684 -1.2643  0.6451
22505SOL    HW268957   0.240   6.051   4.558 -0.2174  3.3947 -1.8454
22506SOL     OW68958   0.901   1.937   9.959 -0.3163 -0.4036  0.2037
22506SOL    HW168959   0.973   1.999   9.971 -3.8117  3.9749  1.2111
22506SOL    HW268960   0.916   1.871  10.027  2.2474  0.7803  0.9424
22507SOL     OW68961   2.389   4.923   1.925 -0.1155  0.5811 -0.5675
22507SOL    HW168962   2.374   4.951   2.015  0.4695  0.4412 -0.4256
22507SOL    HW268963   2.401   4.828   1.930 -0.3801  0.5302 -0.8342
22508SOL     OW68964   2.627   5.129   4.119 -0.0591  0.8277  0.0469
22508SOL    HW168965   2.698   5.082   4.163  0.0485 -0.4516 -1.3973
22508SOL    HW268966   2.628   5.216   4.158 -0.5916 -0.4543  3.2221
22509SOL     OW68967   0.035   1.305   3.449  0.4677  0.5984  0.2110
22509SOL    HW168968   0.041   1.360   3.371  1.8811  0.0604 -0.1034
22509SOL    HW268969  -0.030   1.348   3.504 -1.1238  0.5922 -1.5649
22510SOL     OW68970   0.138   1.995   2.479  0.0672 -0.7297  0.1407
22510SOL    HW168971   0.170   2.013   2.391 -1.9412  0.5310 -0.3957
22510SOL    HW268972   0.055   1.949   2.466 -1.4393  1.4933  1.2414
22511SOL     OW68973   6.903   2.639  10.715  0.7580 -0.7691 -0.1123
22511SOL    HW168974   6.977   2.617  10.659  1.6656 -0.4386  0.9257
22511SOL    HW268975   6.927   2.722  10.755  0.2636 -1.1357  0.9853
22512SOL     OW68976   5.362   7.768   0.576 -0.5195  0.3545  0.3407
22512SOL    HW168977   5.297   7.721   0.627 -0.3296  0.2445  0.4845
22512SOL    HW268978   5.349   7.737   0.486  0.1510 -0.6150  0.5584
22513SOL     OW68979   7.919   3.471   5.451 -0.0631  0.3977  0.5738
22513SOL    HW168980   7.966   3.534   5.396 -1.8947  1.3250 -0.0255
22513SOL    HW268981   7.875   3.525   5.517 -1.3426 -0.2778  0.2993
22514SOL     OW68982   1.229   0.275   9.444 -0.0586 -0.3308  0.2979
22514SOL    HW168983   1.310   0.311   9.409 -0.2778 -0.6396 -0.5513
22514SOL    HW268984   1.208   0.202   9.386 -1.3958  0.2749 -0.0244
22515SOL     OW68985   3.563   4.041   1.114  0.1719 -0.1447 -0.2783
22515SOL    HW168986   3.585   4.006   1.200 -0.7426  0.2346  0.1295
22515SOL    HW268987   3.469   4.026   1.106 -0.6596  3.5644  0.6287
22516SOL     OW68988   1.522   2.570  10.397  0.1287 -0.9846 -0.3069
22516SOL    HW168989   1.559   2.544  10.482  1.9787 -1.3973 -1.1876
22516SOL    HW268990   1.427   2.568  10.411  0.3837 -0.5943  1.8677
22517SOL     OW68991   5.137   2.048   9.506 -0.1179  0.2545  0.2646
22517SOL    HW168992   5.082   2.112   9.552 -1.7340  0.5809 -1.9515
22517SOL    HW268993   5.076   1.980   9.479  0.6840  0.1975 -1.5498
22518SOL     OW68994   4.358   7.095   2.536  0.0311  0.1707  0.2704
22518SOL    HW168995   4.402   7.014   2.561 -1.2681 -1.0258 -1.1301
22518SOL    HW268996   4.428   7.153   2.507  1.3963  0.8609  4.2944
22519SOL     OW68997   7.690   4.397   3.783 -0.6851  0.0221 -0.9102
22519SOL    HW168998   7.696   4.452   3.861  0.5020 -0.2580 -0.7828
22519SOL    HW268999   7.619   4.336   3.802 -0.9112  0.4485 -0.3713
22520SOL     OW69000   6.618   6.073  10.566  0.3427 -0.2548  0.2757
22520SOL    HW169001   6.646   5.985  10.542  0.3288  0.0130 -0.7623
22520SOL    HW269002   6.655   6.129  10.498  0.1286  0.5132  0.7769
22521SOL     OW69003   7.683   3.385   0.416 -0.0497  0.3810 -0.5549
22521SOL    HW169004   7.736   3.307   0.432  0.6443  0.8061 -0.7208
22521SOL    HW269005   7.596   3.352   0.394  0.0884 -0.3212 -0.0523
22522SOL     OW69006   2.519   0.741   0.162 -0.0239 -0.0767 -0.6394
22522SOL    HW169007   2.578   0.698   0.100  0.9361  1.4589 -0.8589
22522SOL    HW269008   2.556   0.721   0.248  1.7992  2.0347 -0.8093
22523SOL     OW69009   3.914   3.051   9.109  0.1366  0.3277  0.4378
22523SOL    HW169010   3.865   3.097   9.041 -0.3785 -0.3180  0.3583
22523SOL    HW269011   3.976   2.995   9.061 -0.6456 -0.5899  0.4574
22524SOL     OW69012   7.351   3.008   4.388 -0.0045 -0.4331 -0.6230
22524SOL    HW169013   7.268   2.962   4.391 -0.0587 -0.3492 -0.8277
22524SOL    HW269014   7.375   3.020   4.480  0.7802 -2.2377 -0.5654
22525SOL     OW69015   6.165   5.893   6.518 -0.0700  0.4706 -0.5350
22525SOL    HW169016   6.110   5.943   6.578  0.0412 -0.7989  0.7010
22525SOL    HW269017   6.235   5.953   6.494  0.4937  0.7279  1.5168
22526SOL     OW69018   7.296   5.119  10.975  0.4149 -0.2261 -0.7837
22526SOL    HW169019   7.354   5.043  10.982  0.5147 -0.2095 -1.3601
22526SOL    HW269020   7.217   5.094  11.023  0.3706 -0.7763 -1.1314
22527SOL     OW69021   2.271   6.154   5.114 -0.0658 -0.0076 -0.6287
22527SOL    HW169022   2.255   6.116   5.028  1.7718 -3.5626  0.4056
22527SOL    HW269023   2.357   6.194   5.108 -1.1179  2.2931 -1.1313
22528SOL     OW69024   6.119   6.097   1.904 -0.2021 -0.2951 -0.4081
22528SOL    HW169025   6.084   6.155   1.972  1.0971  0.4460 -0.3440
22528SOL    HW269026   6.078   6.128   1.823 -1.1026 -0.6401 -0.1002
22529SOL     OW69027   7.280   2.428   4.394  0.2250  0.3712 -0.4808
22529SOL    HW169028   7.207   2.380   4.355 -0.1669 -0.7663  1.5169
22529SOL    HW269029   7.354   2.366   4.392  0.1764  0.2564  0.5833
22530SOL     OW69030   2.992   3.743   0.711 -0.0955  0.3951 -0.3651
22530SOL    HW169031   2.934   3.764   0.638  0.1845 -0.9659 -1.0153
22530SOL    HW269032   3.062   3.809   0.706 -1.4628  1.9759  0.3537
22531SOL     OW69033   1.260   4.072   2.873  0.0573 -0.2859  0.1153
22531SOL    HW169034   1.248   4.162   2.844  0.9290 -0.8926 -2.3264
22531SOL    HW269035   1.178   4.028   2.851 -0.5857 -0.0458  1.8113
22532SOL     OW69036   7.392   0.136  10.490 -0.4040 -0.7323  0.1271
22532SOL    HW169037   7.372   0.149  10.397 -0.1184  0.5682  0.2154
22532SOL    HW269038   7.450   0.060  10.492 -2.9466 -2.8224 -0.3918
22533SOL     OW69039   2.178   4.729  11.167  0.0344 -0.4416  0.1874
22533SOL    HW169040   2.142   4.676  11.095  0.9304 -0.4059 -0.3032
22533SOL    HW269041   2.225   4.667  11.222  1.1428 -0.1749 -0.4246
22534SOL     OW69042   6.425   7.426  12.257  0.0660  0.5410  0.5658
22534SOL    HW169043   6.414   7.381  12.341  0.0120 -1.0390 -0.2551
22534SOL    HW269044   6.346   7.403  12.208 -0.0623  1.7308  0.1884
22535SOL     OW69045   1.547   0.730   5.651  0.2253 -0.4308  0.0237
22535SOL    HW169046   1.632   0.750   5.614 -0.6490 -0.4332 -2.1116
22535SOL    HW269047   1.488   0.794   5.612 -0.9045 -0.9864  0.7621
22536SOL     OW69048   6.301   0.118  10.004  0.7328  0.0257 -0.0111
22536SOL    HW169049   6.321   0.045  10.063  2.8214  0.0342 -0.6344
22536SOL    HW269050   6.247   0.079   9.935 -0.2766 -0.3535  0.9616
22537SOL     OW69051   7.697   5.402   2.816  0.6237 -0.2931 -0.1198
22537SOL    HW169052   7.715   5.488   2.855  0.6578 -0.2817 -0.1608
22537SOL    HW269053   7.762   5.392   2.747  1.7399 -1.0916  0.9940
22538SOL     OW69054   3.206   6.497  11.909  0.5064 -0.3268 -0.2943
22538SOL    HW169055   3.247   6.547  11.838  1.4881 -0.8913 -0.1502
22538SOL    HW269056   3.215   6.554  11.986  0.9616 -0.4036 -0.2849
22539SOL     OW69057   7.911   7.300   4.713  0.3577  0.1811 -0.2700
22539SOL    HW169058   7.843   7.294   4.780  1.3956  1.2075  0.9175
22539SOL    HW269059   7.918   7.211   4.679 -1.4598  0.0143 -0.3338
22540SOL     OW69060   1.740   7.522   3.957  0.3049 -0.2809  0.5875
22540SOL    HW169061   1.665   7.567   3.997  0.1691  0.1108 -0.1069
22540SOL    HW269062   1.703   7.440   3.923  0.4152 -0.6027  1.2252
22541SOL     OW69063   4.262   4.954   7.648  0.5808  0.4031  0.2987
22541SOL    HW169064   4.229   4.882   7.596  0.6397 -0.1391  0.9921
22541SOL    HW269065   4.202   4.960   7.722 -1.0082  2.7984 -1.0492
22542SOL     OW69066   2.834   1.735  11.053 -0.2233 -0.4535 -0.1273
22542SOL    HW169067   2.772   1.671  11.086 -0.6162 -0.3630 -0.6672
22542SOL    HW269068   2.894   1.685  10.998  0.2496 -0.5556  0.4636
22543SOL     OW69069   4.585   6.665   3.012  0.2791  0.6617 -0.4318
22543SOL    HW169070   4.527   6.720   2.958 -0.3624  0.4816  0.0594
22543SOL    HW269071   4.526   6.621   3.073  1.1187  1.9217  1.3645
22544SOL     OW69072   6.378   5.716  10.539  0.0954  0.2145  0.2585
22544SOL    HW169073   6.365   5.626  10.570  0.5072 -0.2494 -0.8685
22544SOL    HW269074   6.443   5.708  10.469  1.7456  1.6602  1.5309
22545SOL     OW69075   3.375   5.031   5.382  0.6074 -0.1076  0.4860
22545SOL    HW169076   3.364   5.066   5.293 -0.0024  1.8640  1.2899
22545SOL    HW269077   3.410   5.104   5.432  0.5543 -1.0711  1.9826
22546SOL     OW69078   3.743   0.912  11.948  0.2654  0.0729 -0.3802
22546SOL    HW169079   3.777   0.996  11.916  1.8545 -0.8715 -1.2967
22546SOL    HW269080   3.758   0.914  12.042 -0.3863  1.0899 -0.2782
22547SOL     OW69081   4.969   2.159   8.854  0.7693 -0.0435  0.1726
22547SOL    HW169082   4.881   2.143   8.886  1.1726 -0.7883  0.9490
22547SOL    HW269083   5.000   2.072   8.826  1.4521  0.1137  0.4286
22548SOL     OW69084   4.100   4.812   2.042  0.2144  0.1178 -0.3508
22548SOL    HW169085   4.134   4.886   2.093  0.4211 -0.1341 -0.1168
22548SOL    HW269086   4.055   4.758   2.106 -1.2409  0.7898 -0.7745
22549SOL     OW69087   2.867   4.685   7.702  0.0818 -0.2078 -0.0143
22549SOL    HW169088   2.825   4.644   7.777  2.0825 -0.1645  1.1745
22549SOL    HW269089   2.853   4.623   7.630 -4.6403  1.1375 -0.5952
22550SOL     OW69090   2.959   3.383   8.065  0.0772  0.1707  0.6139
22550SOL    HW169091   2.983   3.473   8.088 -1.1203  0.3965  1.0156
22550SOL    HW269092   2.953   3.384   7.970 -0.3449  0.6236  0.6430
22551SOL     OW69093   7.172   7.261   3.553  0.4388 -0.4801 -0.1723
22551SOL    HW169094   7.261   7.291   3.533  0.8562 -0.5995  1.4054
22551SOL    HW269095   7.180   7.167   3.568  0.2342 -0.3468  0.8848
22552SOL     OW69096   7.405   2.715   0.135 -0.9025  0.4050 -0.1032
22552SOL    HW169097   7.498   2.696   0.147 -0.7162  1.4435  0.1886
22552SOL    HW269098   7.369   2.717   0.224 -1.5549 -1.5979 -0.2864
22553SOL     OW69099   7.847   2.234  10.624 -0.7215 -0.2546  0.2842
22553SOL    HW169100   7.890   2.216  10.708 -2.0035 -0.0554  1.0256
22553SOL    HW269101   7.801   2.152  10.604 -0.6078 -0.2225 -0.1095
22554SOL     OW69102   1.777   1.609   7.755  0.0367 -0.2291 -0.3395
22554SOL    HW169103   1.738   1.642   7.674 -0.1675  1.7345  0.4927
22554SOL    HW269104   1.852   1.668   7.770  2.1261 -2.6036 -0.7946
22555SOL     OW69105   0.693   6.204   2.925  0.1179  0.0499 -0.0594
22555SOL    HW169106   0.771   6.175   2.877  0.0132 -0.6739  0.2005
22555SOL    HW269107   0.620   6.167   2.875 -0.2860  3.0895 -2.0201
22556SOL     OW69108   0.819   5.254   7.857  0.2402 -0.3968  0.1911
22556SOL    HW169109   0.771   5.314   7.914  2.4055  0.9725  0.6975
22556SOL    HW269110   0.907   5.251   7.895  1.4076 -0.4335 -2.3517
22557SOL     OW69111   1.906   1.649   1.053 -0.4255  0.5444  0.2171
22557SOL    HW169112   1.921   1.646   0.958  0.8212  1.1207  0.3824
22557SOL    HW269113   1.878   1.739   1.070 -0.6362  0.4445  0.4052
22558SOL     OW69114   0.991   7.710   4.499  0.3044 -0.0282 -0.2308
22558SOL    HW169115   1.046   7.780   4.464  1.1005  0.8018  2.4311
22558SOL    HW269116   0.902   7.745   4.493  0.4941  0.3752 -0.7572
22559SOL     OW69117   1.228   3.098  10.200  0.7649  0.0466  0.1676
22559SOL    HW169118   1.161   3.151  10.243  1.2739  0.7579  0.0960
22559SOL    HW269119   1.282   3.065  10.271  0.6278 -0.1264  0.1911
22560SOL     OW69120   6.129   6.486  11.625 -0.1713 -0.2759 -0.1876
22560SOL    HW169121   6.196   6.441  11.576 -0.4606  0.6362 -1.4649
22560SOL    HW269122   6.048   6.469  11.577 -0.4460  0.7101 -0.0990
22561SOL     OW69123   0.263   4.334   6.791  0.5350  0.3975 -0.4675
22561SOL    HW169124   0.189   4.385   6.759  0.9803  1.5817  0.3306
22561SOL    HW269125   0.241   4.313   6.882  1.0072  0.4107 -0.3494
22562SOL     OW69126   5.110   0.097   0.732 -0.5647  0.3513  0.4873
22562SOL    HW169127   5.021   0.112   0.701 -0.2827  0.6337 -0.2131
22562SOL    HW269128   5.127   0.005   0.713  0.7554  1.1986 -3.3930
22563SOL     OW69129   3.401   2.066   8.586 -0.8278 -0.5065  0.2859
22563SOL    HW169130   3.381   2.031   8.499  0.1860  0.4504 -0.3742
22563SOL    HW269131   3.408   2.161   8.572  1.2520 -0.4979  0.9711
22564SOL     OW69132   5.944   1.791   2.889  0.2609 -0.0078  0.1830
22564SOL    HW169133   6.006   1.859   2.861  1.6389 -1.6945 -1.0211
22564SOL    HW269134   5.972   1.769   2.978 -0.5372  1.3077  0.8054
22565SOL     OW69135   6.713   6.155   1.321  0.0190  0.2188 -0.4472
22565SOL    HW169136   6.639   6.151   1.381  0.3288 -0.1592 -0.0841
22565SOL    HW269137   6.695   6.231   1.265 -0.9366 -0.2386 -0.7639
22566SOL     OW69138   1.088   2.595   4.106  0.2143 -0.2140 -0.4466
22566SOL    HW169139   1.119   2.559   4.190  1.4306  1.6510 -0.0423
22566SOL    HW269140   1.001   2.630   4.125  0.6006  0.4532  0.1341
22567SOL     OW69141   7.876   5.908  11.051  0.2153 -0.1398  0.1441
22567SOL    HW169142   7.863   5.862  11.134  1.1880 -0.6622  0.0293
22567SOL    HW269143   7.942   5.974  11.071  2.0630 -1.6459 -0.6491
22568SOL     OW69144   3.881   7.547  12.030 -0.3291  0.0394 -0.6790
22568SOL    HW169145   3.904   7.501  11.950  1.7343 -2.6687  1.3126
22568SOL    HW269146   3.961   7.594  12.055 -0.7810  0.4463  0.0464
22569SOL     OW69147   3.498   0.499   4.375 -0.3321 -0.5302  0.3100
22569SOL    HW169148   3.467   0.481   4.286  2.0659 -0.1531 -0.6831
22569SOL    HW269149   3.454   0.581   4.399  0.1753  0.2383 -1.2206
22570SOL     OW69150   3.960   7.941   5.663 -0.0546 -0.0642  0.1511
22570SOL    HW169151   3.926   8.001   5.597 -0.3454 -0.0976  0.2686
22570SOL    HW269152   3.937   7.854   5.632 -2.1249 -0.0010  1.3318
22571SOL     OW69153   0.878   3.139  11.795  0.1101  0.3540  0.3010
22571SOL    HW169154   0.931   3.117  11.871  0.5340 -2.5180 -0.7126
22571SOL    HW269155   0.792   3.100  11.814  0.4044 -0.9407 -0.8994
22572SOL     OW69156   5.618   0.413   1.389  0.0560 -0.1075  0.4492
22572SOL    HW169157   5.648   0.338   1.441  0.9262 -0.2421 -0.2088
22572SOL    HW269158   5.699   0.459   1.365 -0.4532  0.9156  0.6543
22573SOL     OW69159   5.850   4.667   3.303  0.2797  0.6518  0.1332
22573SOL    HW169160   5.792   4.697   3.233  0.1974 -1.4813 -0.7916
22573SOL    HW269161   5.792   4.647   3.376  0.0996  0.6378 -0.0138
22574SOL     OW69162   1.664   1.236  11.383  0.0390  0.6858  0.2735
22574SOL    HW169163   1.663   1.328  11.356 -1.3790  0.2598 -1.2450
22574SOL    HW269164   1.707   1.190  11.311  0.6940  0.1270  0.9995
22575SOL     OW69165   6.529   2.682   1.025 -0.3454  0.2325 -0.6535
22575SOL    HW169166   6.569   2.597   1.045  1.5259  1.5676  1.8373
22575SOL    HW269167   6.436   2.670   1.041 -0.2327 -1.5428 -1.1687
22576SOL     OW69168   4.827   2.927  10.574 -0.0425 -0.0916  0.3484
22576SOL    HW169169   4.876   2.994  10.526  2.2656 -2.7369 -1.2862
22576SOL    HW269170   4.736   2.938  10.544  0.0875  2.6235  0.6545
22577SOL     OW69171   1.207   0.210   0.767 -0.1646  0.0906  0.4730
22577SOL    HW169172   1.150   0.280   0.798 -0.6062  0.6624 -1.4580
22577SOL    HW269173   1.285   0.255   0.735 -0.5090 -0.2304 -0.9193
22578SOL     OW69174   3.145   5.977   5.055  0.1091 -0.1713 -0.0068
22578SOL    HW169175   3.077   6.004   4.993  1.0028  0.0606 -0.9014
22578SOL    HW269176   3.219   6.035   5.037  0.9435 -1.1464  0.1785
22579SOL     OW69177   2.430   3.766   1.061  0.4482  0.0134  0.6788
22579SOL    HW169178   2.371   3.715   1.005  0.2843 -0.3586  1.1820
22579SOL    HW269179   2.373   3.829   1.105  0.7521  1.1613 -0.5012
22580SOL     OW69180   1.089   6.172   9.274  0.0837  0.3035  0.3892
22580SOL    HW169181   1.093   6.080   9.247 -0.5655  0.4715 -0.2847
22580SOL    HW269182   1.104   6.222   9.194 -0.5996  0.7966  0.5653
22581SOL     OW69183   1.741   7.517   8.905 -0.6915 -0.3497 -0.2518
22581SOL    HW169184   1.763   7.606   8.879 -1.3542 -0.6390 -1.8900
22581SOL    HW269185   1.796   7.461   8.850 -0.3259 -0.9707  0.7167
22582SOL     OW69186   2.583   2.402   9.856 -0.6044  0.4188  0.0915
22582SOL    HW169187   2.579   2.428   9.948 -3.7145  2.1357 -0.4056
22582SOL    HW269188   2.625   2.476   9.812  1.1488 -0.5217  0.0775
22583SOL     OW69189   4.654   6.327   0.025 -0.0639  0.1713 -0.0709
22583SOL    HW169190   4.742   6.300   0.001  1.2331  2.2347  2.0340
22583SOL    HW269191   4.634   6.399  -0.034  0.5670  1.1253  0.8628
22584SOL     OW69192   7.056   1.258   6.819  0.0607 -0.1144  0.2480
22584SOL    HW169193   7.137   1.238   6.868  0.7699  1.5817 -0.1740
22584SOL    HW269194   7.009   1.318   6.876  0.3379  0.9464 -0.6173
22585SOL     OW69195   1.539   2.083   4.964 -0.2167  0.1385  0.2525
22585SOL    HW169196   1.534   2.057   4.872 -0.1660 -0.9249  0.5409
22585SOL    HW269197   1.490   2.165   4.968  0.1583  0.4304 -0.8027
22586SOL     OW69198   0.930   1.771   3.167 -0.2325 -0.4535  0.6691
22586SOL    HW169199   0.836   1.765   3.153 -0.4015 -1.2573  2.0328
22586SOL    HW269200   0.939   1.810   3.254  0.6872 -1.0801  0.8676
22587SOL     OW69201   7.928   1.575   6.660  0.5210  0.3491  0.4779
22587SOL    HW169202   7.934   1.637   6.733 -1.0197  0.5784  0.4414
22587SOL    HW269203   8.017   1.569   6.627  1.2259  0.4309  2.2195
22588SOL     OW69204   5.145   2.102   0.541 -0.5631 -0.3685 -0.4407
22588SOL    HW169205   5.146   2.019   0.494  2.7608 -0.7270  0.0821
22588SOL    HW269206   5.180   2.165   0.478 -1.0399  0.2320 -0.1208
22589SOL     OW69207   7.044   2.286   4.276  0.3826 -0.1351  0.5128
22589SOL    HW169208   7.053   2.235   4.195  0.5741  0.3287  0.2347
22589SOL    HW269209   6.962   2.334   4.265  1.3501  1.4619 -0.3129
22590SOL     OW69210   5.446   6.609  10.963 -0.3599 -0.0320 -0.2706
22590SOL    HW169211   5.438   6.589  11.056  0.5390 -0.7231 -0.3324
22590SOL    HW269212   5.516   6.552  10.932  0.5058  1.3827 -1.0086
22591SOL     OW69213   7.675   7.907   6.042  0.7780  0.1340  0.5948
22591SOL    HW169214   7.644   7.836   5.986  1.5020 -1.2522  1.8706
22591SOL    HW269215   7.598   7.962   6.057 -0.2211 -1.3129  0.9341
22592SOL     OW69216   0.440   7.794   0.800  0.6205  0.6578  0.0166
22592SOL    HW169217   0.494   7.856   0.849  1.4459  0.5593 -0.7453
22592SOL    HW269218   0.353   7.834   0.798  1.5417  2.8158 -2.1145
22593SOL     OW69219   1.721   5.709  11.346 -0.1750 -0.3422 -0.2153
22593SOL    HW169220   1.642   5.756  11.317  0.7509 -0.0909 -2.5722
22593SOL    HW269221   1.691   5.620  11.365 -1.2653  0.1503  0.4481
22594SOL     OW69222   3.711   2.264   6.978  0.0274  0.5490  0.3275
22594SOL    HW169223   3.670   2.190   7.022  2.2771 -0.1778  1.3674
22594SOL    HW269224   3.715   2.332   7.045  0.5374  0.5867  0.2630
22595SOL     OW69225   0.110   5.727   8.876 -0.8479 -0.0010 -0.6099
22595SOL    HW169226   0.057   5.682   8.811 -2.0432  0.2386  0.1785
22595SOL    HW269227   0.174   5.777   8.825  0.2775 -2.2325 -1.5232
22596SOL     OW69228   6.944   1.874   0.551 -0.2106 -0.1859  0.1331
22596SOL    HW169229   6.905   1.787   0.542 -1.3832  0.3888 -0.6223
22596SOL    HW269230   6.964   1.882   0.644 -1.1568 -0.8343  0.4051
22597SOL     OW69231   1.852   5.152   9.857  0.2243 -0.2650 -0.0008
22597SOL    HW169232   1.870   5.243   9.835  0.2521 -0.3436 -0.3059
22597SOL    HW269233   1.843   5.108   9.772  1.8721 -0.8840  0.1086
22598SOL     OW69234   7.734   0.193   5.704  0.0327  0.5474 -0.7108
22598SOL    HW169235   7.713   0.100   5.709 -2.8173  1.1291  0.7123
22598SOL    HW269236   7.811   0.203   5.760  0.6527 -0.9918 -1.2361
22599SOL     OW69237   2.705   5.944   8.647  0.3961 -0.0633  0.1170
22599SOL    HW169238   2.758   5.976   8.720 -0.6187 -0.7498  1.1971
22599SOL    HW269239   2.758   5.875   8.607  1.2083  0.7199 -0.1810
22600SOL     OW69240   1.152   5.399   7.155 -0.4085 -0.3925 -0.3757
22600SOL    HW169241   1.156   5.393   7.250 -0.4926  0.4236 -0.3089
22600SOL    HW269242   1.138   5.310   7.125 -1.3289 -0.5283  0.4332
22601SOL     OW69243   5.875   3.786   0.573 -0.2290 -0.1757  0.4495
22601SOL    HW169244   5.817   3.860   0.587  0.4796  0.5459 -0.3139
22601SOL    HW269245   5.819   3.717   0.538 -0.6401  0.4957 -0.2289
22602SOL     OW69246   3.493   3.535   0.034  0.0911 -1.2337 -0.1077
22602SOL    HW169247   3.548   3.457   0.041  0.4515 -1.0009 -0.2925
22602SOL    HW269248   3.403   3.503   0.039  0.1006 -1.9985 -2.9960
22603SOL     OW69249   5.089   2.127   1.587  0.3612  0.2501  0.3032
22603SOL    HW169250   5.024   2.067   1.623 -0.0413  0.1639 -0.5464
22603SOL    HW269251   5.066   2.212   1.626 -0.8014  0.3923 -0.6394
22604SOL     OW69252   4.829   0.021  12.329 -0.8574  0.0203  0.2882
22604SOL    HW169253   4.795  -0.068  12.344 -1.9963  0.4185  0.1449
22604SOL    HW269254   4.773   0.056  12.260 -0.6942  1.0084  0.6510
22605SOL     OW69255   2.523   5.890   3.920 -0.2726 -0.1153  0.1214
22605SOL    HW169256   2.476   5.880   4.003 -0.4958 -1.5157 -0.1527
22605SOL    HW269257   2.584   5.962   3.936  1.2525 -1.7634  2.2785
22606SOL     OW69258   5.972   2.151   4.635  0.8535 -0.3053 -0.1625
22606SOL    HW169259   6.027   2.127   4.709 -0.4274  0.5023  1.1145
22606SOL    HW269260   5.928   2.070   4.610 -1.0811 -0.0387  2.0692
22607SOL     OW69261   2.323   2.252   2.387 -0.4760 -0.0876  0.6735
22607SOL    HW169262   2.326   2.345   2.409  0.7785 -0.3128  1.5717
22607SOL    HW269263   2.351   2.207   2.467 -1.2565 -1.2603  0.3224
22608SOL     OW69264   0.358   1.950   1.296 -0.6540 -0.4447  0.1964
22608SOL    HW169265   0.419   1.889   1.337 -1.0421  0.3997  2.1423
22608SOL    HW269266   0.411   2.029   1.280 -0.5601 -0.6917 -0.7793
22609SOL     OW69267   6.408   6.906   2.407 -0.0732  0.1116  0.3943
22609SOL    HW169268   6.450   6.989   2.386 -2.0340  0.8717 -0.8929
22609SOL    HW269269   6.316   6.919   2.382 -0.6846 -2.0656  1.2508
22610SOL     OW69270   1.613   3.652   0.829  0.4904 -0.2553  0.4633
22610SOL    HW169271   1.683   3.612   0.881  0.0827  0.9188  1.9869
22610SOL    HW269272   1.584   3.727   0.882 -1.1058 -0.0120 -0.6933
22611SOL     OW69273   2.305   6.152  11.654  0.7601  0.1676  0.0425
22611SOL    HW169274   2.319   6.178  11.563 -0.4584 -0.6962 -0.4293
22611SOL    HW269275   2.221   6.105  11.652  0.1081  1.1498  1.8096
22612SOL     OW69276   7.847   7.664   1.338  0.1825 -1.1647  0.4102
22612SOL    HW169277   7.902   7.598   1.296  0.5051 -0.7881  0.2315
22612SOL    HW269278   7.885   7.748   1.310 -1.6198 -0.8475 -1.2622
22613SOL     OW69279   2.002   6.702   6.989 -0.0636  0.0653 -0.2574
22613SOL    HW169280   1.938   6.673   6.923  0.3554 -0.1825 -0.5620
22613SOL    HW269281   1.949   6.734   7.062 -0.5347 -0.1017 -0.5234
22614SOL     OW69282   6.494   0.945   7.572  0.0722 -0.3384 -0.2063
22614SOL    HW169283   6.415   0.893   7.587  0.7309 -1.1127  0.6991
22614SOL    HW269284   6.477   1.028   7.616 -0.3549 -0.3839 -0.2856
22615SOL     OW69285   4.772   7.704   6.273 -0.3621 -0.1059  0.2030
22615SOL    HW169286   4.775   7.609   6.256 -0.3950 -0.1861  0.6357
22615SOL    HW269287   4.770   7.743   6.185  2.3930 -0.4003 -0.0729
22616SOL     OW69288   3.042   0.690   5.183 -0.4851  0.0746  0.3437
22616SOL    HW169289   3.129   0.729   5.188  0.1828 -1.1135 -1.2053
22616SOL    HW269290   3.057   0.601   5.151 -2.3010 -0.0405 -0.3200
22617SOL     OW69291   2.436   4.466  12.342  0.5151  0.4322  0.3634
22617SOL    HW169292   2.458   4.425  12.258 -1.1558  1.7402 -0.7687
22617SOL    HW269293   2.508   4.527  12.359  0.7684  0.3020 -0.2257
22618SOL     OW69294   7.352   5.421   7.464  0.3802 -0.1723 -0.7742
22618SOL    HW169295   7.391   5.489   7.409  1.8948 -1.0707 -0.8903
22618SOL    HW269296   7.411   5.414   7.539 -0.6413 -0.2572  0.0504
22619SOL     OW69297   4.894   3.858   0.719 -0.3778 -0.3331 -0.6250
22619SOL    HW169298   4.839   3.910   0.778 -0.5593 -1.5033  0.2708
22619SOL    HW269299   4.981   3.862   0.758 -0.4134 -0.7752 -0.4991
22620SOL     OW69300   4.893   7.428   9.852 -0.0710  0.2539  0.1379
22620SOL    HW169301   4.801   7.411   9.872 -0.0021 -1.9775 -1.1413
22620SOL    HW269302   4.892   7.465   9.763  0.3053 -1.1536 -0.4826
22621SOL     OW69303   5.567   0.796  10.723 -0.5151 -0.1725 -0.5097
22621SOL    HW169304   5.555   0.735  10.650  0.8922  0.1592 -1.0488
22621SOL    HW269305   5.661   0.816  10.722 -0.5226  0.0585  1.2239
22622SOL     OW69306   2.852   6.588   6.579 -0.3082  1.0884 -0.2341
22622SOL    HW169307   2.867   6.529   6.505  0.0441  1.9097 -0.8433
22622SOL    HW269308   2.780   6.548   6.628  0.5083 -0.3023 -0.1127
22623SOL     OW69309   5.481   2.419   3.403 -0.2400 -0.6687 -0.3299
22623SOL    HW169310   5.481   2.485   3.334 -0.0308 -2.6916 -2.3943
22623SOL    HW269311   5.406   2.441   3.458  0.6935  2.0952 -0.0423
22624SOL     OW69312   5.565   2.116   0.533 -0.6149  0.2942 -0.1440
22624SOL    HW169313   5.606   2.135   0.618 -1.6636  0.0596  0.4292
22624SOL    HW269314   5.583   2.023   0.519 -0.7442  0.2458 -0.0004
22625SOL     OW69315   6.751   1.725   8.119 -0.5400 -0.3683  0.2802
22625SOL    HW169316   6.798   1.642   8.127 -1.6968 -1.0611  0.2341
22625SOL    HW269317   6.718   1.742   8.207  2.1505  1.6343  1.0335
22626SOL     OW69318   3.204   2.404   9.742 -0.5888  0.2668 -0.0280
22626SOL    HW169319   3.193   2.326   9.688 -2.7073  0.0272  0.6248
22626SOL    HW269320   3.193   2.372   9.832 -2.3705  1.3796  0.2125
22627SOL     OW69321   1.203   2.891  11.376  0.1017  0.0603 -0.8212
22627SOL    HW169322   1.244   2.977  11.391  0.1641 -0.2191  0.7913
22627SOL    HW269323   1.245   2.833  11.439 -1.9616 -0.4992  0.1309
22628SOL     OW69324   3.259   1.574   4.504  0.0541  0.3054  0.2237
22628SOL    HW169325   3.194   1.634   4.467  1.2094  0.6638 -1.2899
22628SOL    HW269326   3.326   1.630   4.542 -1.3465 -0.0349  3.5351
22629SOL     OW69327   7.668   4.025   5.998  0.2526  0.2781  0.1385
22629SOL    HW169328   7.701   4.034   5.909 -0.8817  0.4145 -0.2936
22629SOL    HW269329   7.608   4.099   6.008  0.4079  0.2923  1.0357
22630SOL     OW69330   2.710   2.523   2.321 -0.2444  0.0419 -0.5594
22630SOL    HW169331   2.721   2.508   2.414 -2.4477  0.2226 -0.2221
22630SOL    HW269332   2.693   2.436   2.284 -0.9092  0.1544 -0.5312
22631SOL     OW69333   2.656   3.166  11.360 -0.3748  0.6435  0.0747
22631SOL    HW169334   2.691   3.119  11.285 -0.4512  0.4114  0.1818
22631SOL    HW269335   2.585   3.109  11.392  0.8702 -0.1885  1.4698
22632SOL     OW69336   5.966   3.912  11.402  0.2441 -0.7037  0.0788
22632SOL    HW169337   5.894   3.941  11.458  0.7762  2.0667 -0.5440
22632SOL    HW269338   6.016   3.850  11.456  0.3516  1.3061  2.4316
22633SOL     OW69339   3.391   5.959   1.253 -0.0116 -0.5752 -0.4707
22633SOL    HW169340   3.348   5.874   1.254  0.4269 -0.7958 -0.4012
22633SOL    HW269341   3.472   5.945   1.205  0.8191 -0.5764  0.8637
22634SOL     OW69342   2.696   0.600   0.009 -0.2391  0.6101 -0.6135
22634SOL    HW169343   2.764   0.663  -0.017  1.5539 -0.7153  0.6436
22634SOL    HW269344   2.665   0.564  -0.074 -0.5984  2.3973 -1.3036
22635SOL     OW69345   5.699   2.929   5.108 -0.0482 -0.8379 -0.3357
22635SOL    HW169346   5.722   2.847   5.063  0.4139 -1.1905  0.5181
22635SOL    HW269347   5.752   2.928   5.187 -0.5956 -0.0594  0.0494
22636SOL     OW69348   4.138   6.387   9.409  0.5467 -0.2945 -0.3169
22636SOL    HW169349   4.229   6.360   9.404  0.8114  0.7050 -1.1833
22636SOL    HW269350   4.132   6.463   9.351 -0.2939  1.1358  1.5188
22637SOL     OW69351   6.063   1.015   5.529 -0.0994 -0.2875 -0.0726
22637SOL    HW169352   6.090   0.953   5.462 -1.0383  1.3963 -2.1138
22637SOL    HW269353   5.970   0.996   5.543  0.3277 -1.3581  1.6591
22638SOL     OW69354   3.175   7.471   6.659 -0.3487  0.2156 -0.5988
22638SOL    HW169355   3.121   7.538   6.616 -1.3979 -0.0702  0.2327
22638SOL    HW269356   3.147   7.389   6.620  0.6383  0.2084 -1.3113
22639SOL     OW69357   3.262   1.938   5.443 -0.2350 -0.8945 -0.3819
22639SOL    HW169358   3.261   1.998   5.517  0.5235  0.8896 -1.7453
22639SOL    HW269359   3.185   1.883   5.456 -1.3081  0.7707  0.6271
22640SOL     OW69360   0.178   6.451   3.720 -0.3158  0.1625 -0.2718
22640SOL    HW169361   0.097   6.436   3.671 -0.4465 -0.8790  0.2470
22640SOL    HW269362   0.243   6.395   3.677 -0.4758 -0.8971  0.8305
22641SOL     OW69363   0.742   2.775   2.755  0.1984 -0.1790 -0.5723
22641SOL    HW169364   0.739   2.692   2.801 -0.0832 -1.0651 -2.1371
22641SOL    HW269365   0.833   2.804   2.763 -0.1130  0.3110  1.5578
22642SOL     OW69366   1.619   1.138  10.063  0.1983  0.1455 -0.1270
22642SOL    HW169367   1.561   1.087  10.120 -0.4202 -0.1523 -0.9903
22642SOL    HW269368   1.694   1.081  10.049  0.2304  0.1128  0.1816
22643SOL     OW69369   6.703   7.274   4.191  0.4652  0.7410  0.0777
22643SOL    HW169370   6.610   7.279   4.211  0.8108  1.5289  1.6490
22643SOL    HW269371   6.710   7.310   4.103 -0.4710  2.7811  0.7871
22644SOL     OW69372   3.243   0.985   1.984  0.4234 -0.6595  0.1108
22644SOL    HW169373   3.182   0.918   1.952 -0.8194  0.5759 -0.2113
22644SOL    HW269374   3.277   0.950   2.066  0.6017 -2.1303 -0.5686
22645SOL     OW69375   2.182   6.749   2.215  0.0418  0.1278  0.3029
22645SOL    HW169376   2.274   6.748   2.191 -0.1050 -0.4678 -0.2475
22645SOL    HW269377   2.176   6.816   2.284  0.7028  0.8615 -0.3411
22646SOL     OW69378   5.954   0.706   0.192  0.2278  0.1779  0.5031
22646SOL    HW169379   5.875   0.667   0.230  0.6182 -1.3514 -0.1729
22646SOL    HW269380   6.008   0.727   0.268 -0.1124 -0.3835  0.9179
22647SOL     OW69381   0.540   0.250   6.859 -0.4521 -0.3048 -0.3219
22647SOL    HW169382   0.469   0.251   6.795  0.3807  0.2450 -1.2851
22647SOL    HW269383   0.544   0.341   6.891  1.2897  0.2997 -2.0383
22648SOL     OW69384   6.133   1.623   4.923  0.0473 -0.2327  0.1721
22648SOL    HW169385   6.212   1.577   4.950 -0.2471 -0.5688  0.4854
22648SOL    HW269386   6.123   1.693   4.987  0.9140  0.7544 -0.7520
22649SOL     OW69387   5.596   6.810   9.053  0.3406  0.1038 -0.0933
22649SOL    HW169388   5.633   6.821   8.966  1.8599  0.6840  0.5877
22649SOL    HW269389   5.589   6.899   9.088  1.4637 -0.2326  1.0394
22650SOL     OW69390   6.962   1.958   2.761  0.1188  0.0406 -0.3784
22650SOL    HW169391   6.915   1.939   2.842  0.7301 -2.2709 -0.4866
22650SOL    HW269392   6.917   2.034   2.724 -1.9181 -0.5378  0.7568
22651SOL     OW69393   0.909   2.704   4.305 -0.4185  0.0563  0.2933
22651SOL    HW169394   0.877   2.699   4.395 -0.6821  0.5005  0.2320
22651SOL    HW269395   0.944   2.793   4.297 -1.5564  0.4758 -0.4018
22652SOL     OW69396   7.918   5.326   7.587  0.2475 -0.3572 -0.1592
22652SOL    HW169397   7.959   5.245   7.560 -0.3125 -0.3682 -1.0159
22652SOL    HW269398   7.976   5.395   7.555  0.9436 -0.4052  0.9372
22653SOL     OW69399   3.868   6.879  11.340  0.0907 -0.3311  0.7119
22653SOL    HW169400   3.915   6.797  11.354  0.9862  0.3785  2.1197
22653SOL    HW269401   3.800   6.879  11.408  0.4819  0.3538  1.1138
22654SOL     OW69402   7.488   5.516  11.219 -0.5062  0.0145 -0.1026
22654SOL    HW169403   7.453   5.555  11.299 -0.8939 -1.0630  0.2697
22654SOL    HW269404   7.582   5.534  11.223 -0.8494  2.3206 -0.7620
22655SOL     OW69405   6.053   7.086  11.990  0.2216 -0.4193 -0.2305
22655SOL    HW169406   6.107   7.013  12.018  2.9387  1.1981 -0.9325
22655SOL    HW269407   6.026   7.064  11.901  0.6150 -0.7649 -0.2637
22656SOL     OW69408   2.703   2.138   7.710 -0.3090  0.1427  0.2120
22656SOL    HW169409   2.715   2.216   7.764  0.0057  1.1141 -1.2139
22656SOL    HW269410   2.669   2.171   7.627  0.3089 -1.1900 -0.6005
22657SOL     OW69411   0.887   1.360   7.351 -0.0060  0.3122  0.1613
22657SOL    HW169412   0.974   1.321   7.348  0.0949  0.5479 -0.0694
22657SOL    HW269413   0.889   1.427   7.282 -0.3545  0.3469  0.1837
22658SOL     OW69414   4.929   1.221   7.759  0.1691  0.0081  0.2270
22658SOL    HW169415   5.000   1.253   7.815 -0.5286  0.7720  0.6889
22658SOL    HW269416   4.902   1.297   7.707 -0.0727 -0.3675 -0.2086
22659SOL     OW69417   6.632   2.419   7.380  0.1827 -0.0813  0.3345
22659SOL    HW169418   6.646   2.438   7.473 -1.5959 -0.7429  0.7726
22659SOL    HW269419   6.600   2.501   7.343  3.5580  1.0943 -0.4286
22660SOL     OW69420   2.251   7.929   4.729  0.1838  0.3712  0.8193
22660SOL    HW169421   2.206   7.895   4.806  1.3004  0.3905  1.4926
22660SOL    HW269422   2.253   7.855   4.668  1.3780 -0.3814  1.7373
22661SOL     OW69423   2.734   7.564  11.249 -0.2966 -0.1611 -0.1229
22661SOL    HW169424   2.740   7.584  11.156  2.0139  0.1948  0.0490
22661SOL    HW269425   2.740   7.469  11.254  0.5831 -0.1245 -0.3059
22662SOL     OW69426   1.101   5.560  12.230 -0.1701 -0.1994  0.1105
22662SOL    HW169427   1.123   5.651  12.208 -0.7732 -0.5222 -1.9773
22662SOL    HW269428   1.006   5.560  12.243 -0.1161 -0.4637  0.5346
22663SOL     OW69429   7.124   0.555   5.972  0.1843 -0.3394  0.1541
22663SOL    HW169430   7.048   0.556   6.030  1.0275  0.0075  1.3066
22663SOL    HW269431   7.176   0.480   6.002  0.7533 -0.0092  0.0119
22664SOL     OW69432   6.755   4.893  11.781 -0.7627  0.0576 -0.2672
22664SOL    HW169433   6.739   4.875  11.688  0.7234  0.3602 -0.6015
22664SOL    HW269434   6.696   4.965  11.802 -0.9968  0.0949 -1.0184
22665SOL     OW69435   1.897   2.265  10.600  0.1083  0.5453  0.7520
22665SOL    HW169436   1.966   2.262  10.666 -0.6793  1.6287  1.6927
22665SOL    HW269437   1.930   2.214  10.527  3.0762  3.1305  0.0563
22666SOL     OW69438   6.196   2.140   7.877 -0.1805  0.6166 -0.4355
22666SOL    HW169439   6.290   2.152   7.865 -0.1079  0.8363  0.2985
22666SOL    HW269440   6.180   2.049   7.850  0.2555  0.5551 -0.4904
22667SOL     OW69441   4.870   6.616   6.749 -0.2183 -0.4921 -0.1815
22667SOL    HW169442   4.896   6.653   6.664 -0.9354  0.8072  0.1222
22667SOL    HW269443   4.918   6.668   6.813 -2.1358  0.7862  0.3101
22668SOL     OW69444   4.964   5.597   9.743 -0.3284 -0.0906 -0.1510
22668SOL    HW169445   5.013   5.649   9.679 -0.4937 -1.5310 -1.4976
22668SOL    HW269446   4.946   5.514   9.698 -0.9219 -0.9448  1.5795
22669SOL     OW69447   3.937   5.260   3.055 -0.2871  0.3501  0.6301
22669SOL    HW169448   4.013   5.260   2.996 -0.7185 -0.4973  0.0562
22669SOL    HW269449   3.933   5.350   3.088 -2.6667  2.3323 -4.0914
22670SOL     OW69450   0.368   5.562  10.114 -0.4030 -0.3826  0.7793
22670SOL    HW169451   0.369   5.483  10.169 -2.0187 -0.7759  0.2934
22670SOL    HW269452   0.418   5.537  10.036 -1.1973 -1.0583  0.4741
22671SOL     OW69453   1.731   4.409  10.995 -0.6002  0.7712  0.1080
22671SOL    HW169454   1.803   4.469  11.013 -2.0103  2.4146  0.5098
22671SOL    HW269455   1.748   4.333  11.051  0.8680  1.0525  0.0842
22672SOL     OW69456   6.601   4.825  10.535 -0.0290 -0.3334  0.3059
22672SOL    HW169457   6.650   4.829  10.453 -0.5577  0.4035  0.0131
22672SOL    HW269458   6.648   4.886  10.593 -0.4289  0.1610  0.1154
22673SOL     OW69459   4.040   2.771   2.802  0.1300 -0.8027  0.2682
22673SOL    HW169460   3.980   2.823   2.855 -0.2316  0.3996 -1.2585
22673SOL    HW269461   4.119   2.764   2.855  0.5675  2.1639  0.1779
22674SOL     OW69462   6.399   7.271   6.604 -0.1641 -0.0300  0.1242
22674SOL    HW169463   6.321   7.264   6.549  0.0267 -0.1320 -0.1324
22674SOL    HW269464   6.469   7.235   6.551 -0.0008 -0.2389  0.4788
22675SOL     OW69465   2.035   3.668   8.772 -0.1915 -0.0029 -0.5957
22675SOL    HW169466   1.952   3.709   8.796 -0.1441  0.4266 -1.1178
22675SOL    HW269467   2.081   3.736   8.721  0.6258 -0.1123 -0.0208
22676SOL     OW69468   1.993   3.169   5.741  0.2646 -0.1829  0.7361
22676SOL    HW169469   2.084   3.147   5.762  0.6504  0.4572 -0.2023
22676SOL    HW269470   1.957   3.090   5.703  1.6937  0.6559 -2.8066
22677SOL     OW69471   6.848   0.177   0.602  0.0847  0.0567  0.0008
22677SOL    HW169472   6.753   0.190   0.603  0.3051  1.9601  0.1819
22677SOL    HW269473   6.878   0.226   0.525  0.6420 -3.2560 -2.0576
22678SOL     OW69474   4.770   7.844   3.130  0.5450  0.2220 -1.0905
22678SOL    HW169475   4.748   7.800   3.048  0.7215  0.8513 -1.4836
22678SOL    HW269476   4.847   7.896   3.109  0.3928  0.6443 -0.6082
22679SOL     OW69477   7.508   4.205   5.732  0.1184  0.2618  0.0611
22679SOL    HW169478   7.433   4.159   5.695  1.3316 -0.1654 -2.0408
22679SOL    HW269479   7.512   4.287   5.684  0.8840  0.3446  0.2474
22680SOL     OW69480   0.222   1.299   1.110 -0.3041 -0.2269  0.0879
22680SOL    HW169481   0.183   1.239   1.173  1.3529 -1.3102  0.1360
22680SOL    HW269482   0.242   1.377   1.162 -0.9254 -0.2685  0.4068
22681SOL     OW69483   0.683   7.608   0.737 -0.0635 -0.1305  0.5290
22681SOL    HW169484   0.600   7.656   0.740 -0.3072 -0.5665  1.1849
22681SOL    HW269485   0.717   7.615   0.826  0.7049  0.2044  0.2161
22682SOL     OW69486   1.769   0.402   5.287  0.0926 -0.1922 -0.5760
22682SOL    HW169487   1.739   0.360   5.207  0.2571  0.0911 -0.7882
22682SOL    HW269488   1.862   0.378   5.294 -1.0586 -5.0406  2.5481
22683SOL     OW69489   1.268   7.437   8.418 -0.1015 -0.0972 -0.0099
22683SOL    HW169490   1.242   7.518   8.461  0.3882 -1.1685  2.5020
22683SOL    HW269491   1.217   7.369   8.461  1.5897 -1.4300  0.0052
22684SOL     OW69492   3.217   2.880   4.770 -0.0423 -0.0330  0.4969
22684SOL    HW169493   3.271   2.959   4.775 -0.0685  0.1104 -0.9563
22684SOL    HW269494   3.144   2.904   4.713 -0.2636 -0.9844  0.3624
22685SOL     OW69495   4.632   3.652   2.214 -0.7140 -0.3286  0.4805
22685SOL    HW169496   4.574   3.628   2.141  0.3071 -5.7391  1.0573
22685SOL    HW269497   4.576   3.650   2.291 -0.8683  0.5326  0.3968
22686SOL     OW69498   5.177   7.569   7.499 -0.3878  0.1694 -0.1034
22686SOL    HW169499   5.124   7.506   7.548 -0.0673  0.3034  0.4333
22686SOL    HW269500   5.266   7.534   7.503 -0.3544  0.2011 -0.5663
22687SOL     OW69501   2.140   4.704   0.778 -0.4243  0.2405 -0.7154
22687SOL    HW169502   2.122   4.758   0.855 -1.5421 -2.2626  0.9034
22687SOL    HW269503   2.215   4.746   0.736 -0.1570  2.0327  1.3847
22688SOL     OW69504   2.593   2.190   5.923 -0.4814  0.2947 -0.1409
22688SOL    HW169505   2.597   2.269   5.977  1.2677 -0.1660  0.4454
22688SOL    HW269506   2.668   2.197   5.864 -0.5647 -0.7146 -0.3870
22689SOL     OW69507   6.647   7.706  10.032  0.0379  0.2240 -0.1396
22689SOL    HW169508   6.595   7.627  10.022  0.2690  0.0963 -0.3359
22689SOL    HW269509   6.651   7.743   9.943  0.9281 -0.1758 -0.2729
22690SOL     OW69510   1.267   3.268   2.993  0.0308 -0.3371 -0.2621
22690SOL    HW169511   1.173   3.275   3.008  0.1997 -0.5106  0.9869
22690SOL    HW269512   1.301   3.355   3.013  0.0324 -0.0017 -1.6536
22691SOL     OW69513   7.553   4.069   9.609  0.7802 -0.2840 -0.6254
22691SOL    HW169514   7.591   4.131   9.547  0.1590 -0.3421 -1.0820
22691SOL    HW269515   7.484   4.118   9.653 -0.1227 -0.7942 -1.4182
22692SOL     OW69516   1.126   4.604   0.992  0.4034  0.0594 -0.0783
22692SOL    HW169517   1.183   4.661   1.044 -0.5895  2.1294 -1.1050
22692SOL    HW269518   1.038   4.627   1.020 -0.0548 -0.3735 -1.1072
22693SOL     OW69519   5.963   7.368  11.032 -0.2705  0.4429  0.8564
22693SOL    HW169520   5.977   7.438  10.969  0.2837 -0.1246  0.3392
22693SOL    HW269521   5.886   7.321  10.998  0.6314 -0.4840  0.0062
22694SOL     OW69522   1.944   0.194   9.600 -0.1798 -0.3530  0.3653
22694SOL    HW169523   1.983   0.177   9.686  0.1664  0.6771  0.4187
22694SOL    HW269524   2.014   0.173   9.538 -0.3508 -0.8576  0.3342
22695SOL     OW69525   3.885   5.307   4.633  0.1760  1.0327 -0.2959
22695SOL    HW169526   3.901   5.229   4.685  0.3032  0.8108 -0.6682
22695SOL    HW269527   3.953   5.306   4.566  0.4783  1.7207 -0.0047
22696SOL     OW69528   7.578   6.277   8.451  0.6224 -0.1443 -0.2576
22696SOL    HW169529   7.561   6.366   8.479 -1.0588 -0.9229  1.4515
22696SOL    HW269530   7.522   6.265   8.374  2.2549  0.7752 -1.6674
22697SOL     OW69531   3.022   3.897   0.403 -0.0651  0.2410  0.4034
22697SOL    HW169532   2.965   3.944   0.464  0.7906  1.5399  0.2209
22697SOL    HW269533   3.060   3.964   0.348  0.2423 -0.7914 -0.6881
22698SOL     OW69534   0.138   1.158   0.429 -0.1599 -0.0448 -0.4251
22698SOL    HW169535   0.227   1.124   0.424  0.0443  0.4562 -0.2822
22698SOL    HW269536   0.140   1.240   0.380 -0.1291  0.7951  0.9174
22699SOL     OW69537   6.147   5.938   0.762  0.1346 -0.2886  0.0277
22699SOL    HW169538   6.163   6.027   0.732 -0.5999 -0.4991 -1.0230
22699SOL    HW269539   6.230   5.911   0.802  0.4360  0.7747  0.1436
22700SOL     OW69540   1.577   5.161   7.565 -0.3749 -0.1687  0.4852
22700SOL    HW169541   1.556   5.228   7.500  0.6766  0.3422  0.6477
22700SOL    HW269542   1.605   5.210   7.642 -1.7110 -0.7638  1.3816
22701SOL     OW69543   6.216   7.970   0.292 -0.1133 -0.0349  0.3204
22701SOL    HW169544   6.198   8.030   0.220 -3.0460  0.4127  1.2813
22701SOL    HW269545   6.245   7.889   0.249 -0.1347  0.7411 -1.2347
22702SOL     OW69546   4.577   6.409   4.007  0.3376 -0.2131  0.2951
22702SOL    HW169547   4.599   6.372   4.092 -0.4213 -0.9174  0.1987
22702SOL    HW269548   4.500   6.360   3.978 -1.6877  2.4095  0.8185
22703SOL     OW69549   3.054   0.175   2.830  0.2246 -0.0874  0.6836
22703SOL    HW169550   3.115   0.115   2.873 -2.1418 -3.7630 -0.6329
22703SOL    HW269551   3.080   0.174   2.738 -1.4925 -1.4729  0.1566
22704SOL     OW69552   4.440   7.653   8.972 -0.1014 -0.2151  0.5213
22704SOL    HW169553   4.427   7.704   8.892  0.6900 -0.1112  0.4506
22704SOL    HW269554   4.531   7.624   8.967 -0.0806 -0.3072  1.3298
22705SOL     OW69555   5.319   5.168  10.306 -0.0762  0.3699 -0.4912
22705SOL    HW169556   5.345   5.155  10.215  1.6066 -0.7312  0.1015
22705SOL    HW269557   5.386   5.225  10.342  0.1518 -0.4551  0.4325
22706SOL     OW69558   1.211   4.894   2.704 -0.0493 -0.0241 -0.1187
22706SOL    HW169559   1.136   4.851   2.744 -0.7381  2.0068  0.9008
22706SOL    HW269560   1.281   4.885   2.770 -0.3446  0.8523  0.3172
22707SOL     OW69561   2.396   3.557  12.372  0.0824 -0.1202 -0.0470
22707SOL    HW169562   2.380   3.463  12.368  0.3387 -0.1300 -2.1080
22707SOL    HW269563   2.486   3.566  12.401  0.3578 -0.5570 -0.7618
22708SOL     OW69564   0.822   7.685   9.437 -0.3951 -0.8887  0.2817
22708SOL    HW169565   0.851   7.606   9.392  0.1447 -0.6042  0.1220
22708SOL    HW269566   0.853   7.757   9.382  1.5137 -0.4820  1.7831
22709SOL     OW69567   0.408   7.242  11.433  0.3450 -0.1284  0.0018
22709SOL    HW169568   0.355   7.202  11.363 -0.1400  0.8854 -0.2344
22709SOL    HW269569   0.375   7.332  11.439  0.9764  0.0517  0.9488
22710SOL     OW69570   1.228   0.376   8.664  0.2881 -0.2609  0.1111
22710SOL    HW169571   1.276   0.424   8.732  1.1170  1.1706 -1.4233
22710SOL    HW269572   1.141   0.416   8.663  0.6479  0.5283 -0.4493
22711SOL     OW69573   0.600   2.503  10.344  0.0054 -0.4354  0.3282
22711SOL    HW169574   0.506   2.485  10.332  0.2603 -1.1646 -0.8402
22711SOL    HW269575   0.614   2.587  10.302 -0.3152  0.2268  1.5087
22712SOL     OW69576   3.101   7.486  10.077  0.3540  0.3408 -0.1067
22712SOL    HW169577   3.049   7.465  10.000  0.8247 -0.1585 -0.2983
22712SOL    HW269578   3.062   7.434  10.147  0.2898  0.3415 -0.1418
22713SOL     OW69579   7.872   7.613  10.895  0.4012  0.6604  0.6064
22713SOL    HW169580   7.926   7.650  10.965 -0.1190  1.1897  0.7295
22713SOL    HW269581   7.853   7.686  10.837  2.4174 -0.1295 -1.1686
22714SOL     OW69582   1.737   6.780   5.733  0.2101  0.0060  0.1164
22714SOL    HW169583   1.817   6.749   5.689  0.6298  0.2340  0.7036
22714SOL    HW269584   1.741   6.741   5.820 -0.1206  0.3341  0.2816
22715SOL     OW69585   5.919   2.872   2.747  0.0877 -0.0405 -0.2493
22715SOL    HW169586   5.940   2.938   2.682  1.8372 -1.2628 -0.9965
22715SOL    HW269587   5.974   2.894   2.823 -1.9316  1.3725  0.9140
22716SOL     OW69588   0.552   1.389  11.307  0.3122 -0.1305  0.3382
22716SOL    HW169589   0.622   1.433  11.259 -0.5308  1.2618  0.3144
22716SOL    HW269590   0.579   1.398  11.399 -0.6542  2.0405  0.4745
22717SOL     OW69591   0.052   5.863   9.362  0.1650  0.1104 -0.3890
22717SOL    HW169592  -0.032   5.897   9.331 -2.3541 -4.6719  0.2368
22717SOL    HW269593   0.091   5.823   9.284  1.7323  1.8442 -0.5585
22718SOL     OW69594   4.459   0.997   1.383 -0.4417 -0.3189  0.2197
22718SOL    HW169595   4.374   1.024   1.418 -0.0121 -0.0676  1.0967
22718SOL    HW269596   4.502   1.078   1.358  0.0801 -0.3294  1.0540
22719SOL     OW69597   7.745   6.700  11.060  0.3997  0.7789 -0.4525
22719SOL    HW169598   7.711   6.775  11.109 -2.4766 -1.1115  0.6700
22719SOL    HW269599   7.732   6.723  10.968 -1.9415  1.0658 -0.0948
22720SOL     OW69600   5.054   1.821  10.761  0.6066 -0.8669 -0.1108
22720SOL    HW169601   5.098   1.804  10.845 -1.9968  2.8162  2.3241
22720SOL    HW269602   4.972   1.772  10.767 -0.4194  0.8295  0.4602
22721SOL     OW69603   7.823   3.524  10.475  0.1243 -0.4836 -0.0982
22721SOL    HW169604   7.884   3.598  10.476  3.3257 -2.9106  0.5236
22721SOL    HW269605   7.839   3.480  10.392 -1.6933 -0.5768 -0.4391
22722SOL     OW69606   2.394   4.004   2.459  0.3137  0.0248 -0.2013
22722SOL    HW169607   2.402   3.923   2.509 -3.3691 -0.4289 -0.0835
22722SOL    HW269608   2.391   3.976   2.367 -0.4878  0.0522 -0.1891
22723SOL     OW69609   7.073   5.949   5.415 -0.3665  0.4469 -0.3563
22723SOL    HW169610   7.038   5.866   5.385  1.0873 -0.2960 -0.0890
22723SOL    HW269611   7.079   5.939   5.510  0.1665  0.7104 -0.3597
22724SOL     OW69612   5.854   5.815   8.264  0.0842  0.4286  0.0821
22724SOL    HW169613   5.933   5.762   8.257  0.8949  1.6756 -0.4062
22724SOL    HW269614   5.792   5.775   8.203 -0.0624 -1.1784  1.2148
22725SOL     OW69615   4.273   5.306   8.802  0.0514 -0.0261 -0.3784
22725SOL    HW169616   4.208   5.236   8.805  0.9760 -0.9036 -0.0707
22725SOL    HW269617   4.285   5.323   8.708  0.4557 -0.9177 -0.5047
22726SOL     OW69618   3.389   2.226   0.366 -0.0067 -0.5161 -0.4958
22726SOL    HW169619   3.416   2.288   0.434 -0.3853 -2.9032  1.9868
22726SOL    HW269620   3.471   2.187   0.336  0.1320  0.3028 -1.2333
22727SOL     OW69621   3.542   0.780  11.051 -0.6726 -0.0990  0.3765
22727SOL    HW169622   3.562   0.687  11.039 -0.6904 -0.3860  2.1870
22727SOL    HW269623   3.449   0.782  11.072 -0.5284  0.2446  1.0022
22728SOL     OW69624   6.682   4.415   2.525 -0.2814  0.2277  0.3909
22728SOL    HW169625   6.701   4.401   2.433 -0.2847  0.0960  0.4103
22728SOL    HW269626   6.665   4.509   2.532  0.1920  0.3181  0.3422
22729SOL     OW69627   0.414   7.395   8.922 -0.8155 -0.0866  0.6770
22729SOL    HW169628   0.490   7.390   8.863 -1.0098 -0.3123  0.4418
22729SOL    HW269629   0.449   7.432   9.003 -0.9273  2.2511 -0.2486
22730SOL     OW69630   1.537   7.967   4.317 -0.3325  0.1359  0.4910
22730SOL    HW169631   1.542   8.011   4.401  1.3921  2.3050 -0.6337
22730SOL    HW269632   1.530   7.874   4.339  0.5184  0.5863  3.0173
22731SOL     OW69633   1.157   0.040   1.843 -0.3418 -0.3188 -0.2346
22731SOL    HW169634   1.165  -0.038   1.898  0.7669 -0.3881 -0.4706
22731SOL    HW269635   1.194   0.014   1.758  0.6552  0.6448 -0.1185
22732SOL     OW69636   7.224   6.494   1.825 -0.7841  0.0637  0.4268
22732SOL    HW169637   7.277   6.481   1.746 -0.6539 -3.8482  0.9642
22732SOL    HW269638   7.136   6.511   1.792 -0.3363  0.6728 -0.5184
22733SOL     OW69639   5.541   1.534   0.951  0.1275  0.1326 -0.2877
22733SOL    HW169640   5.557   1.549   1.044  0.7437  0.9900 -0.5121
22733SOL    HW269641   5.447   1.516   0.945 -0.0945  1.0019  0.4012
22734SOL     OW69642   3.888   6.238   4.757  0.1152 -0.1053 -0.6811
22734SOL    HW169643   3.939   6.215   4.835  2.3766  1.0802 -1.7198
22734SOL    HW269644   3.933   6.195   4.685 -0.3622  0.9918 -1.6656
22735SOL     OW69645   2.540   3.643   6.139  0.2786 -0.9155 -0.2614
22735SOL    HW169646   2.492   3.642   6.222 -0.1938 -2.5340 -0.5130
22735SOL    HW269647   2.474   3.662   6.073  1.0920  3.3532 -0.1488
22736SOL     OW69648   7.729   7.111   5.286  0.5424  0.1715  0.2674
22736SOL    HW169649   7.797   7.173   5.312 -0.1321  0.8543  0.4244
22736SOL    HW269650   7.766   7.066   5.210  0.9254  0.9789 -0.0424
22737SOL     OW69651   1.187   4.595   5.382  0.2021  0.3141 -0.6091
22737SOL    HW169652   1.227   4.600   5.295 -0.4263 -1.8895 -1.0879
22737SOL    HW269653   1.195   4.503   5.407 -2.7284  0.1469  0.1268
22738SOL     OW69654   4.004   7.750   2.259  0.1741  0.4376  0.3644
22738SOL    HW169655   4.039   7.663   2.236 -0.0204  0.8640 -1.7845
22738SOL    HW269656   3.913   7.733   2.282 -0.0780  0.1096 -0.7643
22739SOL     OW69657   1.010   7.424   7.821  0.1105  0.6418  0.5530
22739SOL    HW169658   0.998   7.417   7.726 -0.3096 -0.4519  0.6661
22739SOL    HW269659   1.068   7.499   7.832  1.7198 -0.3408 -0.7004
22740SOL     OW69660   0.815   7.731  12.153  0.3176 -0.2462  0.7925
22740SOL    HW169661   0.910   7.731  12.142  0.2478  1.6253 -0.2335
22740SOL    HW269662   0.798   7.658  12.212  2.2354 -1.6111 -0.2150
22741SOL     OW69663   2.866   5.626  12.139  0.0138 -0.2040 -0.1598
22741SOL    HW169664   2.866   5.532  12.157 -0.9147 -0.3894 -0.9946
22741SOL    HW269665   2.959   5.651  12.138  0.2133 -0.4501  3.0947
22742SOL     OW69666   3.941   6.377   6.562 -0.5514  0.0118  0.3899
22742SOL    HW169667   3.963   6.470   6.570 -1.8636  0.2991  1.0296
22742SOL    HW269668   3.966   6.339   6.647 -0.9871  0.0107  0.5210
22743SOL     OW69669   3.309   5.148  12.284 -0.5720  0.3664 -0.7779
22743SOL    HW169670   3.352   5.233  12.296  1.2335 -0.3174 -1.9199
22743SOL    HW269671   3.265   5.156  12.199 -0.1294  0.0520 -1.0352
22744SOL     OW69672   3.415   3.495   2.653 -0.6050  0.2966  0.7127
22744SOL    HW169673   3.478   3.526   2.587 -0.8088 -0.9961 -0.1285
22744SOL    HW269674   3.348   3.563   2.656 -1.4441 -0.3416 -1.6446
22745SOL     OW69675   4.975   1.445   3.234  0.3127 -0.3024  0.5576
22745SOL    HW169676   4.969   1.370   3.175 -1.8150 -0.3674  0.7744
22745SOL    HW269677   4.937   1.414   3.317  1.9753  0.2042  1.5689
22746SOL     OW69678   3.463   6.402   1.280 -0.7813  0.4010 -0.3260
22746SOL    HW169679   3.417   6.335   1.229  0.5253  0.2790 -1.4185
22746SOL    HW269680   3.395   6.461   1.311 -1.6194  0.6411 -2.4912
22747SOL     OW69681   1.022   7.056   6.703 -0.0478 -0.1739 -0.3087
22747SOL    HW169682   1.106   7.034   6.744  0.1395 -1.2306 -1.2067
22747SOL    HW269683   1.045   7.082   6.614 -0.5364  1.1843 -0.0659
22748SOL     OW69684   7.468   4.875  10.571  0.1814 -0.1606 -0.2058
22748SOL    HW169685   7.438   4.966  10.576  0.4389 -0.0953  0.1595
22748SOL    HW269686   7.518   4.870  10.490 -0.5250 -0.1850 -0.6521
22749SOL     OW69687   6.528   7.780   3.831  0.0227 -0.4441 -0.5124
22749SOL    HW169688   6.490   7.863   3.803  0.0486 -0.3961 -0.4023
22749SOL    HW269689   6.477   7.714   3.784 -1.6465 -0.4924  1.2916
22750SOL     OW69690   6.347   0.538   7.777 -0.0288  0.6907  0.0137
22750SOL    HW169691   6.386   0.469   7.724  0.3236  0.6246  0.3514
22750SOL    HW269692   6.422   0.585   7.814 -0.2661  0.7940  0.3740
22751SOL     OW69693   6.001   0.791   9.562 -0.2505  0.3264  0.4364
22751SOL    HW169694   6.091   0.813   9.587 -0.1771  0.5097  0.0211
22751SOL    HW269695   5.999   0.695   9.565  0.4512  0.2225 -1.1282
22752SOL     OW69696   5.585   3.265   2.973 -0.1522  0.4594  0.2327
22752SOL    HW169697   5.576   3.201   2.903  0.4686  1.0442 -0.4021
22752SOL    HW269698   5.583   3.350   2.929 -2.2377  0.9756  1.1693
22753SOL     OW69699   2.401   4.330   5.061 -0.3378  0.1584  0.2577
22753SOL    HW169700   2.399   4.379   4.979  2.0322  0.3676  0.2391
22753SOL    HW269701   2.444   4.247   5.038  0.4775  0.2743  1.2660
22754SOL     OW69702   3.925   0.980   0.763  0.2984 -0.2801 -0.3459
22754SOL    HW169703   4.009   1.013   0.796  0.5341  0.5910 -1.7009
22754SOL    HW269704   3.934   0.885   0.764  0.6097 -0.2632  1.1998
22755SOL     OW69705   2.849   6.052   8.218 -0.3126  0.1578  0.6743
22755SOL    HW169706   2.808   5.966   8.207 -1.1976  0.7544 -0.9533
22755SOL    HW269707   2.829   6.076   8.308 -1.8634 -0.4460  0.5250
22756SOL     OW69708   3.858   6.368   8.401  0.1412 -0.7006 -0.1197
22756SOL    HW169709   3.831   6.276   8.399  1.4157 -1.0901 -0.2844
22756SOL    HW269710   3.928   6.373   8.335  2.5993 -0.4584  2.3446
22757SOL     OW69711   6.834   6.215  11.146  0.2013 -0.4876 -0.1571
22757SOL    HW169712   6.812   6.198  11.237  1.4583  0.4461  0.3562
22757SOL    HW269713   6.864   6.306  11.145  0.0738 -0.4355 -1.5325
22758SOL     OW69714   3.047   4.679   7.212 -0.1244 -0.3260  0.4668
22758SOL    HW169715   3.139   4.691   7.236 -0.5815  0.8171  1.8276
22758SOL    HW269716   3.025   4.759   7.163  0.3581 -1.9169 -2.5454
22759SOL     OW69717   7.678   5.194   1.828  0.4551  0.5199 -0.0804
22759SOL    HW169718   7.702   5.266   1.886  0.2226 -0.3476  1.1085
22759SOL    HW269719   7.613   5.144   1.876  1.7969 -1.4323 -0.1791
22760SOL     OW69720   0.370   3.329   3.105  0.6457  0.1167 -0.1648
22760SOL    HW169721   0.435   3.385   3.062 -0.3236  0.4367 -1.2517
22760SOL    HW269722   0.291   3.339   3.053 -0.1578 -0.6380  0.8616
22761SOL     OW69723   2.204   5.676  10.378  0.1356  0.1220 -0.0957
22761SOL    HW169724   2.262   5.715  10.443  1.1124  0.5712 -1.2078
22761SOL    HW269725   2.258   5.610  10.334 -0.7947 -0.8421  0.1681
22762SOL     OW69726   1.616   2.368   0.895 -0.1498 -0.4715  0.4404
22762SOL    HW169727   1.615   2.282   0.936  0.8817 -1.1112 -0.8120
22762SOL    HW269728   1.679   2.360   0.824 -0.2541  1.2405  0.1138
22763SOL     OW69729   3.672   0.051  11.641  0.4441  1.2407  0.3578
22763SOL    HW169730   3.632  -0.035  11.656  0.5211  1.3984  1.5086
22763SOL    HW269731   3.665   0.064  11.546 -1.3173  0.8129  0.3977
22764SOL     OW69732   4.312   3.241   0.756 -0.0881  0.6069  0.2974
22764SOL    HW169733   4.330   3.153   0.789 -0.0907  0.7834  0.7712
22764SOL    HW269734   4.266   3.227   0.673  0.3840  0.1607  0.1105
22765SOL     OW69735   7.664   1.185  10.015 -0.2083 -0.3824  0.0936
22765SOL    HW169736   7.696   1.137  10.091 -0.7135 -0.1145  0.4815
22765SOL    HW269737   7.740   1.236   9.985 -0.0748 -0.3051  0.5605
22766SOL     OW69738   0.294   7.681  10.626  0.6531  0.2138  0.0147
22766SOL    HW169739   0.312   7.685  10.532  2.0737  1.6370  0.3091
22766SOL    HW269740   0.361   7.622  10.661 -0.4513 -1.0665  0.0396
22767SOL     OW69741   5.018   1.976   8.598  0.4482  0.0010 -0.6442
22767SOL    HW169742   5.057   1.922   8.529 -1.6166 -1.0482 -1.0667
22767SOL    HW269743   4.962   1.916   8.647 -1.1458  1.5491 -0.4812
22768SOL     OW69744   7.680   7.464   5.877 -0.2725  0.2741  0.0388
22768SOL    HW169745   7.759   7.496   5.921 -0.0294  1.2941 -1.0873
22768SOL    HW269746   7.657   7.533   5.815 -1.8681 -0.1615  0.1007
22769SOL     OW69747   1.172   6.213   1.921  0.0022  0.1480 -0.0855
22769SOL    HW169748   1.093   6.262   1.943 -1.4192 -1.4943 -1.2736
22769SOL    HW269749   1.232   6.279   1.885 -0.7972  1.4189  0.8450
22770SOL     OW69750   0.413   7.721   2.084 -0.2513  0.0133 -0.2174
22770SOL    HW169751   0.395   7.660   2.156  1.4639  1.2446  1.3607
22770SOL    HW269752   0.347   7.789   2.093 -0.4170 -0.1519 -0.1814
22771SOL     OW69753   4.842   1.264  11.853 -0.2246 -0.3226 -0.1470
22771SOL    HW169754   4.809   1.328  11.916 -3.2803 -0.6438 -1.2737
22771SOL    HW269755   4.802   1.181  11.879 -0.2174 -0.7851 -1.5284
22772SOL     OW69756   2.000   1.022   8.275 -0.2872  0.0239  0.4193
22772SOL    HW169757   2.033   0.932   8.269 -0.6560 -0.0240 -1.9497
22772SOL    HW269758   1.908   1.015   8.250 -0.6155  0.9338  1.3149
22773SOL     OW69759   4.537   4.380   9.468 -0.4351 -0.0799  0.1045
22773SOL    HW169760   4.448   4.353   9.491 -0.8325  1.5513  0.6079
22773SOL    HW269761   4.577   4.404   9.552  1.1539 -2.4933  0.1565
22774SOL     OW69762   5.117   6.103   4.545 -0.3781 -0.0240 -0.3680
22774SOL    HW169763   5.076   6.140   4.467 -0.2008 -0.1989 -0.5469
22774SOL    HW269764   5.064   6.135   4.618 -1.9841 -1.7544 -0.7019
22775SOL     OW69765   3.436   0.971   1.765 -0.7950 -0.2560 -0.1282
22775SOL    HW169766   3.404   0.881   1.761  1.6626 -1.1828 -1.1106
22775SOL    HW269767   3.430   0.995   1.857  0.4040 -2.2256  0.5264
22776SOL     OW69768   6.037   4.601   9.833 -0.2854  0.1752  0.4222
22776SOL    HW169769   5.957   4.611   9.885 -1.5218 -0.6098 -1.2038
22776SOL    HW269770   6.040   4.681   9.779  0.0219  0.1957  0.4669
22777SOL     OW69771   4.964   3.069   7.624 -0.6473  0.3242 -0.1232
22777SOL    HW169772   4.928   3.028   7.702 -0.8200 -0.3077 -0.5197
22777SOL    HW269773   4.940   3.161   7.631 -0.2483  0.3698  0.7936
22778SOL     OW69774   5.493   3.537   1.978 -0.0045 -0.8840  0.0020
22778SOL    HW169775   5.455   3.504   1.896  1.5255 -1.3944 -0.5399
22778SOL    HW269776   5.526   3.459   2.022  0.7908 -0.4194  0.2473
22779SOL     OW69777   1.970   1.058   0.718  0.2464 -0.5303 -0.1012
22779SOL    HW169778   2.058   1.093   0.735 -0.3452  0.9739  0.0453
22779SOL    HW269779   1.949   1.006   0.795  1.3532 -1.6658 -0.5318
22780SOL     OW69780   1.964   1.672   0.017 -0.4103  0.0690  0.9302
22780SOL    HW169781   2.017   1.610   0.066  0.1518 -0.8754 -0.8174
22780SOL    HW269782   1.875   1.636   0.020 -0.1023 -0.7865 -0.0015
22781SOL     OW69783   2.297   4.799  10.219 -0.2151  0.0792 -0.4309
22781SOL    HW169784   2.271   4.761  10.135  2.9799 -0.0491 -1.5004
22781SOL    HW269785   2.307   4.724  10.278 -2.7269  0.1932  0.2145
22782SOL     OW69786   6.009   7.780   1.399  0.0498  0.1531  0.0188
22782SOL    HW169787   6.024   7.870   1.425  1.7443  0.0009 -0.3119
22782SOL    HW269788   6.041   7.775   1.309  1.4137 -1.1044  0.5236
22783SOL     OW69789   0.236   1.493   7.912 -0.2419 -0.6507  0.1268
22783SOL    HW169790   0.205   1.530   7.994  2.3355 -2.1874  1.9630
22783SOL    HW269791   0.328   1.520   7.906 -0.3537 -0.5557 -2.3067
22784SOL     OW69792   5.630   7.519   7.264 -0.5869  0.2591  0.1297
22784SOL    HW169793   5.656   7.551   7.351 -1.0349  0.0183  0.3537
22784SOL    HW269794   5.584   7.437   7.282  0.0692 -0.2407 -0.3998
22785SOL     OW69795   1.997   7.220   2.041 -0.3008 -0.5105  0.1734
22785SOL    HW169796   1.936   7.170   2.096  0.3008 -1.6253 -0.1301
22785SOL    HW269797   2.016   7.299   2.091 -0.3681 -1.1418  1.2273
22786SOL     OW69798   6.227   2.809  10.500  0.3639 -0.3681 -0.0488
22786SOL    HW169799   6.181   2.875  10.448 -3.1627 -0.8490  2.0935
22786SOL    HW269800   6.201   2.725  10.462 -0.9133 -0.6572  1.3422
22787SOL     OW69801   6.599   7.541   3.389  0.0903  0.3947  1.0472
22787SOL    HW169802   6.593   7.472   3.456 -2.4816  1.1726  1.7665
22787SOL    HW269803   6.552   7.505   3.314 -1.7883  1.4806  1.6327
22788SOL     OW69804   2.726   1.052   7.732 -0.3312 -0.3822  0.6240
22788SOL    HW169805   2.761   1.115   7.668  0.0275  0.5227  1.6694
22788SOL    HW269806   2.651   1.012   7.688 -1.4437  1.8053  0.4030
22789SOL     OW69807   6.434   7.571   3.686  0.2236  0.3265 -0.2270
22789SOL    HW169808   6.511   7.527   3.650  0.5057  0.2275  0.4795
22789SOL    HW269809   6.422   7.530   3.771  0.0024  1.0648  0.0991
22790SOL     OW69810   0.645   3.298   4.290  0.7857 -0.2123  0.5450
22790SOL    HW169811   0.698   3.248   4.227 -0.2720 -0.0652 -0.5121
22790SOL    HW269812   0.557   3.298   4.252  0.7505  2.5389  0.4347
22791SOL     OW69813   7.607   4.806   3.700 -0.5076 -0.0702  0.1211
22791SOL    HW169814   7.573   4.822   3.612 -0.9090 -0.2973  0.2326
22791SOL    HW269815   7.546   4.853   3.758  1.1809  2.2821  0.1482
22792SOL     OW69816   0.070   5.978   1.430  0.7113 -0.3033 -0.2708
22792SOL    HW169817   0.044   5.926   1.354 -1.7975  1.2255 -0.5520
22792SOL    HW269818   0.145   6.030   1.399 -1.7348  2.1395 -2.6685
22793SOL     OW69819   2.929   1.722   4.865 -0.4391 -0.1103 -0.0951
22793SOL    HW169820   2.943   1.631   4.839  0.9287  0.0686 -0.0476
22793SOL    HW269821   2.849   1.719   4.917 -1.2455 -1.0362 -1.3196
22794SOL     OW69822   7.818   3.996   6.222 -0.0018 -0.1436  0.2108
22794SOL    HW169823   7.863   4.077   6.195 -0.3578 -0.0327 -0.0697
22794SOL    HW269824   7.758   3.978   6.149 -0.7441 -0.0273  0.7868
22795SOL     OW69825   0.018   4.153   2.135 -0.2561  0.0525 -0.1727
22795SOL    HW169826  -0.045   4.210   2.092 -1.3439  0.0189  1.2796
22795SOL    HW269827   0.076   4.123   2.065 -0.8462  1.3940 -1.2708
22796SOL     OW69828   6.410   6.875   9.494  0.4164 -0.5798  0.4388
22796SOL    HW169829   6.399   6.961   9.453 -0.3378 -0.4847  0.8187
22796SOL    HW269830   6.328   6.829   9.475  0.7197 -1.1290  0.4445
22797SOL     OW69831   4.361   4.223  10.209  0.1053 -0.0213 -0.4658
22797SOL    HW169832   4.416   4.177  10.145 -0.2261 -0.7378 -0.2497
22797SOL    HW269833   4.284   4.168  10.218  1.2246 -1.3478  2.4264
22798SOL     OW69834   3.353   2.941   4.166 -0.3707 -0.0948  0.1017
22798SOL    HW169835   3.320   3.027   4.140  0.6134 -0.2104 -1.6811
22798SOL    HW269836   3.448   2.946   4.154  0.0041 -0.7230  2.2421
22799SOL     OW69837   5.752   0.013   2.433  0.1042  0.1633  0.4258
22799SOL    HW169838   5.814   0.020   2.505 -1.0262  1.1884  1.3409
22799SOL    HW269839   5.753   0.099   2.392 -0.7444  0.2166  0.4989
22800SOL     OW69840   3.581   7.813   6.973 -0.7569  0.3090 -0.2835
22800SOL    HW169841   3.512   7.875   6.948 -1.6709 -0.8778 -0.7743
22800SOL    HW269842   3.535   7.743   7.018  0.5845  1.3348  2.9880
22801SOL     OW69843   2.559   3.529   1.082  0.1390  0.4724  0.3102
22801SOL    HW169844   2.635   3.549   1.136 -0.1900  0.7076  0.6892
22801SOL    HW269845   2.504   3.607   1.088 -1.3271 -0.6161  2.0986
22802SOL     OW69846   2.633   7.219   9.476  0.3743 -0.3209  0.7375
22802SOL    HW169847   2.542   7.240   9.497  0.5921  0.9920  0.4560
22802SOL    HW269848   2.669   7.301   9.443  0.2066 -1.9571 -4.3941
22803SOL     OW69849   0.916   3.217   5.109 -0.4394  0.3558 -0.4977
22803SOL    HW169850   0.837   3.195   5.059 -0.9992  0.5560  0.2810
22803SOL    HW269851   0.883   3.248   5.193  0.3488  2.7744 -1.0092
22804SOL     OW69852   6.687   1.602   9.292 -0.2351 -0.0893  0.6593
22804SOL    HW169853   6.743   1.529   9.265 -1.1909 -0.4108 -0.5921
22804SOL    HW269854   6.600   1.577   9.260 -0.4736  1.8569 -0.3328
22805SOL     OW69855   5.103   5.285   6.931  0.3748 -0.0169 -0.3042
22805SOL    HW169856   5.187   5.274   6.886  1.3390  0.1297  1.3729
22805SOL    HW269857   5.084   5.199   6.967 -0.2185 -0.0530 -0.6943
22806SOL     OW69858   4.780   3.963   5.910  0.0512 -0.2338  0.0102
22806SOL    HW169859   4.807   3.918   5.990  0.4109  0.1782  0.1314
22806SOL    HW269860   4.764   3.893   5.847 -0.6253 -0.5825  0.5548
22807SOL     OW69861   0.963   7.083   0.978 -0.1084 -0.1579 -0.3431
22807SOL    HW169862   1.017   7.062   1.054 -0.7933 -0.4366  0.0818
22807SOL    HW269863   1.013   7.051   0.903  0.0016 -1.0683  0.1041
22808SOL     OW69864   7.332   0.754   6.594 -0.1875 -0.2890  0.9364
22808SOL    HW169865   7.368   0.828   6.547  1.0336 -0.8063  1.0080
22808SOL    HW269866   7.274   0.792   6.660  1.4974  0.7177  1.9083
22809SOL     OW69867   4.641   0.725  10.507 -0.2690 -0.4600 -0.2405
22809SOL    HW169868   4.582   0.659  10.541  0.4114 -1.5013 -0.9888
22809SOL    HW269869   4.729   0.689  10.522  0.1682  0.7563  0.2797
22810SOL     OW69870   2.469   0.275   9.995  0.7345  0.3767  0.1529
22810SOL    HW169871   2.468   0.371  10.003 -0.0627  0.3731  0.1521
22810SOL    HW269872   2.377   0.250   9.991  0.9367 -0.3960  0.1520
22811SOL     OW69873   1.048   5.086   9.151 -0.1069 -0.3329 -0.4168
22811SOL    HW169874   1.023   5.176   9.129  1.2623  0.9778  2.7538
22811SOL    HW269875   1.138   5.078   9.120 -0.2358 -0.6117 -0.7170
22812SOL     OW69876   0.411   7.762   7.973 -0.6533 -0.4684 -0.3335
22812SOL    HW169877   0.361   7.724   7.901 -0.3743 -0.6753 -0.4175
22812SOL    HW269878   0.418   7.691   8.037  1.3108 -1.1182 -1.2001
22813SOL     OW69879   1.337   3.544   1.569 -0.3351 -0.0912 -0.0922
22813SOL    HW169880   1.275   3.471   1.563 -0.8453  0.4167 -1.2637
22813SOL    HW269881   1.339   3.581   1.481  1.1464  0.3234  0.0812
22814SOL     OW69882   7.001   0.694   6.335  0.1732 -0.0079  0.4830
22814SOL    HW169883   7.015   0.655   6.421  0.6307  0.3372  0.5616
22814SOL    HW269884   7.084   0.736   6.313  0.3038 -0.7122 -0.4443
22815SOL     OW69885   0.753   1.019   5.730 -0.7893  0.1096 -0.2356
22815SOL    HW169886   0.710   0.938   5.760 -1.0658  0.8502  1.4574
22815SOL    HW269887   0.701   1.047   5.655 -0.8838 -1.1074 -0.6448
22816SOL     OW69888   5.788   2.441   5.735  0.4156  0.2219 -0.2239
22816SOL    HW169889   5.845   2.365   5.735  1.7772  1.1372  2.2129
22816SOL    HW269890   5.793   2.475   5.824 -3.4505  0.7910 -0.0625
22817SOL     OW69891   4.054   7.481   2.179 -0.4078  0.4247  0.0275
22817SOL    HW169892   4.110   7.439   2.244  1.2899  3.4300  0.7121
22817SOL    HW269893   4.095   7.462   2.095 -1.9218 -2.4340 -0.2064
22818SOL     OW69894   6.216   4.151  10.313  0.4167 -0.5573  0.3952
22818SOL    HW169895   6.179   4.123  10.397  1.2208 -0.5218  0.7816
22818SOL    HW269896   6.295   4.097  10.303 -0.1841 -1.2565 -0.8297
22819SOL     OW69897   0.563   5.419  12.051  0.1484  0.1766  0.2138
22819SOL    HW169898   0.643   5.367  12.050 -0.2113 -0.4033  0.9802
22819SOL    HW269899   0.587   5.500  12.006  0.8957 -0.3748 -0.4088
22820SOL     OW69900   1.463   6.394   1.008 -0.0539 -0.0620  0.2044
22820SOL    HW169901   1.527   6.324   1.023  0.3436 -0.3944 -2.5432
22820SOL    HW269902   1.500   6.470   1.053 -0.0003 -1.3070  2.4149
22821SOL     OW69903   6.683   4.247   7.786 -0.0952 -0.3105  0.0588
22821SOL    HW169904   6.627   4.260   7.709  1.7925 -1.8442 -1.6908
22821SOL    HW269905   6.661   4.159   7.817  3.2154 -2.2673 -2.5143
22822SOL     OW69906   2.816   5.795   6.592 -0.3201 -0.6930 -0.3332
22822SOL    HW169907   2.791   5.729   6.527  1.3708 -0.7789 -0.9589
22822SOL    HW269908   2.849   5.744   6.666  0.0745 -0.5779 -0.4252
22823SOL     OW69909   2.137   7.475   6.695 -0.1451 -0.0454  0.3774
22823SOL    HW169910   2.083   7.405   6.659 -1.5047  1.5782 -0.8992
22823SOL    HW269911   2.210   7.483   6.634  0.2842 -0.6408  0.7958
22824SOL     OW69912   5.387   5.614   7.650  0.3801 -0.0763  0.4869
22824SOL    HW169913   5.320   5.545   7.647  0.3784 -0.0463 -0.3322
22824SOL    HW269914   5.426   5.613   7.563 -0.8218  2.1388 -0.1428
22825SOL     OW69915   7.357   0.478   3.107  0.3084 -0.4809 -0.9007
22825SOL    HW169916   7.443   0.500   3.143  0.3214  0.2750 -1.3802
22825SOL    HW269917   7.328   0.557   3.061 -1.3649 -0.1398  0.6054
22826SOL     OW69918   7.905   1.763   5.512 -0.0637 -0.2885 -0.1311
22826SOL    HW169919   7.822   1.787   5.471  0.6216 -1.3225 -2.2714
22826SOL    HW269920   7.887   1.681   5.558 -0.5673  0.2911  0.7338
22827SOL     OW69921   6.328   6.972   9.746  0.6106  0.4623 -0.4536
22827SOL    HW169922   6.372   6.968   9.661  0.7363 -0.1006 -0.3688
22827SOL    HW269923   6.336   7.063   9.773  0.1883  0.7423 -1.2460
22828SOL     OW69924   1.281   2.165   1.767 -0.5250 -0.1197  0.0320
22828SOL    HW169925   1.281   2.079   1.808 -0.0506 -0.1884 -0.1105
22828SOL    HW269926   1.372   2.194   1.769 -0.4164 -0.3009 -1.3173
22829SOL     OW69927   4.718   2.868   8.245  0.4523  0.3078 -0.1629
22829SOL    HW169928   4.780   2.912   8.303  1.5898  1.0019 -1.8111
22829SOL    HW269929   4.633   2.909   8.264  0.7698  0.4316  1.0503
22830SOL     OW69930   2.540   0.782   6.359  0.4832  0.6475 -0.4292
22830SOL    HW169931   2.467   0.796   6.420  0.0472  0.1903 -0.8389
22830SOL    HW269932   2.553   0.868   6.317  1.9650  1.4744  1.5494
22831SOL     OW69933   3.952   1.070  11.063 -0.4447 -0.6222  0.9275
22831SOL    HW169934   3.868   1.034  11.033 -1.4775 -0.3032  3.2119
22831SOL    HW269935   3.975   1.016  11.139 -0.6023  1.6546  2.7120
22832SOL     OW69936   2.413   2.601   1.210  0.1724 -0.0738  0.5839
22832SOL    HW169937   2.429   2.508   1.195  0.1805 -0.1152  0.8449
22832SOL    HW269938   2.444   2.644   1.130 -1.6249 -0.4543 -0.3512
22833SOL     OW69939   7.718   7.555  11.688  0.0758  0.4216 -0.0631
22833SOL    HW169940   7.760   7.526  11.768  1.1391  1.0171 -0.3971
22833SOL    HW269941   7.766   7.633  11.661  0.3442 -0.2916 -1.7750
22834SOL     OW69942   6.870   6.138   5.701  0.3991 -0.0722  0.1061
22834SOL    HW169943   6.789   6.146   5.651 -0.7856  0.5926  2.0335
22834SOL    HW269944   6.897   6.047   5.688  1.4545  0.6027 -3.5396
22835SOL     OW69945   4.769   4.483   1.883  0.5160  0.5738 -0.0118
22835SOL    HW169946   4.848   4.482   1.828  0.0356  3.1841 -0.9258
22835SOL    HW269947   4.795   4.438   1.963  2.3934 -0.1591 -0.9654
22836SOL     OW69948   6.528   3.141  11.545 -0.2272  0.4450  0.0809
22836SOL    HW169949   6.476   3.209  11.501 -0.8558 -0.1896 -0.1772
22836SOL    HW269950   6.525   3.165  11.638 -1.4621  0.1157  0.1424
22837SOL     OW69951   4.990   0.848  12.022  0.2759  0.1072 -0.4324
22837SOL    HW169952   4.955   0.899  11.949 -1.0944  0.5909  0.5041
22837SOL    HW269953   5.085   0.853  12.013  0.1429  1.4945 -1.2743
22838SOL     OW69954   4.258   2.734   3.217  0.0636 -0.7779  0.2300
22838SOL    HW169955   4.254   2.820   3.257 -1.4212 -0.2777 -0.9154
22838SOL    HW269956   4.305   2.748   3.135 -0.7171 -0.9285 -0.2485
22839SOL     OW69957   5.024   3.699   5.621  0.5685  0.1795  0.4529
22839SOL    HW169958   4.970   3.643   5.676  1.2199 -0.3650  0.5551
22839SOL    HW269959   5.026   3.654   5.536  1.9538 -0.5322  0.8332
22840SOL     OW69960   3.062   4.164  11.567 -0.6955  0.2590  0.3377
22840SOL    HW169961   3.012   4.111  11.505 -0.9407  2.2926 -1.2972
22840SOL    HW269962   3.153   4.139  11.552 -0.5300  2.1856 -2.4484
22841SOL     OW69963   0.992   6.971  12.368  0.3062 -0.9337 -0.3526
22841SOL    HW169964   0.974   6.915  12.444  0.0141 -2.9839 -1.8470
22841SOL    HW269965   1.085   6.958  12.349  1.1376  1.7745  1.2407
22842SOL     OW69966   7.703   4.497  11.749  0.3751 -0.3055  0.1992
22842SOL    HW169967   7.678   4.573  11.802  0.8525 -0.4558  0.6444
22842SOL    HW269968   7.623   4.445  11.743  0.7062 -1.1194  2.1778
22843SOL     OW69969   5.987   2.012  11.175 -0.1461  0.1946 -0.2618
22843SOL    HW169970   5.933   2.085  11.145 -1.3155 -0.2259  0.7398
22843SOL    HW269971   5.927   1.938  11.178  0.4564 -0.2737  0.9449
22844SOL     OW69972   1.873   4.096   6.848 -0.6069  0.0827 -0.7423
22844SOL    HW169973   1.810   4.029   6.875  1.0171 -2.3616 -2.5182
22844SOL    HW269974   1.847   4.118   6.758  1.7083 -2.0696 -2.0864
22845SOL     OW69975   5.725   3.715  11.667  0.3928 -0.5173 -0.0837
22845SOL    HW169976   5.763   3.803  11.665 -2.3808  0.8159  0.8069
22845SOL    HW269977   5.691   3.702  11.578 -2.0779  0.7763  0.5986
22846SOL     OW69978   7.869   1.216  10.848 -0.3456  0.4199  0.0227
22846SOL    HW169979   7.806   1.152  10.880  0.0680 -0.1176 -0.2228
22846SOL    HW269980   7.904   1.257  10.927  0.4527 -0.6893  0.2632
22847SOL     OW69981   2.859   2.525   9.772 -0.0329  0.5590 -0.6155
22847SOL    HW169982   2.894   2.525   9.683 -0.1903 -0.0015 -0.6791
22847SOL    HW269983   2.861   2.433   9.799 -0.5756  0.6417 -0.2749
22848SOL     OW69984   5.579   4.048  11.839  0.0102  0.0295 -0.1384
22848SOL    HW169985   5.577   3.996  11.759 -1.3312  0.3495 -0.3343
22848SOL    HW269986   5.656   4.104  11.828  1.3770 -1.7310  0.0005
22849SOL     OW69987   7.238   1.107   1.746 -0.0824  0.2641 -0.0119
22849SOL    HW169988   7.154   1.079   1.710  0.0406 -0.0420 -0.0580
22849SOL    HW269989   7.218   1.134   1.836 -0.2292  0.1863 -0.0212
22850SOL     OW69990   4.610   1.139   7.627  0.4943  0.0697  0.1436
22850SOL    HW169991   4.540   1.079   7.652  1.8293 -1.2296  0.9465
22850SOL    HW269992   4.565   1.215   7.591 -1.2961 -0.9447  0.1327
22851SOL     OW69993   6.216   5.704   6.338  0.1786 -0.5455  0.6391
22851SOL    HW169994   6.198   5.769   6.407 -0.4430 -0.5865  0.5162
22851SOL    HW269995   6.252   5.756   6.266 -0.4438 -0.3169  0.4906
22852SOL     OW69996   0.612   5.360   8.392  0.3404  0.2452  0.0951
22852SOL    HW169997   0.621   5.442   8.440 -1.1079  0.3365  0.2773
22852SOL    HW269998   0.681   5.304   8.426  0.3964  0.8807  1.0638
22853SOL     OW69999   7.183   4.397   9.836  0.1758  0.6147 -0.6175
22853SOL    HW170000   7.185   4.458   9.762 -1.0931 -1.6751 -2.6940
22853SOL    HW270001   7.092   4.369   9.842  1.1664 -3.9179 -2.4283
22854SOL     OW70002   4.326   7.595   7.691  0.2770  0.7680 -0.1481
22854SOL    HW170003   4.411   7.581   7.650  0.6505 -0.8979  1.0900
22854SOL    HW270004   4.279   7.512   7.682 -0.2617  0.8702  1.2781
22855SOL     OW70005   7.663   3.422   7.648  0.6635 -0.0239  0.0228
22855SOL    HW170006   7.725   3.461   7.710  0.1257 -0.3145  0.7497
22855SOL    HW270007   7.622   3.350   7.696  0.6109 -0.5849 -0.8415
22856SOL     OW70008   3.541   6.698   6.290 -0.4447  0.1257  0.3459
22856SOL    HW170009   3.596   6.670   6.363  0.6227  2.4372  0.5080
22856SOL    HW270010   3.500   6.617   6.258  0.1887 -1.1422  2.5529
22857SOL     OW70011   2.259   2.203   4.983  0.7987  0.7741 -0.2540
22857SOL    HW170012   2.176   2.185   5.027  1.4514  0.7580  1.0140
22857SOL    HW270013   2.243   2.282   4.931 -0.8040 -0.7741 -2.2835
22858SOL     OW70014   4.814   3.600   0.629  0.7271  0.4519 -0.6085
22858SOL    HW170015   4.733   3.612   0.580  1.5054  1.0613 -1.7878
22858SOL    HW270016   4.854   3.687   0.631  1.2341  0.2097  0.1950
22859SOL     OW70017   7.812   2.275   4.251  0.1946 -1.3235 -0.5923
22859SOL    HW170018   7.898   2.282   4.211  0.1425 -1.0823 -0.6625
22859SOL    HW270019   7.826   2.220   4.328  0.5410 -0.7546 -0.2366
22860SOL     OW70020   2.074   0.337   1.914 -0.0519 -0.6303  0.9241
22860SOL    HW170021   2.154   0.390   1.921 -0.8000  0.5649  0.7474
22860SOL    HW270022   2.081   0.295   1.829 -0.6887  1.3621 -0.1809
22861SOL     OW70023   3.935   1.638   9.056 -0.1449 -0.2457 -0.2776
22861SOL    HW170024   3.942   1.705   8.988  0.4744  1.3905  1.3216
22861SOL    HW270025   3.841   1.621   9.063 -0.2910  0.2862 -0.8636
22862SOL     OW70026   4.860   1.795   3.905  0.0326  0.3009 -0.1230
22862SOL    HW170027   4.841   1.844   3.985  2.3535  1.0401  0.0369
22862SOL    HW270028   4.779   1.800   3.854 -2.0921 -1.5090  2.7578
22863SOL     OW70029   6.658   3.778   1.235 -0.2421  0.0376  0.5247
22863SOL    HW170030   6.628   3.791   1.145  1.2955 -0.8038 -0.1705
22863SOL    HW270031   6.708   3.857   1.255  3.2551 -1.5050 -1.1358
22864SOL     OW70032   5.094   7.652   4.042 -0.3115 -0.1231 -0.1504
22864SOL    HW170033   5.184   7.678   4.059 -0.3191 -0.4462  0.3896
22864SOL    HW270034   5.099   7.598   3.962  0.0655 -0.7019  0.2618
22865SOL     OW70035   0.356   6.605   0.817  0.4465 -0.3088 -0.2335
22865SOL    HW170036   0.293   6.534   0.809  0.1703 -0.0233 -0.6269
22865SOL    HW270037   0.436   6.563   0.849 -0.5223 -0.3667  2.3183
22866SOL     OW70038   1.662   2.320   5.580 -0.2188 -0.3777 -0.6108
22866SOL    HW170039   1.669   2.234   5.539 -1.8225 -0.8294 -0.0163
22866SOL    HW270040   1.680   2.304   5.673 -0.0530  0.0224 -0.5693
22867SOL     OW70041   2.710   3.562   2.697  0.1729 -0.1582 -0.1814
22867SOL    HW170042   2.697   3.497   2.766 -0.8528  2.3224  2.0907
22867SOL    HW270043   2.800   3.593   2.710 -0.0313  0.3339  0.0498
22868SOL     OW70044   7.305   7.971   0.323 -0.2934 -0.1122 -0.7690
22868SOL    HW170045   7.246   7.949   0.395 -0.2881  1.8618 -0.1073
22868SOL    HW270046   7.274   7.917   0.250 -1.4162 -0.8552  0.2130
22869SOL     OW70047   0.469   2.149   1.915  0.3664  0.1566 -0.7109
22869SOL    HW170048   0.406   2.218   1.892 -2.4639 -1.7546  0.6778
22869SOL    HW270049   0.464   2.143   2.011  0.4853 -1.9611 -0.7935
22870SOL     OW70050   3.408   7.557   3.002 -0.5005 -0.0995 -0.6611
22870SOL    HW170051   3.468   7.631   3.007  0.7284 -1.0734 -0.2004
22870SOL    HW270052   3.462   7.481   3.024 -2.4726 -0.7531  2.6939
22871SOL     OW70053   2.263   5.744   1.887  0.0393 -0.0937  0.4988
22871SOL    HW170054   2.209   5.726   1.964  0.9150 -0.2372  1.0937
22871SOL    HW270055   2.327   5.674   1.885 -0.0419 -0.1600 -0.4439
22872SOL     OW70056   2.719   1.728   6.141  0.1108  0.0372 -0.1769
22872SOL    HW170057   2.765   1.682   6.071 -1.2535 -1.5856 -0.0663
22872SOL    HW270058   2.719   1.820   6.113  0.2337 -0.4639 -1.9436
22873SOL     OW70059   5.911   5.231   8.063  0.1744 -0.3125  0.1791
22873SOL    HW170060   5.944   5.142   8.051 -2.4916 -1.2436 -1.0754
22873SOL    HW270061   5.842   5.240   7.998 -0.0581  2.4993  0.6730
22874SOL     OW70062   1.245   4.007   4.496 -0.1372 -0.4942 -0.2855
22874SOL    HW170063   1.235   4.093   4.454  2.6758 -0.4241 -1.0162
22874SOL    HW270064   1.245   4.026   4.590 -1.2495  0.0538 -0.3810
22875SOL     OW70065   5.719   5.141   4.159  0.3175  0.0110  0.0758
22875SOL    HW170066   5.733   5.234   4.140  1.0915  0.2227  1.5248
22875SOL    HW270067   5.695   5.139   4.251  0.5062 -1.2520  0.1137
22876SOL     OW70068   5.787   0.902   0.366  0.3195  0.2876  0.5361
22876SOL    HW170069   5.735   0.865   0.295 -1.4215  0.5377  1.6188
22876SOL    HW270070   5.808   0.827   0.422  1.5664  0.1139 -0.1225
22877SOL     OW70071   2.154   3.892   9.800 -0.1036  0.0600 -0.4517
22877SOL    HW170072   2.174   3.984   9.783  0.8001 -0.4711 -2.7845
22877SOL    HW270073   2.229   3.860   9.850  1.7917 -0.2827 -3.2297
22878SOL     OW70074   5.757   0.969   5.630  0.0204  0.2969 -0.4344
22878SOL    HW170075   5.718   1.055   5.647 -0.4830  0.3187 -1.6106
22878SOL    HW270076   5.684   0.915   5.601  0.6993  0.1178 -1.8920
22879SOL     OW70077   1.896   7.709   4.039 -0.3880 -0.0641 -0.4936
22879SOL    HW170078   1.827   7.647   4.016  0.3233 -0.2279 -2.3493
22879SOL    HW270079   1.977   7.668   4.008  0.3636  0.8719  0.1365
22880SOL     OW70080   2.133   3.895   7.749  0.4637  0.3479  0.1001
22880SOL    HW170081   2.132   3.981   7.706  2.0429 -0.3982 -1.4957
22880SOL    HW270082   2.108   3.915   7.840 -0.1082  2.3600 -0.4346
22881SOL     OW70083   2.848   2.577   9.085 -0.3762 -0.5863  0.3691
22881SOL    HW170084   2.869   2.562   8.993 -1.3902  1.1145 -0.1866
22881SOL    HW270085   2.906   2.649   9.111  1.0000 -2.0595  1.5437
22882SOL     OW70086   7.254   4.703  11.481  0.0788  1.0767 -0.6823
22882SOL    HW170087   7.307   4.720  11.402  0.1744  0.0007 -0.8705
22882SOL    HW270088   7.164   4.719  11.453 -0.0393 -0.6328 -1.4639
22883SOL     OW70089   6.143   5.645   9.538 -0.5275 -0.0028  0.2434
22883SOL    HW170090   6.213   5.690   9.585  0.5262  0.4792 -1.6826
22883SOL    HW270091   6.065   5.697   9.555  0.2646  1.4004 -0.2858
22884SOL     OW70092   6.657   0.336   6.617 -0.7267 -0.0545 -0.4199
22884SOL    HW170093   6.744   0.363   6.588 -0.5506  0.2814  0.3912
22884SOL    HW270094   6.668   0.244   6.642 -0.2979  0.3245  0.8429
22885SOL     OW70095   0.271   0.213   6.517 -0.0231  0.5100  0.4988
22885SOL    HW170096   0.357   0.223   6.476 -0.1550  0.1682  0.1362
22885SOL    HW270097   0.286   0.234   6.609  1.4189 -3.6198  1.4124
22886SOL     OW70098   3.259   2.008   1.925  0.5351  0.1315 -0.0454
22886SOL    HW170099   3.275   2.032   1.834 -0.5656  0.4267 -0.1766
22886SOL    HW270100   3.346   1.986   1.960  0.8675 -0.7335 -1.3652
22887SOL     OW70101   4.723   4.386   1.428 -0.6137 -0.3333 -0.3252
22887SOL    HW170102   4.757   4.374   1.517  0.8060 -1.3925 -0.9706
22887SOL    HW270103   4.798   4.372   1.371 -1.5206  0.2195 -1.7153
22888SOL     OW70104   4.703   3.346   1.111 -0.2613  0.0336 -0.3159
22888SOL    HW170105   4.754   3.273   1.077  1.0752  1.1828 -0.8824
22888SOL    HW270106   4.731   3.421   1.060 -0.3244  1.2757  1.3707
22889SOL     OW70107   3.009   4.401  10.423 -0.3307 -0.4770  0.3221
22889SOL    HW170108   2.963   4.317  10.422  2.1563 -1.9465  1.3403
22889SOL    HW270109   3.049   4.408  10.336  1.4215 -1.5680  0.9966
22890SOL     OW70110   3.109   3.645   4.579 -0.0385  0.1092 -0.2447
22890SOL    HW170111   3.032   3.588   4.572  1.0312 -1.7068  1.6440
22890SOL    HW270112   3.103   3.682   4.667  0.8923  0.5162 -0.3436
22891SOL     OW70113   3.708   2.725  10.621 -0.3672 -0.4802  1.2208
22891SOL    HW170114   3.675   2.799  10.673  1.1317  0.4175  0.9545
22891SOL    HW270115   3.646   2.718  10.548  0.6328  2.0239  0.0129
22892SOL     OW70116   2.370   3.357   6.108 -0.1781 -0.6089 -0.0999
22892SOL    HW170117   2.407   3.318   6.029 -1.1428  1.3759 -1.6390
22892SOL    HW270118   2.440   3.412   6.143 -0.9115  1.6991 -1.9692
22893SOL     OW70119   6.905   6.449  10.759 -0.4246 -1.3671 -0.1703
22893SOL    HW170120   6.839   6.392  10.799 -0.7627 -1.0374 -0.2554
22893SOL    HW270121   6.859   6.531  10.741 -0.5481 -1.8345 -2.1518
22894SOL     OW70122   1.969   1.687   2.892  0.1767 -0.2890  0.0501
22894SOL    HW170123   2.041   1.739   2.928 -0.1405  0.0606  0.1874
22894SOL    HW270124   1.895   1.705   2.951 -0.2346 -0.0395 -0.5300
22895SOL     OW70125   0.378   0.735   7.395 -0.0204  0.5178  0.5398
22895SOL    HW170126   0.376   0.792   7.471 -0.7444 -0.0983  0.9995
22895SOL    HW270127   0.454   0.678   7.411 -0.9056 -0.4493  1.4520
22896SOL     OW70128   2.267   2.330   3.955  0.4371 -0.6339 -0.2047
22896SOL    HW170129   2.178   2.336   3.921  0.3545 -1.3252 -0.1351
22896SOL    HW270130   2.310   2.265   3.899  1.0223 -0.0149 -0.4927
22897SOL     OW70131   2.517   5.212   9.869 -0.4750  0.5317 -0.4993
22897SOL    HW170132   2.568   5.204   9.788 -0.0613  1.3039 -0.3239
22897SOL    HW270133   2.580   5.196   9.939 -0.6979  0.4691 -0.3135
22898SOL     OW70134   2.754   6.341   8.853 -0.0611 -0.6246  0.1324
22898SOL    HW170135   2.700   6.368   8.778  2.6072  0.3932 -1.5924
22898SOL    HW270136   2.737   6.407   8.920 -1.0612 -0.4579 -0.2627
22899SOL     OW70137   3.832   2.071  11.244 -0.2744  0.4279  0.1234
22899SOL    HW170138   3.905   2.117  11.286  0.6090  1.6528 -2.4970
22899SOL    HW270139   3.858   1.979  11.246  1.3880  0.8307 -0.7142
22900SOL     OW70140   1.009   5.978   9.580  0.0556  0.0843  0.0164
22900SOL    HW170141   1.018   6.016   9.667  1.9825 -0.5895  0.1672
22900SOL    HW270142   1.012   5.883   9.595 -1.9616 -0.1247 -0.5972
22901SOL     OW70143   3.317   6.611   3.037  0.1263  0.5492  0.2619
22901SOL    HW170144   3.302   6.532   2.984  1.3256  0.1053  0.5446
22901SOL    HW270145   3.290   6.683   2.981 -1.1172 -0.0657  0.0450
22902SOL     OW70146   2.475   6.250   7.115  0.2898 -0.0493 -0.5321
22902SOL    HW170147   2.457   6.314   7.183  2.2235  1.2312 -1.1483
22902SOL    HW270148   2.427   6.283   7.038 -1.5811 -1.2918  0.0299
22903SOL     OW70149   1.551   6.847   9.661 -0.5598  0.0453 -0.0580
22903SOL    HW170150   1.568   6.756   9.637  1.6692 -0.6621  3.4267
22903SOL    HW270151   1.638   6.885   9.672 -1.4328  1.8701  0.9135
22904SOL     OW70152   2.692   0.120   8.382  0.0367  0.3729  0.1164
22904SOL    HW170153   2.686   0.142   8.475 -0.4877  1.5028 -0.1676
22904SOL    HW270154   2.781   0.145   8.357  0.8611 -1.7330  0.7271
22905SOL     OW70155   7.768   3.168   3.119 -0.8317  0.0507  0.0234
22905SOL    HW170156   7.782   3.073   3.118 -1.3347 -0.0297 -1.0891
22905SOL    HW270157   7.834   3.201   3.181 -0.4180 -0.9837  0.1629
22906SOL     OW70158   3.716   6.858   2.621 -0.2573  0.2505  0.1977
22906SOL    HW170159   3.660   6.914   2.674  0.1283  1.4522 -0.6275
22906SOL    HW270160   3.724   6.904   2.538 -0.1407 -1.1692 -0.6025
22907SOL     OW70161   7.385   2.642  11.947  0.1088 -0.4763  0.2166
22907SOL    HW170162   7.382   2.733  11.978 -0.7801 -0.1483 -0.7708
22907SOL    HW270163   7.331   2.642  11.868  2.6520 -1.1762 -1.6245
22908SOL     OW70164   5.134   4.588  10.563 -0.0351  0.2547  0.1117
22908SOL    HW170165   5.089   4.544  10.635  0.9406 -0.1285  0.5130
22908SOL    HW270166   5.158   4.517  10.503 -0.5593  0.5337 -0.4332
22909SOL     OW70167   6.306   7.128   9.431 -0.2478 -0.4684 -0.3630
22909SOL    HW170168   6.294   7.134   9.336 -0.1575  0.9669 -0.3170
22909SOL    HW270169   6.238   7.185   9.467  0.6925  0.2500  0.3439
22910SOL     OW70170   5.935   4.266   4.382  0.2456  0.0936  0.9634
22910SOL    HW170171   5.913   4.359   4.377  2.4703  0.6072 -0.2446
22910SOL    HW270172   5.933   4.247   4.476 -1.4597  0.9923  1.1649
22911SOL     OW70173   6.472   7.292   8.343 -0.0585  0.8809  0.3935
22911SOL    HW170174   6.560   7.299   8.305  0.0156 -1.7515 -0.1244
22911SOL    HW270175   6.488   7.270   8.435 -0.0691 -1.6400 -0.1457
22912SOL     OW70176   3.703   5.701   8.644 -0.1442 -0.1321 -0.1209
22912SOL    HW170177   3.703   5.608   8.619 -0.2682  0.3766 -2.1852
22912SOL    HW270178   3.722   5.748   8.563 -0.0058  1.6633  0.8990
22913SOL     OW70179   5.225   0.255   0.092 -0.7586 -0.6634  0.0338
22913SOL    HW170180   5.167   0.193   0.048 -1.5680 -0.3994  0.6917
22913SOL    HW270181   5.304   0.204   0.111  0.0076 -0.5352 -2.4807
22914SOL     OW70182   1.888   0.874   3.074 -0.4529  0.2136  0.6134
22914SOL    HW170183   1.946   0.800   3.052 -0.1664  0.4967  0.4098
22914SOL    HW270184   1.845   0.895   2.991 -1.9360 -0.9165  1.0474
22915SOL     OW70185   6.063   7.916  10.598 -0.3319 -0.2971  0.6185
22915SOL    HW170186   6.121   7.863  10.544  0.9532 -0.6160  2.2331
22915SOL    HW270187   6.105   8.003  10.599 -0.6104 -0.1642  0.7153
22916SOL     OW70188   1.897   2.553   1.241  0.2850 -0.0477 -0.1010
22916SOL    HW170189   1.861   2.580   1.326 -0.1198  1.8059 -0.7997
22916SOL    HW270190   1.975   2.607   1.230  1.0157 -1.1298 -0.3996
22917SOL     OW70191   5.874   3.068   8.937  0.5421 -0.7510 -0.2949
22917SOL    HW170192   5.931   3.142   8.959 -0.1502 -0.1333 -0.5362
22917SOL    HW270193   5.891   3.051   8.844 -0.2198 -0.0555 -0.5737
22918SOL     OW70194   3.808   4.963  12.188  0.3115 -0.0629  0.8867
22918SOL    HW170195   3.750   5.038  12.199 -0.0804 -0.3017  0.4939
22918SOL    HW270196   3.888   5.000  12.150 -0.9019 -0.1609 -2.0678
22919SOL     OW70197   6.012   4.213   8.221  0.7387  0.6418  0.5409
22919SOL    HW170198   6.010   4.253   8.308 -0.0489  0.3740  0.6576
22919SOL    HW270199   5.926   4.234   8.184  0.1887 -1.1477  0.7157
22920SOL     OW70200   4.940   2.710   5.856 -0.1037 -0.0730 -0.0250
22920SOL    HW170201   4.963   2.657   5.780 -0.5256  2.0886 -1.7680
22920SOL    HW270202   5.018   2.763   5.872 -0.1372 -0.2793  0.8756
22921SOL     OW70203   7.960   7.558   0.955 -0.6368 -0.1641 -0.2173
22921SOL    HW170204   7.865   7.549   0.944 -0.8428  0.0435  1.2078
22921SOL    HW270205   7.970   7.611   1.034  0.6532  1.6035 -1.4919
22922SOL     OW70206   1.421   7.325   9.769  0.1476 -0.4273  0.2469
22922SOL    HW170207   1.373   7.267   9.827 -1.7507 -0.4716 -1.2350
22922SOL    HW270208   1.492   7.360   9.822 -1.2764 -0.7202  2.4697
22923SOL     OW70209   2.879   0.688   3.188  0.5232 -0.5075 -0.2369
22923SOL    HW170210   2.798   0.736   3.167  0.9770  0.7874  0.8397
22923SOL    HW270211   2.898   0.712   3.279  2.5645 -0.1250 -0.7203
22924SOL     OW70212   6.760   3.199   3.520 -0.0295  0.0738  0.1021
22924SOL    HW170213   6.695   3.203   3.591 -0.5264 -1.1696 -0.2623
22924SOL    HW270214   6.783   3.291   3.504 -3.0072  0.7484 -0.9365
22925SOL     OW70215   7.978   6.705   8.553 -0.0989  0.0815  0.5379
22925SOL    HW170216   7.976   6.687   8.459  0.5847 -2.0235  0.8853
22925SOL    HW270217   7.960   6.621   8.594 -3.3573  1.4871  2.3480
22926SOL     OW70218   2.355   0.553   6.655 -0.3327  0.4622 -0.2704
22926SOL    HW170219   2.430   0.523   6.602 -0.0947 -0.6052  0.6376
22926SOL    HW270220   2.280   0.546   6.596 -0.3650 -2.4122 -0.0238
22927SOL     OW70221   0.549   4.416   0.067  0.1225  0.3609  0.0943
22927SOL    HW170222   0.482   4.479   0.094 -0.8563 -0.4732 -0.2954
22927SOL    HW270223   0.527   4.395  -0.024  0.3218 -0.6608  0.2666
22928SOL     OW70224   7.124   0.087   4.073  0.2345  0.5395  0.1826
22928SOL    HW170225   7.210   0.057   4.043  1.3080  1.6232  1.9648
22928SOL    HW270226   7.071   0.007   4.074  0.8204  0.0424 -2.0528
22929SOL     OW70227   7.654   5.892   6.759 -0.2660  0.2250  0.1399
22929SOL    HW170228   7.691   5.943   6.687 -0.2410  1.2914  0.8939
22929SOL    HW270229   7.688   5.933   6.838 -0.0426 -1.1267  0.7665
22930SOL     OW70230   5.468   7.353  12.048  0.0269  0.2833  0.4989
22930SOL    HW170231   5.500   7.311  11.968 -0.2863  0.2913  0.3670
22930SOL    HW270232   5.546   7.367  12.101  0.2348  0.2695  0.1974
22931SOL     OW70233   5.259   0.616   0.752  0.4835 -0.3874 -0.0919
22931SOL    HW170234   5.179   0.591   0.798  1.0074 -0.6280  0.7119
22931SOL    HW270235   5.290   0.694   0.799  0.9038 -0.5052 -0.1699
22932SOL     OW70236   1.485   6.202   9.344  0.2071 -0.5707 -0.2093
22932SOL    HW170237   1.566   6.160   9.315  0.5829 -0.1991  0.2994
22932SOL    HW270238   1.455   6.251   9.267  1.6850  1.1505  0.2479
22933SOL     OW70239   7.622   5.138   3.815  0.4924  0.1755  0.1305
22933SOL    HW170240   7.558   5.068   3.823  0.6732 -0.1246 -0.9632
22933SOL    HW270241   7.581   5.213   3.859 -0.2963 -0.2090  0.0595
22934SOL     OW70242   0.532   2.757   4.884 -0.4471 -0.2687  0.0758
22934SOL    HW170243   0.555   2.823   4.819 -0.3173  0.3961  0.7793
22934SOL    HW270244   0.439   2.771   4.902 -0.6800 -0.9769 -0.5495
22935SOL     OW70245   4.147   6.496   2.838  0.0166  0.0413 -0.0070
22935SOL    HW170246   4.074   6.557   2.842 -1.9287 -1.7661 -3.2568
22935SOL    HW270247   4.149   6.455   2.924 -2.5880  0.4475  0.3147
22936SOL     OW70248   2.959   0.537   8.369 -0.3457 -0.2615  0.5234
22936SOL    HW170249   2.993   0.513   8.283  1.6806 -0.6571  1.3568
22936SOL    HW270250   3.034   0.578   8.413 -2.1060  2.5550  1.1375
22937SOL     OW70251   6.375   6.132  10.295  0.3443  0.2059  0.1918
22937SOL    HW170252   6.336   6.055  10.335 -0.1697  1.5040  2.3442
22937SOL    HW270253   6.466   6.108  10.281  0.5027 -0.4089  1.9917
22938SOL     OW70254   6.655   3.024   5.565 -0.6118  0.2161  0.0755
22938SOL    HW170255   6.742   3.036   5.603 -0.9723 -1.2047  1.4639
22938SOL    HW270256   6.597   3.077   5.618 -1.0628 -1.4982  1.4012
22939SOL     OW70257   4.208   4.257   1.109 -0.1324  0.2065 -0.1200
22939SOL    HW170258   4.175   4.293   1.191 -2.1081 -0.9691 -0.3400
22939SOL    HW270259   4.148   4.185   1.088  1.5588 -0.8877 -1.5182
22940SOL     OW70260   6.191   2.052  11.369  0.0616 -0.4807  0.8141
22940SOL    HW170261   6.105   2.038  11.329 -1.1422  0.7380  2.8406
22940SOL    HW270262   6.223   2.132  11.327 -0.1458 -0.4825  0.6462
22941SOL     OW70263   5.099   6.925   6.582 -0.2721  0.0341  0.0459
22941SOL    HW170264   5.138   6.934   6.495 -0.8967  1.8515 -0.1069
22941SOL    HW270265   5.173   6.911   6.641  0.2662 -0.0402 -0.6323
22942SOL     OW70266   4.114   2.513  12.439  0.1979  0.7025 -0.2428
22942SOL    HW170267   4.041   2.549  12.490  1.5285  0.5663  1.8615
22942SOL    HW270268   4.089   2.421  12.425 -0.5455  0.9394 -0.5593
22943SOL     OW70269   5.294   6.899   9.371 -0.4971  0.3484  0.0001
22943SOL    HW170270   5.374   6.947   9.390  0.5323 -0.1995 -2.6038
22943SOL    HW270271   5.275   6.918   9.280 -3.6456  0.8265  0.6440
22944SOL     OW70272   6.950   2.738   0.180  0.1964 -0.6035 -0.1330
22944SOL    HW170273   7.006   2.721   0.255 -1.3643 -0.8382  1.0234
22944SOL    HW270274   6.928   2.651   0.146  3.4100 -0.5433 -2.9314
22945SOL     OW70275   3.811   7.950   1.799  0.6272  0.2830  0.2697
22945SOL    HW170276   3.880   7.894   1.835  1.4779  1.4815  0.5428
22945SOL    HW270277   3.843   8.039   1.811 -0.4808  0.8268 -0.6171
22946SOL     OW70278   1.642   7.070   8.162 -0.6905 -0.8269 -0.0455
22946SOL    HW170279   1.671   7.132   8.094  0.6917 -2.3676 -0.9200
22946SOL    HW270280   1.560   7.108   8.194  0.1633  1.5430 -0.4104
22947SOL     OW70281   1.470   7.289   0.080 -0.2969  0.1806  0.4765
22947SOL    HW170282   1.461   7.224   0.010 -0.2856 -0.2574  0.8761
22947SOL    HW270283   1.550   7.337   0.058 -0.6740  0.5215 -0.1906
22948SOL     OW70284   2.434   0.518   7.930 -0.3233 -0.2436  0.2379
22948SOL    HW170285   2.410   0.603   7.892  0.2751  1.0279  2.5161
22948SOL    HW270286   2.504   0.486   7.873 -0.2265  1.0283 -0.3988
22949SOL     OW70287   5.008   3.585  10.140  0.6314 -0.5135  0.6210
22949SOL    HW170288   5.038   3.670  10.169 -0.5873 -0.1198  0.7738
22949SOL    HW270289   4.965   3.546  10.216  0.0118 -0.7012  0.1898
22950SOL     OW70290   1.277   1.314  10.747  0.4451  0.0591 -0.3477
22950SOL    HW170291   1.341   1.377  10.714 -0.9594  1.6587 -0.1048
22950SOL    HW270292   1.198   1.365  10.762 -0.9407 -1.8707 -0.7029
22951SOL     OW70293   1.236   1.931  10.439 -0.7000 -0.0370  0.5136
22951SOL    HW170294   1.251   1.913  10.346 -1.4077 -1.2215  0.6013
22951SOL    HW270295   1.318   1.905  10.481 -0.6905 -0.3645  0.3033
22952SOL     OW70296   6.466   6.096   1.479 -0.2673  0.4507  0.4218
22952SOL    HW170297   6.413   6.022   1.507  1.3773 -0.1577  2.1447
22952SOL    HW270298   6.420   6.173   1.514  0.1986 -0.0977  2.3416
22953SOL     OW70299   2.805   2.773   4.894 -0.1383  0.0482 -0.2461
22953SOL    HW170300   2.731   2.768   4.954 -0.4121 -0.5756 -0.6212
22953SOL    HW270301   2.778   2.722   4.818 -0.3065  1.8182 -1.4576
22954SOL     OW70302   3.842   4.473   6.584  0.3261  0.6151  0.0141
22954SOL    HW170303   3.817   4.563   6.560  0.7248  0.5795 -0.5554
22954SOL    HW270304   3.784   4.418   6.531  1.6465  0.5292 -1.4191
22955SOL     OW70305   1.114   5.444   0.040 -0.4694  0.0541  0.1345
22955SOL    HW170306   1.147   5.526   0.003 -3.0969  0.4319 -1.6827
22955SOL    HW270307   1.165   5.375  -0.004  0.0398  0.6465 -0.2206
22956SOL     OW70308   1.934   5.068   4.336  0.3035  0.1246 -0.5873
22956SOL    HW170309   1.963   5.072   4.427  0.5754  0.8282 -0.6996
22956SOL    HW270310   1.928   4.974   4.316 -2.2910 -0.1270  0.9462
22957SOL     OW70311   1.443   6.211   1.299  0.4381 -0.3655 -0.2721
22957SOL    HW170312   1.529   6.192   1.337  1.7923  1.5487 -2.1596
22957SOL    HW270313   1.434   6.148   1.228 -0.1309 -1.1109  0.4455
22958SOL     OW70314   1.891   1.308   2.205  0.4991 -0.2685 -0.1021
22958SOL    HW170315   1.983   1.296   2.179  0.3116 -0.4314 -0.7098
22958SOL    HW270316   1.895   1.372   2.276  1.1957 -1.2635  0.7838
22959SOL     OW70317   7.044   7.025   3.766 -0.1959 -0.0963 -0.0740
22959SOL    HW170318   7.119   7.039   3.708 -0.3039 -0.1961 -0.2386
22959SOL    HW270319   7.006   6.942   3.736 -0.8032  0.3111 -0.4552
22960SOL     OW70320   4.942   6.539   1.962 -0.5023 -0.0694 -0.1881
22960SOL    HW170321   4.950   6.603   1.892  0.4652 -1.9676 -1.9324
22960SOL    HW270322   5.020   6.553   2.016  0.1687 -0.3205 -1.0704
22961SOL     OW70323   4.084   7.852  11.573  0.0472  0.2802  0.3186
22961SOL    HW170324   4.047   7.940  11.583 -1.3494 -0.0885 -1.2167
22961SOL    HW270325   4.167   7.865  11.528  0.4420  0.8810  1.1799
22962SOL     OW70326   0.390   0.824   3.831  0.4399 -0.3921  0.0218
22962SOL    HW170327   0.483   0.801   3.822 -0.1750 -3.3207  0.0222
22962SOL    HW270328   0.390   0.902   3.887  2.8728 -1.1610  1.2693
22963SOL     OW70329   5.838   7.392   8.244 -0.2334 -0.0508  0.0777
22963SOL    HW170330   5.781   7.466   8.221  0.5669  0.8527  0.9305
22963SOL    HW270331   5.875   7.364   8.161 -0.3505  0.6833 -0.2327
22964SOL     OW70332   3.644   2.597   1.650 -0.5678  0.1705 -0.0834
22964SOL    HW170333   3.651   2.673   1.592  0.4855  1.1593  1.2647
22964SOL    HW270334   3.624   2.634   1.736  2.4643 -0.7858  1.1688
22965SOL     OW70335   7.320   0.562   8.183 -0.0972  0.1605  0.1492
22965SOL    HW170336   7.340   0.507   8.107  1.4915  0.8639  0.0045
22965SOL    HW270337   7.343   0.651   8.154  1.8066  0.2826  1.8401
22966SOL     OW70338   5.024   3.919   8.707 -0.2009  0.1090 -0.1079
22966SOL    HW170339   5.002   3.843   8.760  1.0160  0.4268  0.9213
22966SOL    HW270340   4.941   3.964   8.694 -1.0350 -1.6862 -1.2657
22967SOL     OW70341   1.052   7.319   3.417 -0.3292 -0.4543  0.0945
22967SOL    HW170342   1.088   7.372   3.346  0.3580  0.5631  1.1623
22967SOL    HW270343   0.964   7.296   3.388 -1.0071  2.0613 -0.0394
22968SOL     OW70344   6.193   7.792   3.662  0.6448  0.2553 -0.0236
22968SOL    HW170345   6.132   7.730   3.622  0.1466 -0.4643  1.7716
22968SOL    HW270346   6.278   7.748   3.659  0.5787  0.1315 -0.0918
22969SOL     OW70347   3.053   0.484   2.856  0.0597  0.4123 -0.5396
22969SOL    HW170348   3.032   0.391   2.846 -1.0925  0.6954 -0.8961
22969SOL    HW270349   3.024   0.524   2.775 -2.0689  1.5059  0.6823
22970SOL     OW70350   5.902   0.715   2.892 -0.4844 -0.0850 -0.3453
22970SOL    HW170351   5.983   0.715   2.943 -1.5576 -2.8567  1.6466
22970SOL    HW270352   5.856   0.794   2.920  1.0000  0.9337 -0.6670
22971SOL     OW70353   1.071   4.278  11.382 -0.4841 -0.4632 -0.5179
22971SOL    HW170354   1.088   4.275  11.288  2.4071 -1.5271 -0.0639
22971SOL    HW270355   1.051   4.187  11.406 -1.1105 -0.2163 -0.0549
22972SOL     OW70356   4.206   7.694  11.153  0.2679  0.0538 -0.4782
22972SOL    HW170357   4.142   7.684  11.083  1.7870 -0.7332 -1.8047
22972SOL    HW270358   4.166   7.759  11.212 -1.3556  0.2211 -1.6860
22973SOL     OW70359   7.267   5.820   8.673  0.0745 -0.5100 -0.0028
22973SOL    HW170360   7.181   5.788   8.646 -0.3304 -0.7354  1.4673
22973SOL    HW270361   7.255   5.847   8.764  1.3754  0.1917 -0.0140
22974SOL     OW70362   4.607   0.857   2.748 -0.6456  0.0406  0.1621
22974SOL    HW170363   4.641   0.931   2.799 -1.0432  0.7706 -0.5992
22974SOL    HW270364   4.514   0.877   2.737 -1.2342 -1.6386  1.7176
22975SOL     OW70365   3.925   4.473   1.985 -0.7368 -0.1062  0.4886
22975SOL    HW170366   3.872   4.399   1.955  1.4270 -1.2518 -0.8048
22975SOL    HW270367   3.996   4.433   2.035  0.7199  1.0306 -0.5955
22976SOL     OW70368   1.401   2.335   8.905  0.0602  0.1374 -0.1412
22976SOL    HW170369   1.431   2.426   8.892  0.5236 -0.0467 -0.4055
22976SOL    HW270370   1.325   2.326   8.849  1.1785 -0.2117 -1.6670
22977SOL     OW70371   2.645   7.939   4.859 -0.7539  0.2826 -0.2648
22977SOL    HW170372   2.620   7.972   4.945  1.4368  3.3083 -0.6251
22977SOL    HW270373   2.740   7.937   4.860 -0.6133  1.0728 -2.7884
22978SOL     OW70374   5.493   3.284   8.504  0.5789  0.4129 -0.1443
22978SOL    HW170375   5.397   3.288   8.505  0.5393 -0.3992 -0.1952
22978SOL    HW270376   5.514   3.236   8.424  0.9251 -1.6195  1.1068
22979SOL     OW70377   7.425   1.539  11.965 -0.4900 -0.0379  0.5666
22979SOL    HW170378   7.486   1.468  11.986 -1.4085 -1.4186 -1.1427
22979SOL    HW270379   7.469   1.619  11.996  1.2783 -1.1776  1.1474
22980SOL     OW70380   4.839   6.865   6.911  0.5438 -0.0092  0.3362
22980SOL    HW170381   4.919   6.911   6.888 -0.3400  0.5810 -1.8468
22980SOL    HW270382   4.772   6.933   6.918 -0.0041 -0.5885  0.9367
22981SOL     OW70383   5.125   5.453   2.842  0.0646  0.2434 -0.7734
22981SOL    HW170384   5.168   5.399   2.907 -1.4879  0.8685  0.8517
22981SOL    HW270385   5.062   5.394   2.799 -0.8892  0.4509  0.2786
22982SOL     OW70386   3.543   2.854   1.179  0.7699 -0.3544  0.1427
22982SOL    HW170387   3.506   2.807   1.254  1.8247 -0.0420  0.8840
22982SOL    HW270388   3.613   2.908   1.217  1.6127 -0.5138 -1.1335
22983SOL     OW70389   2.813   4.969  10.054  0.0687 -0.4064 -0.2937
22983SOL    HW170390   2.859   4.897  10.097 -1.0657 -0.7728  0.3550
22983SOL    HW270391   2.721   4.941  10.053 -0.3251  0.8513 -0.4073
22984SOL     OW70392   2.757   3.650   6.003  0.5017  0.4889 -0.3520
22984SOL    HW170393   2.799   3.569   6.032 -0.1872 -0.7020 -2.5319
22984SOL    HW270394   2.681   3.660   6.061  1.3881  0.4057  0.8718
22985SOL     OW70395   2.081   3.314   7.346 -0.2236 -0.2383 -0.1929
22985SOL    HW170396   2.131   3.238   7.376 -1.2392 -1.3418 -1.1627
22985SOL    HW270397   2.120   3.336   7.261  0.0183  0.2899  0.0504
22986SOL     OW70398   1.127   4.127   6.141 -0.3485 -0.4085 -0.0823
22986SOL    HW170399   1.043   4.113   6.184 -1.0308 -0.6569 -1.4272
22986SOL    HW270400   1.157   4.212   6.174 -2.9417  1.5672 -2.2350
22987SOL     OW70401   0.324   2.166   7.192 -0.4926  0.2261  0.1475
22987SOL    HW170402   0.337   2.192   7.283 -0.1658  0.7672 -0.0458
22987SOL    HW270403   0.372   2.084   7.183 -0.3873  0.2557  0.4187
22988SOL     OW70404   7.326   1.478   9.141 -0.3769 -0.8498 -0.2151
22988SOL    HW170405   7.293   1.416   9.076 -0.9162 -1.6861  0.8311
22988SOL    HW270406   7.251   1.497   9.197  0.0484 -0.0446  0.0944
22989SOL     OW70407   6.120   2.924   9.601  0.4469 -0.3250 -0.5327
22989SOL    HW170408   6.154   2.908   9.689  0.9274 -1.4425 -0.8980
22989SOL    HW270409   6.168   3.001   9.570  0.2829  0.0646  0.1733
22990SOL     OW70410   6.381   0.631   0.278  0.1430 -0.2069 -0.3338
22990SOL    HW170411   6.364   0.725   0.290  0.2153  0.1944 -2.8106
22990SOL    HW270412   6.473   0.621   0.303  0.8309  0.9015 -2.1971
22991SOL     OW70413   7.825   3.015   2.084  0.4499  0.3883  0.0426
22991SOL    HW170414   7.854   3.009   1.993 -0.2941 -1.1193 -0.1213
22991SOL    HW270415   7.759   3.085   2.084  1.2456  1.1647 -0.3277
22992SOL     OW70416   4.154   5.730  10.239 -0.2593 -0.1588 -0.0198
22992SOL    HW170417   4.245   5.706  10.252 -0.4828  0.3841  3.4150
22992SOL    HW270418   4.154   5.783  10.159  2.3542 -0.4626 -0.2940
22993SOL     OW70419   7.251   3.067   8.786  0.2043 -0.1871  0.0859
22993SOL    HW170420   7.260   3.031   8.698  1.9068 -0.4140  0.3169
22993SOL    HW270421   7.225   3.158   8.772  2.9150  0.5357 -0.8108
22994SOL     OW70422   6.284   1.344   4.729 -0.3133  0.6059 -0.2511
22994SOL    HW170423   6.352   1.321   4.665 -0.3481 -3.1651  0.8480
22994SOL    HW270424   6.214   1.383   4.677  0.9943  0.7637 -1.9886
22995SOL     OW70425   3.374   7.798   7.555 -0.4963 -0.2851  0.8549
22995SOL    HW170426   3.333   7.829   7.635 -0.9135 -0.2960  0.6468
22995SOL    HW270427   3.303   7.757   7.505 -0.1665 -0.6243  0.6508
22996SOL     OW70428   3.439   0.807  12.241  0.2866  0.3196 -0.0814
22996SOL    HW170429   3.492   0.799  12.162  0.2962  0.4520 -0.0899
22996SOL    HW270430   3.486   0.870  12.296  0.0803  0.5253 -0.1388
22997SOL     OW70431   1.060   4.604   1.763  0.0306 -0.4117 -0.0986
22997SOL    HW170432   1.133   4.575   1.707  0.4598 -0.3386  0.4158
22997SOL    HW270433   0.999   4.531   1.764  0.8064 -1.0630  0.6776
22998SOL     OW70434   5.185   4.145   3.614 -0.7175  0.6116  0.6679
22998SOL    HW170435   5.155   4.210   3.677  0.2123  0.2869  1.4753
22998SOL    HW270436   5.266   4.182   3.578 -0.9865  0.5749  0.0033
22999SOL     OW70437   3.807   5.669   9.273 -0.4833  0.2474  0.0063
22999SOL    HW170438   3.777   5.665   9.182 -0.3041 -0.2752 -0.0348
22999SOL    HW270439   3.895   5.630   9.270 -1.4516 -2.1581  0.8126
23000SOL     OW70440   2.648   2.582   0.695  0.0404  0.0181  0.0044
23000SOL    HW170441   2.629   2.674   0.712  1.9123  0.7153 -1.3121
23000SOL    HW270442   2.691   2.551   0.775 -0.7675  0.2032  0.5242
23001SOL     OW70443   5.733   7.577   7.524 -0.3291  0.1323  0.0757
23001SOL    HW170444   5.771   7.645   7.580  0.8062  0.0206 -0.5290
23001SOL    HW270445   5.737   7.497   7.577  1.2986 -0.0961 -0.3362
23002SOL     OW70446   0.097   2.806  10.024 -0.5200 -0.4365  0.5718
23002SOL    HW170447   0.145   2.750  10.084 -1.2061  0.3279  1.8842
23002SOL    HW270448   0.144   2.800   9.941  3.2060  1.9166  2.2577
23003SOL     OW70449   1.446   5.952   3.809 -0.2779 -0.0872 -0.5553
23003SOL    HW170450   1.414   6.001   3.733 -0.9349  0.5216  0.1029
23003SOL    HW270451   1.511   6.009   3.849  0.4171 -0.6073 -0.9117
23004SOL     OW70452   4.799   4.745   2.316 -0.0742  0.5643 -0.1195
23004SOL    HW170453   4.866   4.677   2.324 -2.1157 -1.4965  0.7099
23004SOL    HW270454   4.760   4.750   2.404 -1.9453  0.6382 -0.9237
23005SOL     OW70455   6.283   4.506   4.431  0.5688  0.1947 -0.4932
23005SOL    HW170456   6.274   4.417   4.463  1.8179 -0.4661 -1.8877
23005SOL    HW270457   6.365   4.537   4.470  1.6158 -0.2932 -2.2196
23006SOL     OW70458   7.146   5.559   5.668 -0.0253 -0.1756  0.4082
23006SOL    HW170459   7.095   5.503   5.610 -0.3005 -2.4402  2.6281
23006SOL    HW270460   7.225   5.580   5.619 -0.6091 -1.2848 -1.0784
23007SOL     OW70461   4.312   1.013   5.318  0.2399 -0.0881  0.1413
23007SOL    HW170462   4.256   1.021   5.395  1.3156  0.8442  0.8773
23007SOL    HW270463   4.252   1.003   5.245 -0.8975  0.9848  0.8841
23008SOL     OW70464   6.727   1.362   9.931 -0.5759  0.0454 -0.0847
23008SOL    HW170465   6.812   1.393   9.901 -0.9548  0.8053 -0.4070
23008SOL    HW270466   6.691   1.315   9.856 -0.5859  0.0285 -0.0696
23009SOL     OW70467   7.785   6.442  11.002 -0.4573 -0.0611  0.5670
23009SOL    HW170468   7.708   6.395  10.971 -0.4716  1.3318 -1.7373
23009SOL    HW270469   7.752   6.530  11.024 -0.0058 -0.3131  2.4887
23010SOL     OW70470   5.936   6.494   6.506  0.1749 -0.2892  0.2652
23010SOL    HW170471   5.954   6.538   6.589 -1.2279  0.3919  0.2409
23010SOL    HW270472   5.992   6.537   6.442 -0.8611  1.2246  0.3223
23011SOL     OW70473   0.909   3.054  11.538 -0.4477  0.3235  0.0947
23011SOL    HW170474   0.933   3.112  11.610  0.4700 -0.6782  0.6299
23011SOL    HW270475   0.898   3.112  11.463  1.0909  1.1417  0.4507
23012SOL     OW70476   0.918   5.724   3.960  0.6674  0.6390  0.2931
23012SOL    HW170477   0.900   5.653   3.898 -1.4321  1.2546  0.1525
23012SOL    HW270478   1.002   5.760   3.931  0.5886 -0.2399 -1.1062
23013SOL     OW70479   6.314   0.501   7.476  0.4184  0.3175 -1.0086
23013SOL    HW170480   6.290   0.410   7.495  2.0294  0.3934  1.9237
23013SOL    HW270481   6.406   0.507   7.500  0.3074  2.7766 -0.9918
23014SOL     OW70482   1.190   4.484  11.962 -0.4430 -0.4077 -0.3462
23014SOL    HW170483   1.105   4.440  11.973 -0.7628  0.2455 -0.1582
23014SOL    HW270484   1.167   4.573  11.934  0.1154  0.2951  1.3321
23015SOL     OW70485   4.699   3.309   3.575  0.0088 -0.4980  0.2685
23015SOL    HW170486   4.720   3.397   3.609 -0.4643 -0.6834  1.0750
23015SOL    HW270487   4.633   3.276   3.636  0.8503 -1.7848  0.5211
23016SOL     OW70488   3.823   4.215   4.369 -0.0655  0.2070 -0.3996
23016SOL    HW170489   3.896   4.276   4.380  0.2234 -0.3894  1.3576
23016SOL    HW270490   3.864   4.131   4.349 -0.2694 -0.0868  0.3864
23017SOL     OW70491   3.842   6.655   1.597 -0.2851 -0.1872 -0.1288
23017SOL    HW170492   3.868   6.566   1.574 -0.5733 -0.5026  0.7436
23017SOL    HW270493   3.885   6.710   1.530 -1.4946 -1.0887 -1.7123
23018SOL     OW70494   4.732   0.158   2.237 -0.2816  0.3572 -0.9236
23018SOL    HW170495   4.784   0.235   2.259 -0.7499  0.8336 -1.4384
23018SOL    HW270496   4.793   0.085   2.242 -0.3370  0.4118  1.8990
23019SOL     OW70497   4.578   3.125   6.606  0.5067 -0.3895  0.0931
23019SOL    HW170498   4.568   3.163   6.693 -0.1197  0.9047 -0.5124
23019SOL    HW270499   4.610   3.198   6.552  0.4024 -1.0355 -0.8588
23020SOL     OW70500   7.454   7.085  10.645 -0.5966  0.5290 -0.2338
23020SOL    HW170501   7.416   7.148  10.584  0.6430  0.2342 -1.3500
23020SOL    HW270502   7.433   7.000  10.607  0.5522  0.3507 -0.4997
23021SOL     OW70503   5.394   6.213   6.999  0.2031 -0.1382  0.0272
23021SOL    HW170504   5.372   6.196   6.908  1.2175  0.6598 -0.3879
23021SOL    HW270505   5.309   6.226   7.042 -0.2483  2.2582 -1.3892
23022SOL     OW70506   3.116   0.098   9.062 -0.3811  0.4210  0.5786
23022SOL    HW170507   3.088   0.028   9.002  0.0168  1.9765 -1.5270
23022SOL    HW270508   3.098   0.063   9.150  0.2484 -2.4918 -0.3467
23023SOL     OW70509   7.105   2.285   2.499 -0.9625  0.4341  0.6055
23023SOL    HW170510   7.052   2.242   2.565 -1.8026  0.7200  0.1315
23023SOL    HW270511   7.046   2.296   2.424  0.4284 -1.5123 -0.8926
23024SOL     OW70512   7.888   0.966   0.412  0.3177 -0.0038  0.7841
23024SOL    HW170513   7.972   0.984   0.370  0.6872 -0.5817  1.2610
23024SOL    HW270514   7.887   1.025   0.488  0.1485  0.2334  0.5984
23025SOL     OW70515   2.804   1.583   6.544  0.2287  0.4836  0.2176
23025SOL    HW170516   2.780   1.491   6.552  0.5603  0.4875  1.5026
23025SOL    HW270517   2.833   1.593   6.454 -0.3608 -0.5312 -0.0967
23026SOL     OW70518   7.545   4.235  10.547 -0.0248  0.0842 -0.0062
23026SOL    HW170519   7.562   4.158  10.601  0.8358 -0.0481 -0.4537
23026SOL    HW270520   7.452   4.228  10.524 -0.3080 -0.0502  1.1406
23027SOL     OW70521   4.305   6.072   8.922 -0.3392  0.1260 -0.0536
23027SOL    HW170522   4.239   6.138   8.939 -1.5121 -1.4434  1.9007
23027SOL    HW270523   4.381   6.100   8.973 -1.2318 -0.5513  1.7418
23028SOL     OW70524   2.055   5.547   8.260 -0.5964  0.0244 -0.3958
23028SOL    HW170525   2.023   5.637   8.262 -1.1026 -0.0368 -2.7930
23028SOL    HW270526   1.976   5.493   8.262 -0.2728 -0.5517  3.1321
23029SOL     OW70527   6.534   0.287   1.249 -0.6012  0.4359 -0.2876
23029SOL    HW170528   6.543   0.231   1.327  1.5911  1.2064  0.0692
23029SOL    HW270529   6.559   0.231   1.176  0.9556  0.7185 -0.0001
23030SOL     OW70530   5.168   1.657   5.408  0.4039  0.9074  0.1179
23030SOL    HW170531   5.198   1.723   5.346 -1.0541 -0.7058 -2.4745
23030SOL    HW270532   5.073   1.669   5.412  0.3472  0.2682  1.2522
23031SOL     OW70533   1.362   4.839   9.255  0.6110  0.4485  0.7730
23031SOL    HW170534   1.284   4.879   9.294 -0.9477 -2.0573  0.4399
23031SOL    HW270535   1.373   4.757   9.302  1.5702 -0.4064 -0.8659
23032SOL     OW70536   4.839   6.396   4.115  0.1237  0.3112  0.0182
23032SOL    HW170537   4.769   6.419   4.176 -0.3127 -1.0413  0.0550
23032SOL    HW270538   4.872   6.312   4.146  0.8916  0.3041 -0.7628
23033SOL     OW70539   4.733   1.659  11.081  0.4406 -0.0494 -0.0725
23033SOL    HW170540   4.712   1.717  11.154 -0.2436  0.6152 -0.7626
23033SOL    HW270541   4.649   1.620  11.056  0.2348  1.3437 -1.8041
23034SOL     OW70542   4.808   7.695  10.724  0.3642 -0.6279 -0.1891
23034SOL    HW170543   4.901   7.683  10.741  0.2389  1.5522  2.6845
23034SOL    HW270544   4.800   7.786  10.696 -0.8652 -0.9871 -1.1171
23035SOL     OW70545   5.270   6.430   5.739 -0.0451  0.0771 -0.2356
23035SOL    HW170546   5.179   6.457   5.730  0.2030  0.9200 -0.2877
23035SOL    HW270547   5.276   6.395   5.828 -0.5118 -0.3799 -0.3770
23036SOL     OW70548   6.225   4.157   0.927 -0.0273 -0.2228  0.1956
23036SOL    HW170549   6.132   4.146   0.947  0.1182  0.9768  1.7227
23036SOL    HW270550   6.239   4.104   0.849 -2.0481 -0.2152 -0.2319
23037SOL     OW70551   6.642   1.821   2.521 -0.5769 -0.3265  0.3161
23037SOL    HW170552   6.624   1.783   2.607 -0.0518 -0.8282  0.2040
23037SOL    HW270553   6.642   1.916   2.537  0.1867 -0.4291  1.0121
23038SOL     OW70554   2.519   4.504   0.600  0.8595  0.3153  0.0977
23038SOL    HW170555   2.537   4.450   0.678 -1.4359  0.9530  1.1618
23038SOL    HW270556   2.478   4.443   0.538 -3.0756  0.8814  1.8357
23039SOL     OW70557   3.552   3.120   3.323 -0.3537 -0.1773  0.5312
23039SOL    HW170558   3.631   3.105   3.374 -0.4821  0.8101  1.0307
23039SOL    HW270559   3.577   3.096   3.233 -0.0557 -1.6704  0.9844
23040SOL     OW70560   7.405   1.646   0.920  0.3316  0.2971  0.1828
23040SOL    HW170561   7.363   1.624   0.837  2.5000  1.9980 -1.4705
23040SOL    HW270562   7.482   1.590   0.924  0.2182  0.1856  1.1174
23041SOL     OW70563   4.454   6.083   0.297 -0.6985  0.2980  0.3193
23041SOL    HW170564   4.362   6.105   0.285 -1.2480 -1.2306  1.4511
23041SOL    HW270565   4.478   6.123   0.380 -0.7172 -0.3666  0.6529
23042SOL     OW70566   3.147   6.551   7.417 -0.4045 -0.1459  0.2380
23042SOL    HW170567   3.198   6.494   7.474  0.2288  0.6657  0.5011
23042SOL    HW270568   3.103   6.491   7.355 -1.8453 -1.1254  2.1051
23043SOL     OW70569   6.649   6.620   6.342 -0.1778  0.3128  0.3352
23043SOL    HW170570   6.707   6.544   6.353  1.7188  1.7495  0.8889
23043SOL    HW270571   6.627   6.646   6.432 -0.5477  0.5983  0.1632
23044SOL     OW70572   7.277   5.839   4.224  0.8416  0.6404  0.1709
23044SOL    HW170573   7.207   5.816   4.164  2.5211  0.3548 -1.7990
23044SOL    HW270574   7.233   5.876   4.300 -1.5170 -1.3320 -0.1353
23045SOL     OW70575   7.707   3.651   3.870 -0.2511 -0.2943  0.1012
23045SOL    HW170576   7.641   3.584   3.853  0.3107 -0.6781 -0.6018
23045SOL    HW270577   7.764   3.612   3.937  2.4136 -2.2261 -3.0182
23046SOL     OW70578   0.762   0.719   3.124  0.4103  0.0513  0.2121
23046SOL    HW170579   0.837   0.704   3.181  0.2152  1.5671  0.9122
23046SOL    HW270580   0.696   0.761   3.180 -0.8438 -0.9166 -0.4678
23047SOL     OW70581   7.678   2.837   8.816 -0.5464  0.0760 -0.4525
23047SOL    HW170582   7.720   2.774   8.875  1.0454  1.2967 -0.1872
23047SOL    HW270583   7.750   2.895   8.789 -1.9844  1.9486 -0.4435
23048SOL     OW70584   4.259   0.649   0.818  0.0024 -0.8225  0.0686
23048SOL    HW170585   4.278   0.693   0.735  0.9134 -0.1026  0.6365
23048SOL    HW270586   4.169   0.674   0.839 -0.1218 -0.7407 -0.5313
23049SOL     OW70587   6.096   5.051   3.779 -0.4579 -0.1447  0.7502
23049SOL    HW170588   6.009   5.012   3.788 -0.2366 -0.2981  2.4249
23049SOL    HW270589   6.157   4.977   3.784 -0.1664  0.0997  0.8284
23050SOL     OW70590   4.269   7.037   9.926 -0.2602  0.0151 -0.0409
23050SOL    HW170591   4.303   7.060  10.013 -1.9505  1.2410  0.3377
23050SOL    HW270592   4.303   7.106   9.869 -1.5055  0.8701  0.2173
23051SOL     OW70593   2.275   6.693  10.556  0.5172 -0.6232 -0.1123
23051SOL    HW170594   2.246   6.652  10.475 -0.7587 -0.3489  0.1953
23051SOL    HW270595   2.258   6.786  10.544 -0.5040 -0.6722  0.7897
23052SOL     OW70596   7.371   5.858  11.631  0.4711 -0.0682 -0.0569
23052SOL    HW170597   7.300   5.795  11.646  1.0486 -0.1837  2.7303
23052SOL    HW270598   7.334   5.942  11.656  1.0391  0.0133  0.5173
23053SOL     OW70599   0.455   0.361  12.428 -0.5646 -0.1851 -0.2087
23053SOL    HW170600   0.451   0.295  12.498  0.8894 -0.8306 -0.6892
23053SOL    HW270601   0.543   0.398  12.436 -0.9960  0.9550 -0.6235
23054SOL     OW70602   0.345   3.135   4.503  0.3004 -0.1693  0.1779
23054SOL    HW170603   0.345   3.229   4.521 -1.1609  0.0295 -0.6897
23054SOL    HW270604   0.404   3.098   4.568 -1.6130  0.9612  2.7281
23055SOL     OW70605   7.179   0.051   8.719  0.1644 -0.0542 -0.5662
23055SOL    HW170606   7.091   0.085   8.733  0.3752  0.1742  0.2261
23055SOL    HW270607   7.175   0.011   8.632 -0.5079  0.6226 -0.8621
23056SOL     OW70608   5.990   7.715   6.145 -0.4336 -0.2610  0.0673
23056SOL    HW170609   5.954   7.736   6.058  0.3993  2.7391  0.3282
23056SOL    HW270610   5.918   7.671   6.190 -1.1915 -1.0747 -1.8120
23057SOL     OW70611   6.302   1.180  11.313 -0.1457  0.0570 -0.2625
23057SOL    HW170612   6.388   1.139  11.322  0.0112  0.8055  3.0987
23057SOL    HW270613   6.321   1.273  11.301 -0.4693  0.1807  0.1628
23058SOL     OW70614   2.858   7.562   9.155 -0.3304 -0.0697  0.5838
23058SOL    HW170615   2.913   7.551   9.077  0.4048 -0.7287  1.1757
23058SOL    HW270616   2.841   7.656   9.159  1.4789  0.2957  0.8312
23059SOL     OW70617   6.131   7.746   7.116  0.1143  0.1824  0.0057
23059SOL    HW170618   6.041   7.724   7.140  0.3051  0.1317  0.6818
23059SOL    HW270619   6.185   7.690   7.171  0.5801  1.2244  0.6295
23060SOL     OW70620   4.333   0.030   6.098 -0.1186  0.8425 -0.6145
23060SOL    HW170621   4.312  -0.049   6.048 -0.2120  0.9957 -0.8182
23060SOL    HW270622   4.421   0.012   6.133 -0.0501  0.7319 -0.8348
23061SOL     OW70623   3.073   7.044  10.645  0.2766  0.2204 -0.4560
23061SOL    HW170624   3.109   7.018  10.730 -0.1891  1.7296  0.2402
23061SOL    HW270625   2.989   6.998  10.640  0.9129 -0.9520 -0.7404
23062SOL     OW70626   6.500   2.246   1.887  0.0215  0.2149  0.6304
23062SOL    HW170627   6.415   2.210   1.913  0.6079 -1.4550  0.3291
23062SOL    HW270628   6.562   2.175   1.902  1.2005  1.0365 -0.2046
23063SOL     OW70629   5.029   7.598  11.037 -0.4459  0.4375 -0.1781
23063SOL    HW170630   5.117   7.562  11.037  0.0216  1.5269  0.6020
23063SOL    HW270631   4.975   7.527  11.073  0.3083  0.1754  0.4814
23064SOL     OW70632   4.732   1.140  10.450  0.2252 -0.7182  0.0948
23064SOL    HW170633   4.788   1.150  10.527  1.3505 -4.5487  0.0171
23064SOL    HW270634   4.654   1.096  10.483  0.5110 -1.9662 -0.7993
23065SOL     OW70635   7.513   6.609   2.525  0.1669 -0.5856 -0.4289
23065SOL    HW170636   7.465   6.643   2.449  1.3810  2.1613 -0.0976
23065SOL    HW270637   7.466   6.529   2.549 -3.7089  1.3382 -0.7261
23066SOL     OW70638   3.533   4.532   1.211 -0.0430  0.3500 -0.2654
23066SOL    HW170639   3.539   4.617   1.256 -0.2494 -0.4494  1.3764
23066SOL    HW270640   3.580   4.472   1.269 -0.2872 -0.7378 -1.1753
23067SOL     OW70641   0.904   1.620   9.760  0.4222  0.1478  0.2806
23067SOL    HW170642   0.930   1.619   9.852 -0.0985 -2.2116  0.4600
23067SOL    HW270643   0.809   1.613   9.762  0.3799  0.4443 -0.4518
23068SOL     OW70644   5.761   7.817   6.522 -0.2410 -0.1787 -0.0245
23068SOL    HW170645   5.748   7.838   6.614  0.1846  1.0620 -0.2342
23068SOL    HW270646   5.762   7.721   6.519  1.0337 -0.2383  1.4435
23069SOL     OW70647   0.440   0.686   5.989 -0.8119 -0.4776 -0.7333
23069SOL    HW170648   0.412   0.736   5.913 -0.6572  0.0482 -0.4451
23069SOL    HW270649   0.536   0.693   5.989 -0.7719 -0.9944 -0.8453
23070SOL     OW70650   1.391   7.867   9.252  0.1399 -0.4169 -0.1846
23070SOL    HW170651   1.485   7.849   9.245  0.5800  1.0957  1.1128
23070SOL    HW270652   1.372   7.858   9.345 -0.8640 -0.0889 -0.3512
23071SOL     OW70653   0.446   6.190   0.009  0.2847 -0.1770 -0.1305
23071SOL    HW170654   0.487   6.243  -0.059  1.6185 -2.2392 -1.0231
23071SOL    HW270655   0.408   6.115  -0.038 -0.0525 -0.9127  1.2437
23072SOL     OW70656   1.860   2.939  11.147 -0.2864 -0.6002 -0.1951
23072SOL    HW170657   1.808   2.916  11.071 -0.9529 -1.9174  0.6181
23072SOL    HW270658   1.809   2.907  11.222  0.3313  0.6633  0.8219
23073SOL     OW70659   2.256   0.836  10.590  0.2849  0.2936  0.1536
23073SOL    HW170660   2.255   0.780  10.669 -1.6871  1.8923  1.3572
23073SOL    HW270661   2.345   0.825  10.555  0.1449 -3.2276  0.5289
23074SOL     OW70662   7.170   1.543   7.852 -0.1643 -0.0618 -0.2701
23074SOL    HW170663   7.230   1.471   7.871 -0.3354 -0.1225  0.0476
23074SOL    HW270664   7.177   1.601   7.928  0.3395  0.5080 -0.7499
23075SOL     OW70665   4.653   5.591   6.188  0.4659 -0.0206 -0.1895
23075SOL    HW170666   4.717   5.525   6.165  0.3836  0.6958 -2.8768
23075SOL    HW270667   4.570   5.557   6.155  0.0873  0.5555  0.1400
23076SOL     OW70668   1.069   5.418   2.343  0.0934 -0.3737 -0.4411
23076SOL    HW170669   1.158   5.407   2.308  0.6463 -4.5347  1.6448
23076SOL    HW270670   1.082   5.441   2.435 -0.9065 -1.9029  0.1191
23077SOL     OW70671   1.404   1.799   9.922  0.3497  0.1144 -0.2459
23077SOL    HW170672   1.331   1.773   9.867  0.3548 -0.4762  0.0146
23077SOL    HW270673   1.456   1.859   9.868  0.5038 -0.6629 -0.9794
23078SOL     OW70674   4.390   7.629   5.935  0.4544  0.3605 -0.2992
23078SOL    HW170675   4.398   7.723   5.954  2.5083  0.6140 -1.9583
23078SOL    HW270676   4.477   7.593   5.955  0.5969 -0.5962 -2.3744
23079SOL     OW70677   7.215   7.531   2.482 -0.4459 -0.3599  0.0319
23079SOL    HW170678   7.198   7.588   2.557 -1.1661  0.4278 -0.7119
23079SOL    HW270679   7.256   7.588   2.417  0.8490 -1.1996  0.0682
23080SOL     OW70680   1.020   6.101   6.416 -0.5645  0.0204 -0.5441
23080SOL    HW170681   1.036   6.017   6.459  0.5603  0.1140 -0.7434
23080SOL    HW270682   1.008   6.163   6.489  0.6185  0.0462 -0.3537
23081SOL     OW70683   0.345   6.390   7.265  0.2514  0.8617 -0.2990
23081SOL    HW170684   0.287   6.463   7.285 -1.4133 -0.2469 -0.9222
23081SOL    HW270685   0.288   6.322   7.231  2.0617  0.1142 -2.0533
23082SOL     OW70686   4.501   4.037  11.959 -0.1657 -0.3798  0.4819
23082SOL    HW170687   4.412   4.039  11.993 -0.0109  0.2852  0.8707
23082SOL    HW270688   4.556   4.026  12.037  0.0911 -0.9085  0.2356
23083SOL     OW70689   0.728   4.384   1.893 -0.4513  0.3196 -0.5014
23083SOL    HW170690   0.797   4.402   1.829  0.1526 -0.2272 -0.0220
23083SOL    HW270691   0.664   4.331   1.845 -0.4556  0.6755 -0.8964
23084SOL     OW70692   7.804   6.165   8.443 -0.4504  0.2130  0.3116
23084SOL    HW170693   7.805   6.132   8.353 -0.4518  0.5129  0.1999
23084SOL    HW270694   7.740   6.236   8.442  1.6866  2.3104 -0.2167
23085SOL     OW70695   4.353   2.229   8.324 -0.1763 -0.1288  0.7299
23085SOL    HW170696   4.322   2.155   8.272  1.1084 -0.3442  0.2324
23085SOL    HW270697   4.312   2.306   8.285 -1.9457 -0.5926  1.5805
23086SOL     OW70698   1.674   6.192   1.400  0.0783 -0.5075 -0.0754
23086SOL    HW170699   1.767   6.184   1.379  0.4673 -0.4309  1.4403
23086SOL    HW270700   1.669   6.172   1.494 -1.2252  0.7913  0.1831
23087SOL     OW70701   5.071   3.004   3.181  0.2742 -0.0337 -0.0011
23087SOL    HW170702   5.150   2.975   3.226 -0.7149 -0.1992  1.7382
23087SOL    HW270703   5.067   3.098   3.198  0.7387  0.2203 -1.1858
23088SOL     OW70704   0.039   6.131   5.523  0.2441  0.2877  0.0533
23088SOL    HW170705   0.022   6.215   5.566  1.5875  1.2564 -1.1852
23088SOL    HW270706   0.068   6.155   5.434 -0.8580 -1.5516 -0.8748
23089SOL     OW70707   0.418   4.609   9.154  0.5736  0.5483 -0.0593
23089SOL    HW170708   0.352   4.637   9.091 -0.6392 -0.1064  0.8863
23089SOL    HW270709   0.386   4.525   9.187  0.3987  1.5230  2.4910
23090SOL     OW70710   1.753   4.302   9.869  0.0750 -0.3498 -0.5130
23090SOL    HW170711   1.769   4.276   9.779  2.2444  0.0232 -0.3086
23090SOL    HW270712   1.778   4.395   9.872  0.3047 -0.4296  0.5185
23091SOL     OW70713   4.430   2.263   7.961 -0.3782  0.0983  0.8210
23091SOL    HW170714   4.482   2.318   8.019 -1.0171  1.6779 -0.0640
23091SOL    HW270715   4.446   2.174   7.993  2.0247  0.5993  1.2180
23092SOL     OW70716   6.294   5.438  10.546  0.4722  0.2779  0.3821
23092SOL    HW170717   6.278   5.419  10.638  1.0484 -1.7708  0.1206
23092SOL    HW270718   6.388   5.429  10.535  0.5854  1.8193 -0.1701
23093SOL     OW70719   6.588   0.536   9.740 -0.4159 -0.0912 -0.2650
23093SOL    HW170720   6.520   0.570   9.798 -0.6965 -1.5685  0.3296
23093SOL    HW270721   6.559   0.446   9.721  0.2382  0.0097 -1.8093
23094SOL     OW70722   7.828   0.260   5.439 -0.0634  0.1084 -0.4824
23094SOL    HW170723   7.765   0.234   5.506  1.1556  0.0289  0.6833
23094SOL    HW270724   7.778   0.315   5.379 -1.4260 -0.6411 -0.0733
23095SOL     OW70725   6.605   0.484   4.299 -0.7916  0.4294 -0.0189
23095SOL    HW170726   6.618   0.523   4.212 -0.4039  1.0561  0.3139
23095SOL    HW270727   6.521   0.440   4.293 -0.4802 -0.0768 -0.9115
23096SOL     OW70728   0.344   0.451   4.508 -0.2542 -0.0481  0.1377
23096SOL    HW170729   0.308   0.412   4.587 -1.0671 -0.8310 -0.6121
23096SOL    HW270730   0.273   0.504   4.472  0.0702  0.2052 -0.1453
23097SOL     OW70731   2.784   1.471   8.630 -0.2404 -0.1475 -0.5927
23097SOL    HW170732   2.727   1.546   8.649  0.4392 -0.1500  1.8095
23097SOL    HW270733   2.873   1.505   8.646  0.3206 -0.6966 -2.3217
23098SOL     OW70734   7.886   7.661   3.359 -0.1342  0.8057 -0.3651
23098SOL    HW170735   7.830   7.643   3.283 -1.3761 -0.6428  0.8264
23098SOL    HW270736   7.827   7.702   3.423  1.0759  2.7717 -0.4192
23099SOL     OW70737   1.736   3.231   9.757  0.2839  0.1477  0.4283
23099SOL    HW170738   1.649   3.268   9.748  0.3024  0.3577  1.0207
23099SOL    HW270739   1.789   3.275   9.691  0.2260  0.9389  0.8907
23100SOL     OW70740   4.776   0.157   8.093  0.2673  0.4760  0.1276
23100SOL    HW170741   4.825   0.233   8.061 -1.7458  1.3031 -1.1859
23100SOL    HW270742   4.802   0.086   8.034 -0.5127  1.0615 -0.9679
23101SOL     OW70743   6.936   0.399   3.511 -0.2669  0.0123  0.1609
23101SOL    HW170744   7.002   0.401   3.580 -0.6934  0.0501  0.5733
23101SOL    HW270745   6.924   0.306   3.493 -1.0166 -0.0602  0.9827
23102SOL     OW70746   7.535   0.985   0.946  0.0245  0.5225  0.6251
23102SOL    HW170747   7.495   0.988   0.859  0.3456  0.8687  0.4890
23102SOL    HW270748   7.629   0.975   0.929  0.1199  0.8908  0.9300
23103SOL     OW70749   5.941   7.690   8.624  0.1481  0.0487  0.1118
23103SOL    HW170750   5.846   7.699   8.622  0.0195 -0.5705  1.7542
23103SOL    HW270751   5.958   7.604   8.587  0.0653  0.1422 -0.1438
23104SOL     OW70752   6.574   0.138   5.976  0.3108 -0.1362  0.4999
23104SOL    HW170753   6.521   0.174   5.905  0.4384 -1.0988 -0.0956
23104SOL    HW270754   6.512   0.088   6.030  0.1471  0.8779  1.2883
23105SOL     OW70755   5.937   4.999   4.908 -0.2804  1.0258 -0.1314
23105SOL    HW170756   6.005   4.964   4.850 -0.1658 -0.4040  0.8352
23105SOL    HW270757   5.861   4.944   4.891 -0.1825  0.4598  1.2139
23106SOL     OW70758   7.275   6.311   8.590 -0.3962 -0.4507  0.3793
23106SOL    HW170759   7.257   6.251   8.517  0.6548  0.0971 -0.3512
23106SOL    HW270760   7.203   6.295   8.651 -0.8774 -1.4859 -0.4107
23107SOL     OW70761   7.826   3.957   9.903  0.1456  0.0843  0.3532
23107SOL    HW170762   7.921   3.961   9.913  0.1401 -0.3486  0.6059
23107SOL    HW270763   7.812   3.954   9.808  0.3115  1.6487  0.2533
23108SOL     OW70764   2.413   3.826   2.991 -0.5448 -0.1260  0.1751
23108SOL    HW170765   2.387   3.764   3.059 -0.0626 -0.0440  0.4321
23108SOL    HW270766   2.330   3.857   2.955 -0.7959 -1.8469 -0.8139
23109SOL     OW70767   4.537   6.833   7.406  0.2071 -0.2613  0.2327
23109SOL    HW170768   4.588   6.861   7.482  1.6493 -0.9127 -0.4729
23109SOL    HW270769   4.520   6.740   7.423  0.6905 -0.4525 -0.3264
23110SOL     OW70770   6.314   1.292  10.652  0.2220  0.4524  0.8665
23110SOL    HW170771   6.223   1.307  10.680  0.1777  1.1923  0.3507
23110SOL    HW270772   6.318   1.329  10.564  0.5847 -1.0931  0.2122
23111SOL     OW70773   0.887   2.518  12.047  0.3668 -0.1282  0.4105
23111SOL    HW170774   0.955   2.569  12.003 -1.0972  2.1512  0.6255
23111SOL    HW270775   0.829   2.490  11.977  0.6423 -0.7018  0.4037
23112SOL     OW70776   3.755   2.894   2.379  0.2663 -0.1179  0.1175
23112SOL    HW170777   3.823   2.844   2.423 -1.1611 -1.3664  1.0074
23112SOL    HW270778   3.746   2.974   2.431  2.6893  1.2719 -1.4195
23113SOL     OW70779   5.228   0.087   6.756 -0.0156  0.6059 -0.2436
23113SOL    HW170780   5.217   0.019   6.690 -0.1442  1.0119 -0.6402
23113SOL    HW270781   5.185   0.051   6.834 -1.7450  0.9906 -0.9659
23114SOL     OW70782   4.677   6.888   5.888  0.1616  0.2959 -0.3579
23114SOL    HW170783   4.679   6.792   5.883  0.4026  0.3579 -1.8630
23114SOL    HW270784   4.731   6.909   5.964  1.3533 -0.7167 -0.8966
23115SOL     OW70785   0.231   2.982   4.754 -0.5739  0.7016 -0.5189
23115SOL    HW170786   0.169   3.046   4.787 -1.9235 -0.6861 -0.2662
23115SOL    HW270787   0.317   3.022   4.768 -1.1418  0.9777  3.0320
23116SOL     OW70788   3.440   3.697  10.334  0.1519  0.3867  0.0297
23116SOL    HW170789   3.469   3.638  10.404 -2.8047 -1.9155 -0.4943
23116SOL    HW270790   3.481   3.662  10.255 -2.0147 -1.4801 -0.3658
23117SOL     OW70791   6.821   3.043   0.787  0.0182 -0.1464 -0.5383
23117SOL    HW170792   6.780   2.956   0.784  0.8700 -0.5764 -0.0798
23117SOL    HW270793   6.814   3.069   0.879  0.6611 -0.1708 -0.4822
23118SOL     OW70794   3.525   6.227   9.106 -0.2135  0.1559  0.2168
23118SOL    HW170795   3.484   6.151   9.148  1.6911 -0.7156  0.6140
23118SOL    HW270796   3.601   6.191   9.060  0.7254  1.8049  0.4015
23119SOL     OW70797   3.983   7.952  12.109  0.1153 -0.9990  0.3444
23119SOL    HW170798   3.980   8.029  12.165 -1.3968 -1.5837  1.1312
23119SOL    HW270799   4.014   7.881  12.166 -1.1696 -1.5402  0.3987
23120SOL     OW70800   5.820   5.093   6.101  0.1495  0.2835 -0.0563
23120SOL    HW170801   5.758   5.040   6.052  0.3728  0.2601 -0.3215
23120SOL    HW270802   5.902   5.086   6.051 -0.0223  1.5189 -0.5617
23121SOL     OW70803   7.773   5.115   0.526 -0.3764  0.1907 -0.0710
23121SOL    HW170804   7.725   5.132   0.607  1.3042  0.7735  0.8567
23121SOL    HW270805   7.797   5.022   0.531 -0.2054  0.2466  0.1444
23122SOL     OW70806   0.321   0.836   3.493  0.5186  0.4390 -0.2104
23122SOL    HW170807   0.360   0.753   3.465  0.4376  0.5257 -0.5792
23122SOL    HW270808   0.329   0.834   3.588  0.4628 -0.0220 -0.2103
23123SOL     OW70809   3.205   1.658  11.092  0.0711  0.3797  0.2853
23123SOL    HW170810   3.173   1.567  11.092 -0.3439  0.4894 -1.5595
23123SOL    HW270811   3.165   1.697  11.014  2.6304  1.2824 -0.6472
23124SOL     OW70812   4.496   7.608   7.312 -0.2963 -0.1335 -0.3470
23124SOL    HW170813   4.585   7.640   7.294 -0.9543  2.1473  0.0999
23124SOL    HW270814   4.473   7.646   7.397 -0.9608 -2.4481  0.5907
23125SOL     OW70815   0.125   0.572   1.099  0.2038 -0.2702 -0.3734
23125SOL    HW170816   0.217   0.592   1.080  0.4008  0.1979  0.9593
23125SOL    HW270817   0.084   0.561   1.013  1.3759  0.0884 -0.9966
23126SOL     OW70818   7.643   1.508   8.838  0.5387 -0.6413  0.2867
23126SOL    HW170819   7.570   1.477   8.785  1.3637  1.8782 -2.5486
23126SOL    HW270820   7.603   1.567   8.902 -0.2296 -2.1177  1.2334
23127SOL     OW70821   6.387   4.102   7.980 -0.1179  0.2239  0.8698
23127SOL    HW170822   6.381   4.006   7.971 -1.4892  0.4113 -0.6924
23127SOL    HW270823   6.442   4.115   8.057  0.9682 -1.8185  0.5188
23128SOL     OW70824   1.356   0.548   4.524 -0.0328  0.0331 -0.0697
23128SOL    HW170825   1.272   0.555   4.568  0.0880  1.3493 -0.0143
23128SOL    HW270826   1.339   0.575   4.434  0.1870 -0.4279 -0.2558
23129SOL     OW70827   7.457   4.773   9.810 -0.5909  0.1046 -0.4232
23129SOL    HW170828   7.509   4.723   9.873 -1.4470  2.0800  1.9715
23129SOL    HW270829   7.516   4.842   9.779 -0.3674 -0.4891 -1.3621
23130SOL     OW70830   6.468   4.971   9.748  0.5911  0.0482 -1.1826
23130SOL    HW170831   6.477   5.060   9.781 -1.2068 -0.5673  1.2243
23130SOL    HW270832   6.406   4.980   9.675 -0.5522  0.6540 -0.1736
23131SOL     OW70833   6.548   3.550   0.749  0.0128  0.1146  0.3593
23131SOL    HW170834   6.641   3.548   0.768  0.5576  1.1042 -1.8483
23131SOL    HW270835   6.519   3.459   0.760  1.7067 -0.6183 -0.9119
23132SOL     OW70836   6.744   5.692   4.281 -0.2137 -0.1266  0.2155
23132SOL    HW170837   6.704   5.607   4.299  0.5246 -0.4091  0.5378
23132SOL    HW270838   6.827   5.691   4.329 -0.3358  0.8963  0.4709
23133SOL     OW70839   3.054   4.703   4.110  0.3609 -0.0002  0.0578
23133SOL    HW170840   3.105   4.774   4.149  1.6119 -0.8880  0.0947
23133SOL    HW270841   3.118   4.636   4.089 -0.8583 -1.4125  0.6205
23134SOL     OW70842   4.713   0.752   8.842 -0.2958 -0.3871 -0.2450
23134SOL    HW170843   4.643   0.687   8.849 -2.8363  2.2991  2.5352
23134SOL    HW270844   4.776   0.728   8.910  0.1215 -1.3388 -0.9598
23135SOL     OW70845   2.711   3.195   7.178 -0.2058  0.2858  0.4685
23135SOL    HW170846   2.760   3.173   7.098 -1.4129  0.9256 -0.4805
23135SOL    HW270847   2.673   3.112   7.206  1.3508 -0.2168  1.2033
23136SOL     OW70848   2.854   3.359   2.367 -0.0160  0.0295  0.4478
23136SOL    HW170849   2.935   3.405   2.388  1.5549 -2.5022  0.3567
23136SOL    HW270850   2.845   3.366   2.272 -0.3669  0.9749  0.5413
23137SOL     OW70851   4.241   4.879  11.252 -0.1167  0.0781  0.4335
23137SOL    HW170852   4.211   4.959  11.294  0.5221  0.1790  0.7046
23137SOL    HW270853   4.162   4.827  11.240 -0.7552  1.2798 -0.9326
23138SOL     OW70854   3.650   7.654  12.221  0.0389  0.0543  0.3543
23138SOL    HW170855   3.721   7.628  12.162 -0.1114 -0.7687  0.5367
23138SOL    HW270856   3.694   7.676  12.303  0.1433  0.2021  0.2608
23139SOL     OW70857   2.750   6.581  11.804  0.2703 -0.2921 -0.4454
23139SOL    HW170858   2.788   6.541  11.726  2.1405  0.4632  0.0182
23139SOL    HW270859   2.772   6.674  11.796 -0.5703 -0.0014  0.4069
23140SOL     OW70860   7.635   3.973  12.348  0.3713 -0.3384  0.3098
23140SOL    HW170861   7.689   3.938  12.418 -2.1828  1.2311  3.3231
23140SOL    HW270862   7.546   3.942  12.368 -0.5649  0.5494 -2.0217
23141SOL     OW70863   6.432   1.108   1.459  0.3127  0.4487  0.4333
23141SOL    HW170864   6.514   1.085   1.416 -0.5447  0.1396 -1.0970
23141SOL    HW270865   6.365   1.060   1.410 -0.8764  1.3718  1.1103
23142SOL     OW70866   4.250   5.707   3.889 -0.0126 -0.0803  0.3102
23142SOL    HW170867   4.182   5.712   3.956 -1.6634 -1.3454 -1.1619
23142SOL    HW270868   4.220   5.769   3.822  0.2514 -0.6908 -0.3771
23143SOL     OW70869   6.945   4.186   8.875  0.7316  0.2579 -0.1668
23143SOL    HW170870   6.906   4.264   8.834  0.1275  0.2141  0.3265
23143SOL    HW270871   6.978   4.135   8.801 -1.2706 -0.3289 -0.7217
23144SOL     OW70872   1.374   7.372   7.891 -0.0978 -0.0169  0.7388
23144SOL    HW170873   1.321   7.371   7.971 -1.2475  2.9278  0.1403
23144SOL    HW270874   1.321   7.327   7.826  0.1228 -0.9675  1.1963
23145SOL     OW70875   4.761   4.169   5.266  0.2890 -0.5836  0.0636
23145SOL    HW170876   4.782   4.259   5.241 -2.6931  0.4142  0.6787
23145SOL    HW270877   4.742   4.175   5.360 -2.1233 -1.3113 -0.3202
23146SOL     OW70878   1.137   1.145   3.757  0.4033  0.2270  0.1259
23146SOL    HW170879   1.124   1.051   3.772  1.9946  0.1063  0.9763
23146SOL    HW270880   1.104   1.160   3.668  0.0377 -1.1141  0.0160
23147SOL     OW70881   4.918   0.274   2.391 -0.2909  0.6512  0.3274
23147SOL    HW170882   4.991   0.238   2.442  0.2389  0.6292 -0.4362
23147SOL    HW270883   4.851   0.293   2.456 -0.2055 -0.7863  0.8689
23148SOL     OW70884   0.340   7.327   9.327  0.1519  0.2597 -0.0808
23148SOL    HW170885   0.251   7.363   9.335  0.0784  0.3552 -1.1507
23148SOL    HW270886   0.391   7.399   9.290  0.1529 -0.4864 -1.6260
23149SOL     OW70887   0.096   3.432   6.151 -0.0136  0.2343 -0.2231
23149SOL    HW170888  -0.000   3.429   6.150 -0.1078  2.0334 -1.8861
23149SOL    HW270889   0.121   3.410   6.061  1.2671 -1.9320  0.5948
23150SOL     OW70890   5.393   4.376   2.745  0.1658 -0.0524  0.2630
23150SOL    HW170891   5.324   4.319   2.777 -2.1464  1.8165 -1.0426
23150SOL    HW270892   5.363   4.404   2.658  2.3161  1.2775 -0.1489
23151SOL     OW70893   1.935   0.095   2.452  0.5007  0.5515  0.7259
23151SOL    HW170894   1.969   0.117   2.365 -0.5432  1.5014  0.5369
23151SOL    HW270895   1.897   0.177   2.484  1.9387  0.5522  2.5976
23152SOL     OW70896   5.297   1.341  12.073  0.2574 -0.1090 -0.3328
23152SOL    HW170897   5.382   1.370  12.040 -0.3511 -0.3386 -2.1771
23152SOL    HW270898   5.243   1.331  11.995 -1.5632  0.2763  0.8348
23153SOL     OW70899   5.698   5.944  12.007 -0.1033  0.6292  0.1920
23153SOL    HW170900   5.635   5.883  12.046 -0.0734  1.4372  1.5910
23153SOL    HW270901   5.775   5.891  11.989 -0.3577  0.0887  0.6595
23154SOL     OW70902   2.705   1.342   0.192 -0.4192  0.1767  0.5626
23154SOL    HW170903   2.680   1.257   0.229 -1.0218 -0.0125 -0.2501
23154SOL    HW270904   2.736   1.393   0.267  1.0483 -1.1354  0.9211
23155SOL     OW70905   5.970   3.863  10.518 -0.4105  0.1418 -0.2533
23155SOL    HW170906   6.035   3.797  10.493 -0.0760  0.5307 -0.4369
23155SOL    HW270907   5.941   3.900  10.434 -1.5544 -0.6614 -0.2325
23156SOL     OW70908   4.273   4.282   8.803  0.2837  0.4189 -0.3700
23156SOL    HW170909   4.283   4.370   8.839 -0.9909  0.4644 -0.0686
23156SOL    HW270910   4.362   4.249   8.795  0.8859  2.1579 -1.5821
23157SOL     OW70911   3.160   2.682   8.035 -0.3228 -0.0262  0.2120
23157SOL    HW170912   3.112   2.605   8.064 -1.0302 -0.0341 -0.8879
23157SOL    HW270913   3.147   2.684   7.940  0.4555  0.9301  0.1011
23158SOL     OW70914   7.117   6.728   3.195  0.3699  0.3067 -0.2619
23158SOL    HW170915   7.162   6.663   3.249  0.6533 -0.7298 -1.6854
23158SOL    HW270916   7.026   6.726   3.226  0.5364 -0.2333  0.2047
23159SOL     OW70917   3.055   7.631   6.425  0.2062 -0.4579 -0.0616
23159SOL    HW170918   2.974   7.636   6.476  0.2599 -1.2770  0.1321
23159SOL    HW270919   3.027   7.613   6.336  0.1168  0.8452 -0.3043
23160SOL     OW70920   7.115   7.301   8.524  0.5337  0.4242 -0.2788
23160SOL    HW170921   7.175   7.269   8.592  1.3355  1.8758 -0.2603
23160SOL    HW270922   7.157   7.381   8.492 -0.2979  0.2593 -1.8440
23161SOL     OW70923   7.109   7.249  10.504 -0.4704 -0.6249  0.1257
23161SOL    HW170924   7.082   7.165  10.467  0.5109 -0.4202 -1.1432
23161SOL    HW270925   7.028   7.297  10.515 -0.9979 -1.5353  0.3615
23162SOL     OW70926   1.514   2.621   2.845 -0.1548 -0.0016 -0.9911
23162SOL    HW170927   1.593   2.636   2.897 -0.4179 -0.3436 -0.4835
23162SOL    HW270928   1.469   2.551   2.891 -0.8977  0.3885 -1.1213
23163SOL     OW70929   7.342   5.769   1.912 -0.1058 -1.0555 -0.0803
23163SOL    HW170930   7.379   5.685   1.938  2.7066 -0.1720 -0.8384
23163SOL    HW270931   7.332   5.762   1.817  1.5955 -0.1017 -0.3723
23164SOL     OW70932   3.392   0.243   6.879  0.5827 -0.1162  0.0638
23164SOL    HW170933   3.479   0.271   6.907  1.6118 -1.2251 -1.8577
23164SOL    HW270934   3.395   0.244   6.783 -1.3564 -0.6770 -0.0613
23165SOL     OW70935   7.415   5.459   1.921 -0.1421  0.4221  0.0709
23165SOL    HW170936   7.415   5.487   1.830 -0.2824  0.8735  0.2107
23165SOL    HW270937   7.370   5.374   1.920 -0.6410  0.6869 -0.1962
23166SOL     OW70938   5.793   2.494  11.694  0.0462  0.3849 -0.3892
23166SOL    HW170939   5.746   2.513  11.613  0.2126 -0.7930 -0.7813
23166SOL    HW270940   5.860   2.431  11.669  1.5602  1.6660  0.2509
23167SOL     OW70941   2.717   0.536  11.671  0.0378  0.0557 -0.3315
23167SOL    HW170942   2.675   0.450  11.678  0.0365  0.1510  1.1203
23167SOL    HW270943   2.810   0.516  11.666  0.0873 -0.0249  0.7082
23168SOL     OW70944   3.605   7.344  11.545  0.1668 -1.3257 -0.5773
23168SOL    HW170945   3.624   7.300  11.628  0.8140  1.6831  0.9739
23168SOL    HW270946   3.524   7.392  11.561  0.8999  0.2061 -1.3010
23169SOL     OW70947   3.097   6.829   9.602 -0.7209  0.5028  0.0231
23169SOL    HW170948   3.003   6.819   9.589 -0.6882  1.3209 -0.9781
23169SOL    HW270949   3.125   6.889   9.533  0.7752 -0.8434 -0.6325
23170SOL     OW70950   3.823   4.026   0.251  0.3742  0.2951 -0.1070
23170SOL    HW170951   3.807   3.960   0.184 -0.8116  0.9689 -0.5239
23170SOL    HW270952   3.763   4.097   0.229  1.2925  1.3196  0.5931
23171SOL     OW70953   7.584   3.716   8.751 -0.8894  0.0116  0.0325
23171SOL    HW170954   7.559   3.720   8.844 -1.3964 -0.8799 -0.0537
23171SOL    HW270955   7.664   3.663   8.751  0.0159  1.3525  0.1190
23172SOL     OW70956   2.733   2.299   1.258  0.2727  0.2544  0.0432
23172SOL    HW170957   2.756   2.244   1.333 -0.3689  1.3869  1.1138
23172SOL    HW270958   2.638   2.297   1.255  0.3036 -0.1760 -1.0812
23173SOL     OW70959   6.267   7.431   8.188 -0.2482  0.3106  0.2444
23173SOL    HW170960   6.329   7.372   8.230 -1.0844  0.4487  1.7387
23173SOL    HW270961   6.257   7.504   8.250 -0.6431  1.1009 -0.7205
23174SOL     OW70962   7.203   6.988   5.628 -0.1975  0.0476  0.1201
23174SOL    HW170963   7.133   6.931   5.595  1.0782 -2.2462  1.0888
23174SOL    HW270964   7.172   7.016   5.714 -1.1578  1.5061 -0.6683
23175SOL     OW70965   5.883   7.386  11.556  0.4178  0.2221 -0.6720
23175SOL    HW170966   5.853   7.307  11.510 -1.1491  0.1981  0.2849
23175SOL    HW270967   5.964   7.360  11.600 -0.3337 -1.0371  0.0266
23176SOL     OW70968   6.769   6.921   8.275  0.0608 -0.7567 -0.3416
23176SOL    HW170969   6.752   6.846   8.218 -0.5072  0.5710 -1.9986
23176SOL    HW270970   6.856   6.905   8.311  0.5956 -1.4706 -1.8842
23177SOL     OW70971   0.128   1.274   4.689 -0.3283 -0.0774  0.4574
23177SOL    HW170972   0.224   1.273   4.685 -0.3466  0.7503 -0.6067
23177SOL    HW270973   0.102   1.337   4.622 -1.5881  0.7952  1.7230
23178SOL     OW70974   2.711   5.711  10.480  0.3218  0.1873 -0.6956
23178SOL    HW170975   2.733   5.641  10.540 -0.6615  1.2891  1.0291
23178SOL    HW270976   2.779   5.707  10.412 -0.0903 -2.8118 -1.0636
23179SOL     OW70977   3.749   5.537   4.682  0.0875 -0.2572  0.4044
23179SOL    HW170978   3.731   5.531   4.776 -1.6963  0.1101  0.1309
23179SOL    HW270979   3.789   5.453   4.659 -0.2813 -0.6993  1.3418
23180SOL     OW70980   3.431   6.084   1.867  0.1183 -0.3102 -0.4036
23180SOL    HW170981   3.341   6.114   1.884 -0.4263 -1.6347 -0.8375
23180SOL    HW270982   3.482   6.165   1.860 -0.8724  0.4389  0.7377
23181SOL     OW70983   2.220   4.338   1.933 -0.6427  1.0419  0.1897
23181SOL    HW170984   2.295   4.295   1.974 -1.4524  0.7968  1.4959
23181SOL    HW270985   2.237   4.333   1.839  0.1269 -0.5631  0.3877
23182SOL     OW70986   3.652   2.845   2.686  0.0814  0.1286  0.0003
23182SOL    HW170987   3.570   2.824   2.732 -0.4330 -0.1790 -1.0367
23182SOL    HW270988   3.695   2.761   2.673 -0.3205  0.0745 -1.0717
23183SOL     OW70989   2.199   2.006   3.728 -0.0049  0.2623  0.7765
23183SOL    HW170990   2.158   2.082   3.686  0.8832 -0.8060 -2.2764
23183SOL    HW270991   2.286   2.037   3.752  0.5601  0.1087 -0.9748
23184SOL     OW70992   3.000   5.879   5.930 -0.0069 -0.3699 -0.0533
23184SOL    HW170993   3.064   5.828   5.981  0.6897 -0.7700 -1.2912
23184SOL    HW270994   3.051   5.917   5.859 -1.0269 -0.1220 -0.6625
23185SOL     OW70995   5.959   0.802   0.945 -0.0025  0.0216 -0.2504
23185SOL    HW170996   5.896   0.829   1.012  0.2190 -1.2341  0.4949
23185SOL    HW270997   5.944   0.708   0.934 -0.8370  0.3830 -2.8616
23186SOL     OW70998   5.614   5.092   6.627 -1.1505  0.5363  0.1555
23186SOL    HW170999   5.636   5.058   6.714 -1.0776  0.3601  0.0686
23186SOL    HW271000   5.592   5.015   6.575 -0.5180  0.5751 -0.1787
23187SOL     OW71001   5.686   6.424   2.298 -0.0927 -0.0521  0.4136
23187SOL    HW171002   5.701   6.335   2.330  0.3160 -0.1703 -0.0983
23187SOL    HW271003   5.695   6.417   2.203  0.2006  0.5855  0.3928
23188SOL     OW71004   1.027   6.719   7.052  0.2848 -0.1682 -0.3071
23188SOL    HW171005   1.105   6.768   7.028  1.0124 -0.9576  0.3768
23188SOL    HW271006   1.032   6.637   7.002  0.2865 -0.5399  0.2868
23189SOL     OW71007   3.048   1.786   0.776 -0.0322 -0.1644 -0.2832
23189SOL    HW171008   2.956   1.808   0.794  0.4808  1.5103  0.5658
23189SOL    HW271009   3.097   1.859   0.814  1.7664 -1.8671  0.8874
23190SOL     OW71010   5.689   2.288  10.199  0.5789  0.2498 -0.3288
23190SOL    HW171011   5.609   2.240  10.179 -0.9613  2.8861 -0.9107
23190SOL    HW271012   5.700   2.279  10.294 -1.8003  1.7291  0.1707
23191SOL     OW71013   6.762   4.610   3.859  0.2676 -0.1092  0.4637
23191SOL    HW171014   6.701   4.578   3.926  0.1570 -0.1211  0.3577
23191SOL    HW271015   6.836   4.549   3.863 -0.1673 -0.6806 -0.0851
23192SOL     OW71016   5.502   2.580  10.023 -0.3621 -0.1678  0.7041
23192SOL    HW171017   5.510   2.495   9.980  0.2762  0.2150  0.0493
23192SOL    HW271018   5.588   2.596  10.063  0.7188  1.6702 -2.0490
23193SOL     OW71019   6.471   3.113  10.812 -0.2544 -0.2852  0.1902
23193SOL    HW171020   6.532   3.047  10.776  0.4181  0.9691 -1.1097
23193SOL    HW271021   6.392   3.103  10.759 -0.1224 -0.0275 -0.0645
23194SOL     OW71022   3.174   0.946  10.069 -0.5823 -0.4825  0.4485
23194SOL    HW171023   3.250   0.915  10.119 -0.6080 -2.2755 -0.5462
23194SOL    HW271024   3.152   1.030  10.109  3.0624  1.0573 -0.3635
23195SOL     OW71025   2.082   7.922   9.081  0.1060 -0.1299  0.3029
23195SOL    HW171026   2.060   7.906   9.173 -0.9663 -0.1006  0.0639
23195SOL    HW271027   2.177   7.934   9.081 -0.1229  2.3831  1.7974
23196SOL     OW71028   3.596   5.195   1.128  0.4892  0.1561  0.6558
23196SOL    HW171029   3.535   5.210   1.200  0.1466 -0.8539  0.5880
23196SOL    HW271030   3.583   5.104   1.104 -1.3496  1.0770 -2.4566
23197SOL     OW71031   2.194   6.569   6.543 -0.5229  0.1035  0.3591
23197SOL    HW171032   2.104   6.539   6.529 -0.5431  0.9984 -1.8902
23197SOL    HW271033   2.245   6.521   6.477  0.6552 -0.2986  1.5206
23198SOL     OW71034   7.729   2.203   2.398 -0.4130 -0.4312  0.3311
23198SOL    HW171035   7.714   2.149   2.476 -0.1364  0.6297  1.1377
23198SOL    HW271036   7.665   2.171   2.334 -0.2866 -1.6807  0.7904
23199SOL     OW71037   0.749   7.234  10.485  0.4881 -0.5263 -0.3618
23199SOL    HW171038   0.681   7.286  10.441  0.5531 -0.4928 -0.4214
23199SOL    HW271039   0.711   7.215  10.571  1.1740  1.1006  0.3342
23200SOL     OW71040   4.601   7.924  10.448  0.2908 -0.0225 -0.3605
23200SOL    HW171041   4.514   7.922  10.486  0.6193 -0.5862  0.3903
23200SOL    HW271042   4.619   8.016  10.431 -0.6055  0.0618 -0.9061
23201SOL     OW71043   6.290   0.852   5.923 -0.7271 -0.2126  0.1095
23201SOL    HW171044   6.380   0.870   5.951  0.2794 -1.5948 -1.9680
23201SOL    HW271045   6.261   0.780   5.979 -0.8729  0.7549  1.3193
23202SOL     OW71046   6.525   4.758  10.177 -0.5346 -0.5099 -0.3257
23202SOL    HW171047   6.474   4.679  10.157 -1.3177 -0.7722  2.3876
23202SOL    HW271048   6.487   4.825  10.120 -1.1350 -1.6407 -1.3092
23203SOL     OW71049   7.178   1.453   9.467 -0.1286 -0.0381 -0.1136
23203SOL    HW171050   7.183   1.433   9.561 -1.4063 -2.2414 -0.4413
23203SOL    HW271051   7.095   1.499   9.457 -0.4767 -0.6710 -0.2508
23204SOL     OW71052   4.437   5.444   7.162 -0.0456  0.1277 -0.0547
23204SOL    HW171053   4.438   5.446   7.258  0.4344  1.0256 -0.0778
23204SOL    HW271054   4.477   5.360   7.140 -1.1995 -0.6135  0.5370
23205SOL     OW71055   5.801   2.292   7.468  0.2826 -0.1139  0.1398
23205SOL    HW171056   5.747   2.215   7.483 -0.9195  0.2459 -1.9140
23205SOL    HW271057   5.816   2.293   7.374  0.3253  2.0896  0.1157
23206SOL     OW71058   3.469   3.244   0.883 -0.5305  0.1495 -0.1830
23206SOL    HW171059   3.494   3.155   0.909  1.8422  0.3541 -1.5103
23206SOL    HW271060   3.475   3.295   0.964  1.7811 -0.2020 -0.0714
23207SOL     OW71061   2.920   6.312   0.071 -0.3723  0.0301  0.1019
23207SOL    HW171062   2.869   6.240   0.032 -0.9295  0.3669  0.1968
23207SOL    HW271063   2.950   6.363  -0.005  0.7028 -0.7384 -0.0127
23208SOL     OW71064   7.306   5.075   6.824  0.0459  0.4358  0.4935
23208SOL    HW171065   7.325   5.167   6.804  1.3289 -0.0541 -0.7637
23208SOL    HW271066   7.238   5.050   6.761  0.8928  0.1006 -0.3167
23209SOL     OW71067   5.852   3.899   6.492  0.0126  0.2302  0.6326
23209SOL    HW171068   5.781   3.905   6.429  0.7047 -0.2460 -0.2114
23209SOL    HW271069   5.852   3.984   6.536  0.9732  1.4721 -1.6194
23210SOL     OW71070   6.552   0.834   3.081 -0.0002  0.1241  0.0463
23210SOL    HW171071   6.526   0.868   2.995  0.8939 -1.5022 -0.9269
23210SOL    HW271072   6.482   0.775   3.106  0.8802 -1.3419 -0.7970
23211SOL     OW71073   1.874   6.096   7.373 -0.8429 -0.6374 -0.4103
23211SOL    HW171074   1.961   6.135   7.381 -1.5095  0.8228  0.1047
23211SOL    HW271075   1.819   6.150   7.429 -2.1283 -1.4287 -0.8784
23212SOL     OW71076   3.156   5.866   6.786  0.9073  0.3445  0.4595
23212SOL    HW171077   3.117   5.953   6.785  0.5629  0.1863 -0.2225
23212SOL    HW271078   3.107   5.816   6.721  0.8147 -0.4897  1.1435
23213SOL     OW71079   5.794   0.385   4.406  0.3493  0.1728  0.0390
23213SOL    HW171080   5.740   0.306   4.411  0.3280  0.1234 -0.8084
23213SOL    HW271081   5.738   0.449   4.361  0.4152  0.6329  0.5990
23214SOL     OW71082   5.730   7.082   7.625  0.5355  0.4936 -0.5170
23214SOL    HW171083   5.766   7.000   7.589  0.6744  1.2195 -2.1108
23214SOL    HW271084   5.789   7.104   7.697  0.1430 -1.1144  0.3459
23215SOL     OW71085   2.336   7.621   8.736 -0.0978  0.0763 -0.1244
23215SOL    HW171086   2.361   7.602   8.646  0.8183 -0.1438  0.1675
23215SOL    HW271087   2.279   7.698   8.729  0.4286  0.4100 -0.8403
23216SOL     OW71088   2.501   2.509   3.365 -0.1455 -0.4969  0.1849
23216SOL    HW171089   2.569   2.551   3.417 -0.3518 -3.3263  3.0215
23216SOL    HW271090   2.427   2.500   3.424 -1.8790 -0.4159 -1.8376
23217SOL     OW71091   7.344   4.965   5.657  0.0589  0.1577  0.0169
23217SOL    HW171092   7.342   4.943   5.750 -1.3194 -0.3163 -0.0990
23217SOL    HW271093   7.426   4.927   5.625  0.5173  0.2738  1.0161
23218SOL     OW71094   0.885   6.573   7.657 -0.1514  0.4951 -0.4519
23218SOL    HW171095   0.976   6.562   7.629 -0.2175  1.2241 -0.9895
23218SOL    HW271096   0.880   6.527   7.740 -0.0439 -2.0743 -1.7799
23219SOL     OW71097   0.289   2.655   0.183  0.5854 -0.0953  0.0038
23219SOL    HW171098   0.255   2.611   0.261  0.2402  1.0771  0.5419
23219SOL    HW271099   0.369   2.699   0.212 -0.1879  1.3523  0.0286
23220SOL     OW71100   5.784   7.757   9.260 -0.5688 -0.0527  0.1642
23220SOL    HW171101   5.708   7.720   9.304  0.8836 -1.9293  1.2566
23220SOL    HW271102   5.837   7.795   9.330 -1.6773  3.7314 -0.8535
23221SOL     OW71103   2.317   5.544   2.885 -0.0276  0.5668  0.7209
23221SOL    HW171104   2.353   5.463   2.921 -0.7495  0.0875  0.3781
23221SOL    HW271105   2.392   5.604   2.881  0.3924  0.1032  1.4920
23222SOL     OW71106   7.678   1.930  10.252  0.3417 -0.5526  0.4210
23222SOL    HW171107   7.672   1.843  10.292  0.0592  0.4654  2.7318
23222SOL    HW271108   7.765   1.961  10.276  0.0194  0.2438  0.5860
23223SOL     OW71109   2.296   4.687   2.224 -0.1902  0.0114 -0.1293
23223SOL    HW171110   2.266   4.600   2.198 -1.4334  0.7524 -1.3328
23223SOL    HW271111   2.228   4.718   2.284 -0.2833  0.5455 -0.5085
23224SOL     OW71112   2.694   6.505   0.564 -0.0021  0.9697  0.2872
23224SOL    HW171113   2.763   6.526   0.501  1.1425  0.4789  1.3262
23224SOL    HW271114   2.734   6.523   0.649 -0.2255 -1.7218  1.0547
23225SOL     OW71115   6.084   1.904   7.743 -0.2629  0.1975  0.0015
23225SOL    HW171116   5.997   1.928   7.774 -0.5458  0.0782 -0.6931
23225SOL    HW271117   6.070   1.870   7.655  0.6365  1.4861 -0.6762
23226SOL     OW71118   1.388   3.952   8.059 -0.2604 -0.2623 -0.0368
23226SOL    HW171119   1.414   4.021   8.119  0.8044 -0.0262 -0.7491
23226SOL    HW271120   1.466   3.933   8.007 -0.1438 -2.8348  0.9187
23227SOL     OW71121   0.854   4.996   8.054 -0.1337  0.8131  0.4257
23227SOL    HW171122   0.772   5.029   8.091 -0.4209  0.7338 -0.1208
23227SOL    HW271123   0.851   5.023   7.962  0.6075  1.0866  0.4790
23228SOL     OW71124   2.562   1.589  10.876 -0.3025  0.6341 -0.4787
23228SOL    HW171125   2.481   1.539  10.863 -0.4359  0.9292 -0.7763
23228SOL    HW271126   2.597   1.555  10.959  1.2971 -2.2570 -2.1698
23229SOL     OW71127   1.232   2.661   7.084 -0.1276 -0.2199 -0.2253
23229SOL    HW171128   1.138   2.641   7.082 -0.1655  0.0022 -0.9939
23229SOL    HW271129   1.274   2.575   7.088 -0.2655 -0.6949 -4.2630
23230SOL     OW71130   3.639   3.451  12.261  0.1502 -0.2874 -0.1668
23230SOL    HW171131   3.622   3.381  12.198  0.8950 -0.4467 -0.1934
23230SOL    HW271132   3.591   3.526  12.227 -0.8795 -0.8493 -0.0009
23231SOL     OW71133   6.579   7.242   3.213 -0.6847  0.1871  0.1978
23231SOL    HW171134   6.632   7.212   3.287 -1.5712  0.5017  0.9851
23231SOL    HW271135   6.589   7.173   3.147  0.0711 -0.1301  0.6219
23232SOL     OW71136   6.214   0.341   5.594  0.5831  0.2750  0.2596
23232SOL    HW171137   6.195   0.266   5.537  2.8147  0.2438 -0.5111
23232SOL    HW271138   6.266   0.303   5.665  1.6772  1.0673 -0.1060
23233SOL     OW71139   0.342   1.696   7.273  0.0634 -0.1501  0.2364
23233SOL    HW171140   0.406   1.631   7.302  0.7035  1.1161  1.7162
23233SOL    HW271141   0.259   1.667   7.311 -0.0508 -1.1051 -0.6733
23234SOL     OW71142   3.799   7.938   9.156  0.1858 -0.5470 -0.2948
23234SOL    HW171143   3.778   7.845   9.170 -1.0526 -0.6681 -2.4092
23234SOL    HW271144   3.730   7.985   9.202 -0.2342 -0.7446 -0.7113
23235SOL     OW71145   5.944   2.268   0.193 -0.2620 -0.4372  0.4870
23235SOL    HW171146   5.892   2.331   0.242  1.2460  0.1317  1.4381
23235SOL    HW271147   5.961   2.310   0.109 -1.1144 -0.5356  0.2570
23236SOL     OW71148   1.769   6.621   3.979 -0.0111 -0.3614 -0.1209
23236SOL    HW171149   1.738   6.667   4.057 -0.3143 -0.9328  0.0982
23236SOL    HW271150   1.835   6.559   4.011  0.6510  0.1545 -0.4600
23237SOL     OW71151   1.213   1.177  10.002  0.3362  0.6381  0.4813
23237SOL    HW171152   1.132   1.195   9.954 -1.6342  2.1326  3.9937
23237SOL    HW271153   1.201   1.088  10.036  1.2411 -0.0010 -0.7999
23238SOL     OW71154   4.314   2.425  10.630  0.2444  0.0395 -0.2358
23238SOL    HW171155   4.239   2.371  10.655 -0.3857  0.1731 -1.6888
23238SOL    HW271156   4.292   2.513  10.660  0.4093 -0.1487  0.4563
23239SOL     OW71157   6.099   0.758   0.409  0.4889 -0.3776  0.0975
23239SOL    HW171158   6.135   0.674   0.436  0.3335 -0.8739 -1.1349
23239SOL    HW271159   6.143   0.822   0.464  1.6903 -1.1474  0.0850
23240SOL     OW71160   0.211   5.709   2.966  0.3956  0.1124 -0.2669
23240SOL    HW171161   0.137   5.740   2.914  0.5088 -0.0391 -0.5191
23240SOL    HW271162   0.251   5.641   2.913 -0.3573 -1.0827  0.6345
23241SOL     OW71163   7.984   2.957   9.241  0.2102 -0.5929 -0.4285
23241SOL    HW171164   7.889   2.947   9.232  0.2935 -1.6856 -0.3011
23241SOL    HW271165   8.015   2.968   9.151  0.0271 -1.0099 -0.5476
23242SOL     OW71166   7.614   6.109  11.779 -0.1372  0.2506  0.5141
23242SOL    HW171167   7.655   6.193  11.800  2.0313 -0.4467 -0.5582
23242SOL    HW271168   7.684   6.058  11.737 -1.5318 -1.8926  0.6103
23243SOL     OW71169   4.883   1.213  11.223  0.4043 -0.7142  0.7918
23243SOL    HW171170   4.802   1.217  11.274 -0.8033  0.2045 -1.0639
23243SOL    HW271171   4.906   1.304  11.208 -0.0243 -0.9117 -1.3462
23244SOL     OW71172   2.064   2.700   2.609  0.4337 -0.2952  0.4590
23244SOL    HW171173   1.998   2.755   2.651 -0.8586 -1.8299  0.5593
23244SOL    HW271174   2.076   2.627   2.669  1.2006 -0.7267 -0.2002
23245SOL     OW71175   3.769   2.824   5.010 -0.3947  0.1207 -0.0341
23245SOL    HW171176   3.848   2.873   4.990 -0.5375  0.4879  0.3060
23245SOL    HW271177   3.754   2.837   5.103  0.3553 -1.7346  0.3808
23246SOL     OW71178   0.268   5.037  11.685 -0.5809 -0.2136 -0.1577
23246SOL    HW171179   0.219   5.043  11.767 -0.1021  0.0058  0.1154
23246SOL    HW271180   0.211   5.078  11.620  0.0112  1.7541  0.5041
23247SOL     OW71181   3.622   7.381   1.804 -0.0616  0.1688 -0.5980
23247SOL    HW171182   3.542   7.372   1.751  1.4492 -1.9954 -2.7359
23247SOL    HW271183   3.676   7.443   1.756  0.4324 -0.0683 -0.3514
23248SOL     OW71184   6.164   4.186   4.922 -0.1582  0.1406  0.4275
23248SOL    HW171185   6.119   4.115   4.967 -1.5494  2.2085  2.5650
23248SOL    HW271186   6.109   4.205   4.846 -0.0906 -0.6528  0.1741
23249SOL     OW71187   4.955   5.805   3.988  0.3061 -0.3977  0.1346
23249SOL    HW171188   5.026   5.766   3.937  1.1126 -1.2324  1.8077
23249SOL    HW271189   4.914   5.731   4.033 -0.1997  0.3220  0.8853
23250SOL     OW71190   0.787   5.008   6.360 -0.2311  0.4217 -0.2833
23250SOL    HW171191   0.721   4.943   6.382  1.4766 -1.3594 -0.1252
23250SOL    HW271192   0.869   4.972   6.394  1.2331  1.3520 -2.5398
23251SOL     OW71193   4.817   3.251   8.330  0.2741  0.3042 -0.6930
23251SOL    HW171194   4.733   3.226   8.293  1.6335 -2.7272 -2.0830
23251SOL    HW271195   4.857   3.168   8.357  2.2987  1.7518  1.1399
23252SOL     OW71196   7.907   1.225   0.643  0.0469  0.2993  0.9634
23252SOL    HW171197   7.845   1.275   0.591  0.1392 -0.4947  0.0582
23252SOL    HW271198   7.987   1.222   0.590 -0.5549 -2.4203  0.0257
23253SOL     OW71199   7.443   3.212   5.094 -0.1764  0.0789 -0.0674
23253SOL    HW171200   7.373   3.147   5.078  0.0042 -0.0383 -0.3885
23253SOL    HW271201   7.518   3.160   5.120 -0.0100  0.1551 -0.3945
23254SOL     OW71202   3.210   2.452  11.943  0.1625  0.4879 -0.4215
23254SOL    HW171203   3.149   2.442  11.870  0.3344 -0.3669 -0.4550
23254SOL    HW271204   3.260   2.371  11.944  0.3719  0.6190  0.4619
23255SOL     OW71205   2.981   1.967  12.371 -0.1981 -0.6386  0.0710
23255SOL    HW171206   3.049   1.936  12.431  0.5860  0.3459 -0.2930
23255SOL    HW271207   2.913   1.899  12.376  0.2210 -1.0026  1.4152
23256SOL     OW71208   4.916   7.971   2.227  0.4761  0.0177  0.0615
23256SOL    HW171209   4.975   7.943   2.158  0.4917  0.9306 -0.3054
23256SOL    HW271210   4.931   7.908   2.298  1.3677 -0.1814 -0.2885
23257SOL     OW71211   0.610   6.692   5.214  0.2564  0.5435 -0.4794
23257SOL    HW171212   0.631   6.695   5.307  0.0210  1.8116 -0.4512
23257SOL    HW271213   0.516   6.711   5.210  0.0862 -0.3427 -0.9273
23258SOL     OW71214   3.710   5.918   0.038  0.3334  0.0688  0.2644
23258SOL    HW171215   3.676   5.945  -0.047  0.7757 -1.1864 -0.3442
23258SOL    HW271216   3.635   5.924   0.097 -0.4683 -0.7483 -0.6199
23259SOL     OW71217   3.512   1.127   6.351  0.1930  0.1328  0.2898
23259SOL    HW171218   3.559   1.043   6.350 -0.3188 -0.1626  0.1358
23259SOL    HW271219   3.575   1.190   6.384  0.2188 -0.5350  1.5713
23260SOL     OW71220   2.608   3.071  12.292  0.1798  0.0115 -0.5741
23260SOL    HW171221   2.569   2.987  12.317 -1.5718  0.9914  0.2086
23260SOL    HW271222   2.616   3.067  12.197 -2.0284 -0.2605 -0.8207
23261SOL     OW71223   2.890   1.513   7.554 -0.1298 -0.1132 -0.5161
23261SOL    HW171224   2.849   1.512   7.640 -0.2400 -0.7615 -0.5704
23261SOL    HW271225   2.981   1.538   7.570  0.1004 -1.1722 -0.0923
23262SOL     OW71226   3.406   7.478  11.657  0.1550  0.0131 -0.6561
23262SOL    HW171227   3.362   7.563  11.655  2.1307  1.1024 -0.5416
23262SOL    HW271228   3.469   7.485  11.729 -0.0456 -1.7846 -0.2504
23263SOL     OW71229   7.225   3.657  10.484 -0.3203 -0.3937  0.1130
23263SOL    HW171230   7.185   3.742  10.466  0.4528  0.2701  1.3791
23263SOL    HW271231   7.265   3.631  10.402  0.7046  1.1787  0.0808
23264SOL     OW71232   0.613   1.502   3.886 -0.2612  1.0195  0.0206
23264SOL    HW171233   0.614   1.486   3.791  0.3553 -0.2250  0.2148
23264SOL    HW271234   0.679   1.569   3.900  0.7661  0.0983 -0.2756
23265SOL     OW71235   3.553   5.674   9.746  0.2390 -0.2461  0.6020
23265SOL    HW171236   3.607   5.654   9.822  0.9396 -2.8138 -0.4629
23265SOL    HW271237   3.614   5.710   9.681 -0.1761  1.0211  0.8970
23266SOL     OW71238   5.415   1.398   2.450  0.2018  0.2329  0.7023
23266SOL    HW171239   5.476   1.427   2.382 -1.6262  0.8995 -0.7360
23266SOL    HW271240   5.435   1.304   2.460 -0.8125 -0.4545 -2.3701
23267SOL     OW71241   4.921   0.154   1.353  0.4217 -0.5251  0.5281
23267SOL    HW171242   5.015   0.136   1.347  0.6475 -0.4058  2.9601
23267SOL    HW271243   4.892   0.102   1.428 -1.6498 -1.1803 -0.6592
23268SOL     OW71244   3.378   4.125   3.994 -0.4117  0.2140  0.4258
23268SOL    HW171245   3.322   4.050   3.975 -0.3139 -0.0242  1.0553
23268SOL    HW271246   3.362   4.145   4.086 -0.0616  0.6483  0.3972
23269SOL     OW71247   2.446   3.837  11.579 -0.1068 -0.1537  0.6776
23269SOL    HW171248   2.402   3.788  11.648 -1.3900 -1.3342 -0.9137
23269SOL    HW271249   2.475   3.917  11.622 -0.4181 -1.0459  2.6910
23270SOL     OW71250   5.879   4.703  11.019  0.1352 -0.8026  0.1816
23270SOL    HW171251   5.872   4.796  11.041 -2.8168 -0.7552 -0.5266
23270SOL    HW271252   5.969   4.693  10.987  0.4137  1.8859 -0.1317
23271SOL     OW71253   6.781   3.634   8.594  0.5714  0.6648 -0.0719
23271SOL    HW171254   6.748   3.722   8.612  1.2495  0.7135  1.0157
23271SOL    HW271255   6.779   3.627   8.498  0.0718  1.6860 -0.1540
23272SOL     OW71256   4.200   1.932   3.440  0.0517 -0.7190  0.9503
23272SOL    HW171257   4.206   1.961   3.349 -0.9962 -1.6166  0.5771
23272SOL    HW271258   4.127   1.981   3.477 -0.1480 -1.0570  1.0154
23273SOL     OW71259   0.002   1.549   1.283  0.0617  0.1662 -0.1248
23273SOL    HW171260  -0.040   1.592   1.357 -0.8697  1.0416 -1.1262
23273SOL    HW271261  -0.066   1.544   1.216  0.3633 -2.2166 -0.3331
23274SOL     OW71262   7.547   0.386   0.019  0.2633 -0.1517  0.1131
23274SOL    HW171263   7.557   0.293   0.042  0.8802  0.0355  0.6504
23274SOL    HW271264   7.572   0.390  -0.073 -2.5059 -0.9588 -0.7581
23275SOL     OW71265   4.460   2.656   0.528 -0.3564  0.5162  0.0047
23275SOL    HW171266   4.535   2.652   0.588  1.4708  0.7261 -2.1438
23275SOL    HW271267   4.476   2.587   0.464 -1.3708  1.3555 -1.2164
23276SOL     OW71268   0.986   5.043   3.129 -0.1664 -0.0753 -0.4092
23276SOL    HW171269   0.971   4.950   3.139  2.6852 -0.4305  1.8340
23276SOL    HW271270   0.976   5.080   3.217  1.2534  1.2470 -0.7403
23277SOL     OW71271   7.638   4.800   8.272 -0.2667  0.1168 -0.1588
23277SOL    HW171272   7.656   4.711   8.239 -0.0193  0.8010 -1.9924
23277SOL    HW271273   7.692   4.857   8.217 -0.7055  1.4484  0.7409
23278SOL     OW71274   0.631   7.978   2.912 -0.3464 -0.0418 -0.1702
23278SOL    HW171275   0.601   7.902   2.962 -1.9342  1.5015  1.3585
23278SOL    HW271276   0.712   8.004   2.956  0.5782 -1.1978 -1.1229
23279SOL     OW71277   7.367   6.603   9.697 -0.1754 -0.2426  0.3977
23279SOL    HW171278   7.361   6.665   9.623 -0.6960 -2.1870 -1.2886
23279SOL    HW271279   7.440   6.546   9.673  0.7259  0.0653  2.2460
23280SOL     OW71280   4.728   7.193   4.371 -0.1302  0.1547  0.1374
23280SOL    HW171281   4.808   7.174   4.322 -0.3889  0.2195 -0.3082
23280SOL    HW271282   4.672   7.240   4.309 -0.6445 -0.1666  0.3529
23281SOL     OW71283   6.717   1.890   9.349  0.3914 -0.0913  0.8935
23281SOL    HW171284   6.737   1.800   9.324  2.2415  0.2423  1.0579
23281SOL    HW271285   6.669   1.926   9.274  0.4950 -0.9103  0.4267
23282SOL     OW71286   3.814   3.523  10.087 -0.1487 -0.0174 -0.2842
23282SOL    HW171287   3.822   3.564  10.001 -0.7760 -0.5516 -0.5981
23282SOL    HW271288   3.861   3.583  10.146  0.2051  0.3965 -0.9742
23283SOL     OW71289   7.121   5.549   5.943  0.3245  0.2342  0.2081
23283SOL    HW171290   7.126   5.563   5.848 -1.2688  0.7870  0.1740
23283SOL    HW271291   7.028   5.560   5.963  0.3925 -1.4571  1.6002
23284SOL     OW71292   2.587   3.130   5.617 -0.3474  0.3014  0.4496
23284SOL    HW171293   2.614   3.039   5.605  1.5425  0.9709 -0.7716
23284SOL    HW271294   2.634   3.158   5.696 -0.7339  0.2963  0.6829
23285SOL     OW71295   4.807   2.987   2.558  0.4993 -0.1949 -0.2013
23285SOL    HW171296   4.880   2.930   2.583  1.1653  0.5052 -0.5127
23285SOL    HW271297   4.845   3.047   2.494 -0.3606  0.1699 -0.3777
23286SOL     OW71298   2.951   7.095   9.857 -0.1700 -0.6387 -0.0545
23286SOL    HW171299   2.880   7.066   9.799  1.3038 -2.0987 -1.2437
23286SOL    HW271300   3.021   7.120   9.798  1.4013 -2.1904  1.0666
23287SOL     OW71301   3.969   6.885  11.787 -0.4544 -0.2402 -0.2133
23287SOL    HW171302   4.025   6.870  11.711  0.1782 -0.3867  0.2662
23287SOL    HW271303   4.013   6.839  11.859  0.3835  1.9901  0.8352
23288SOL     OW71304   6.984   2.084   2.092 -0.1830 -0.4759  0.0814
23288SOL    HW171305   6.936   2.011   2.133 -2.3509 -0.2227 -1.8135
23288SOL    HW271306   6.928   2.111   2.019  3.4404 -0.9701 -3.1390
23289SOL     OW71307   6.518   2.887   4.654 -0.6214 -0.5294 -0.3204
23289SOL    HW171308   6.512   2.909   4.747 -0.5674 -1.3420 -0.1150
23289SOL    HW271309   6.465   2.953   4.610  1.3163  1.3899  0.0244
23290SOL     OW71310   5.928   0.359   8.096  0.3711  0.3057 -0.2270
23290SOL    HW171311   5.903   0.417   8.024  0.4119  0.8164  0.1693
23290SOL    HW271312   5.854   0.363   8.157  0.0731 -0.5841 -0.5059
23291SOL     OW71313   1.389   7.586   9.623  0.0058 -0.0165  0.5111
23291SOL    HW171314   1.373   7.507   9.675  1.6780  0.4026  1.7743
23291SOL    HW271315   1.430   7.555   9.543  0.2738 -0.4704  0.8188
23292SOL     OW71316   7.383   6.853  10.507  0.6321 -0.0259  0.0332
23292SOL    HW171317   7.441   6.777  10.507  1.5934  0.5895 -2.7033
23292SOL    HW271318   7.371   6.874  10.415 -3.8630  0.0630  0.4378
23293SOL     OW71319   0.187   7.121   9.448  0.2314 -0.6847  0.5126
23293SOL    HW171320   0.251   7.049   9.442  0.8171 -0.2145  0.9891
23293SOL    HW271321   0.225   7.191   9.395 -0.8389 -1.0741 -0.8044
23294SOL     OW71322   5.882   1.623   6.618  0.4172  0.1847  0.0873
23294SOL    HW171323   5.842   1.603   6.703  0.0739  0.9476  0.1128
23294SOL    HW271324   5.863   1.546   6.565 -0.5711  0.2662  0.2892
23295SOL     OW71325   6.744   5.491   8.358 -0.0553  0.2297 -0.2966
23295SOL    HW171326   6.826   5.523   8.320 -0.5976  0.2718 -1.4612
23295SOL    HW271327   6.697   5.452   8.285 -1.2440  0.5388  0.2810
23296SOL     OW71328   2.762   2.256  11.144  0.2528 -0.2858 -0.6355
23296SOL    HW171329   2.768   2.161  11.149 -0.6327 -0.3733 -1.0094
23296SOL    HW271330   2.797   2.278  11.057 -2.5786 -0.6093 -1.9699
23297SOL     OW71331   6.683   2.870   4.883 -0.3275 -0.0808  0.5748
23297SOL    HW171332   6.724   2.883   4.797 -1.6602 -0.1777 -0.0936
23297SOL    HW271333   6.694   2.954   4.928 -1.1337  0.5460 -0.3610
23298SOL     OW71334   2.344   7.024  11.686 -0.4239 -0.5013 -0.0363
23298SOL    HW171335   2.406   7.095  11.706 -3.2282  1.5839  2.0206
23298SOL    HW271336   2.312   6.995  11.771 -2.0368 -1.7358 -0.9963
23299SOL     OW71337   2.064   2.214  10.806 -0.1593  0.2684  0.1808
23299SOL    HW171338   2.106   2.223  10.891  0.7230  0.3099 -0.2562
23299SOL    HW271339   2.013   2.132  10.814  1.7443 -0.9880  0.0039
23300SOL     OW71340   3.570   0.009   8.785  0.0077  0.1459  0.0071
23300SOL    HW171341   3.665   0.003   8.768 -0.1297 -0.3158 -0.6598
23300SOL    HW271342   3.558   0.095   8.826  0.6656  0.3789 -0.2704
23301SOL     OW71343   1.906   7.497   8.310  0.6439  0.4070 -0.0354
23301SOL    HW171344   1.838   7.531   8.368  0.2348  1.9482 -1.3739
23301SOL    HW271345   1.976   7.470   8.369 -0.4294  0.3449  1.2656
23302SOL     OW71346   6.368   0.601   8.220  0.1904  0.5120 -0.5592
23302SOL    HW171347   6.328   0.674   8.172 -0.5669 -0.1632 -0.9792
23302SOL    HW271348   6.310   0.527   8.203  1.2530 -0.3294 -0.6003
23303SOL     OW71349   2.727   5.160   6.571 -0.1714  0.0129 -0.2521
23303SOL    HW171350   2.787   5.218   6.617  0.3980  0.1711 -1.1553
23303SOL    HW271351   2.652   5.216   6.550 -1.1075 -0.4329  1.7309
23304SOL     OW71352   3.004   0.356   4.818 -0.3754 -0.2401  0.0140
23304SOL    HW171353   3.096   0.328   4.821 -0.1624  0.4663  2.0533
23304SOL    HW271354   2.988   0.393   4.905 -2.1817  0.9945 -0.7828
23305SOL     OW71355   0.371   1.582   4.940  0.7314 -0.4103  0.6966
23305SOL    HW171356   0.361   1.657   4.881  1.5778 -1.3736 -0.7261
23305SOL    HW271357   0.388   1.508   4.883  0.8284 -1.5462  2.1255
23306SOL     OW71358   5.524   6.995   0.033  0.5386  0.1157 -0.1365
23306SOL    HW171359   5.467   7.069   0.009 -0.1729 -0.0021  1.0935
23306SOL    HW271360   5.509   6.983   0.127  1.8852 -0.5507  0.0118
23307SOL     OW71361   1.949   1.019   4.443 -0.1594  0.3349 -0.9399
23307SOL    HW171362   2.024   1.022   4.384  0.6290 -1.8449 -0.1384
23307SOL    HW271363   1.942   1.109   4.476  2.7845  0.4430 -0.2633
23308SOL     OW71364   6.532   0.792   4.537  0.0463 -0.1527  0.3497
23308SOL    HW171365   6.457   0.810   4.593  0.1187 -2.1505  1.1603
23308SOL    HW271366   6.552   0.876   4.496 -1.3390  0.8843  1.6898
23309SOL     OW71367   6.663   3.375   2.780  0.3480  0.1161  0.3189
23309SOL    HW171368   6.669   3.470   2.792  0.9734  0.5871 -2.8871
23309SOL    HW271369   6.753   3.344   2.793  0.0670 -0.1616  1.8016
23310SOL     OW71370   1.010   6.830  11.881 -0.1061  0.1926 -0.1536
23310SOL    HW171371   0.964   6.860  11.959 -1.3649  0.7432 -1.0784
23310SOL    HW271372   0.969   6.747  11.860  1.0198 -0.5294  0.4059
23311SOL     OW71373   2.884   0.713  10.718 -0.2715  0.2869  0.1255
23311SOL    HW171374   2.872   0.723  10.624  0.8379 -0.8080 -0.1557
23311SOL    HW271375   2.869   0.620  10.734  2.1477 -0.0825  0.5796
23312SOL     OW71376   5.631   3.455  12.422 -0.2279  0.5518 -0.1023
23312SOL    HW171377   5.633   3.402  12.343 -0.0478  0.5175 -0.0748
23312SOL    HW271378   5.541   3.486  12.427 -0.2034  0.6769 -0.4014
23313SOL     OW71379   5.465   4.126   0.037 -0.2047  0.0456 -0.2050
23313SOL    HW171380   5.485   4.058  -0.028  1.3796  0.6714 -0.4210
23313SOL    HW271381   5.381   4.162   0.009 -0.6922 -1.2797 -0.5380
23314SOL     OW71382   7.368   2.468   1.033  0.1724 -0.0806  0.3611
23314SOL    HW171383   7.462   2.450   1.035  0.4620  1.3183  1.2809
23314SOL    HW271384   7.347   2.477   0.940  1.5780  2.3952  0.1999
23315SOL     OW71385   1.085   7.237   3.057  0.0419  0.2901  0.2107
23315SOL    HW171386   1.051   7.279   2.979 -0.8013 -1.2110 -0.2660
23315SOL    HW271387   1.012   7.237   3.119 -0.2638 -1.1725 -0.1031
23316SOL     OW71388   1.823   4.750   2.527 -0.0668  0.1869  0.0854
23316SOL    HW171389   1.791   4.793   2.448  1.4647  0.3371 -0.4848
23316SOL    HW271390   1.899   4.802   2.553 -1.0559  0.6778  2.1987
23317SOL     OW71391   1.962   6.248   8.410  0.0582 -0.1432 -0.2377
23317SOL    HW171392   2.034   6.224   8.468  1.5579  0.5645 -1.6970
23317SOL    HW271393   1.933   6.334   8.441 -2.1975 -1.6623  2.1450
23318SOL     OW71394   0.404   0.891   9.858 -0.2604 -0.2717 -0.1967
23318SOL    HW171395   0.465   0.823   9.828 -0.5309 -0.1123 -1.1512
23318SOL    HW271396   0.353   0.849   9.927  1.9556  0.0523  1.7489
23319SOL     OW71397   7.815   2.020   3.175  0.0861 -0.5392  0.7919
23319SOL    HW171398   7.872   2.053   3.244  1.4302 -0.8175 -0.1364
23319SOL    HW271399   7.852   1.935   3.151  0.5264  0.1466 -1.2015
23320SOL     OW71400   7.407   3.106  10.593  0.3974  0.4198  0.0366
23320SOL    HW171401   7.420   3.160  10.671 -1.6078  1.9233 -0.5715
23320SOL    HW271402   7.329   3.143  10.551  0.6680 -1.1399 -2.0162
23321SOL     OW71403   7.255   7.002  11.960  0.0389  0.6912  0.0524
23321SOL    HW171404   7.335   6.997  11.907  0.4131 -0.0425  0.6795
23321SOL    HW271405   7.189   7.036  11.899  0.6129  0.4745 -0.7124
23322SOL     OW71406   0.249   5.308   5.522 -0.9291 -0.1232  0.4915
23322SOL    HW171407   0.330   5.262   5.499 -0.4412  1.0022 -0.1235
23322SOL    HW271408   0.217   5.262   5.599  2.0329  1.3640  2.7926
23323SOL     OW71409   7.651   0.569   2.366  0.4348  0.3413  0.3947
23323SOL    HW171410   7.577   0.611   2.410  0.2183 -0.0667  0.4265
23323SOL    HW271411   7.617   0.485   2.336  0.2874  1.0210 -1.4608
23324SOL     OW71412   6.900   3.048   3.328 -0.0569  0.2714 -0.7474
23324SOL    HW171413   6.929   2.967   3.370 -0.7259  0.0616 -0.6807
23324SOL    HW271414   6.868   3.102   3.400  0.9536  0.8425 -0.7203
23325SOL     OW71415   6.508   3.281   2.535  0.7950 -0.1616 -0.7095
23325SOL    HW171416   6.555   3.321   2.608 -0.3121 -0.4133  0.1707
23325SOL    HW271417   6.471   3.200   2.572  0.8238 -0.6661 -1.7497
23326SOL     OW71418   1.700   7.797   5.257  0.4803 -0.3204 -0.1659
23326SOL    HW171419   1.663   7.780   5.170 -0.4384  2.2744 -0.3472
23326SOL    HW271420   1.655   7.735   5.315 -0.1224 -0.9284 -1.2598
23327SOL     OW71421   7.602   4.052   1.768 -0.2474  0.2673 -0.1302
23327SOL    HW171422   7.549   4.041   1.690  1.6809  0.7683 -1.6016
23327SOL    HW271423   7.604   4.146   1.783 -0.1684  0.2138  0.2111
23328SOL     OW71424   5.875   1.239  10.928 -0.8585  0.1171 -0.0652
23328SOL    HW171425   5.907   1.326  10.952  1.8860  0.6158 -4.4295
23328SOL    HW271426   5.948   1.180  10.950  0.6575  0.2555 -3.9691
23329SOL     OW71427   2.812   7.251   0.412  0.1637  0.1026 -0.2595
23329SOL    HW171428   2.723   7.272   0.438 -0.2844 -0.6461 -1.1261
23329SOL    HW271429   2.812   7.260   0.317  1.5488  2.0187 -0.1485
23330SOL     OW71430   6.821   4.109   5.178  0.5101  0.2194  0.0971
23330SOL    HW171431   6.758   4.112   5.250  0.4822  0.7936  0.0508
23330SOL    HW271432   6.839   4.201   5.157  1.4809  0.0732  0.2164
23331SOL     OW71433   5.297   3.672   9.594  0.5894  0.3792 -0.1893
23331SOL    HW171434   5.225   3.617   9.563  0.7500 -0.1037  0.2727
23331SOL    HW271435   5.331   3.714   9.516  0.8954 -0.6944 -0.6476
23332SOL     OW71436   0.767   1.141   3.424 -0.5052 -0.0311 -0.2246
23332SOL    HW171437   0.688   1.086   3.422 -0.7975  0.2043  2.1924
23332SOL    HW271438   0.778   1.171   3.334 -5.0081  2.4293 -0.2528
23333SOL     OW71439   7.707   4.720   2.455  0.0471  0.2884 -0.2409
23333SOL    HW171440   7.688   4.652   2.520 -0.4894 -0.0940 -0.7876
23333SOL    HW271441   7.801   4.736   2.463  0.4089 -1.3201 -0.8787
23334SOL     OW71442   2.163   1.059   7.809 -0.3165  0.1940  0.1850
23334SOL    HW171443   2.201   1.095   7.889  1.2692 -1.5579  0.2890
23334SOL    HW271444   2.217   1.097   7.739 -0.9538  0.8092  0.0185
23335SOL     OW71445   5.089   7.729  11.510 -0.4005 -0.5199 -0.8997
23335SOL    HW171446   5.165   7.672  11.514  0.5646  0.7609  0.3923
23335SOL    HW271447   5.073   7.743  11.417 -0.9053 -3.1247 -1.2640
23336SOL     OW71448   3.884   0.976  10.419 -0.1104  0.1366  0.1071
23336SOL    HW171449   3.954   0.980  10.354 -0.5243 -0.5262 -0.3947
23336SOL    HW271450   3.806   1.006  10.373 -0.0195  1.7023  0.9047
23337SOL     OW71451   0.662   1.960   9.849  0.0345  0.4091  0.5900
23337SOL    HW171452   0.749   1.939   9.882 -0.4047 -2.2382  0.2746
23337SOL    HW271453   0.602   1.923   9.914 -0.8342 -0.0876 -0.4592
23338SOL     OW71454   2.033   7.403   2.231 -0.1578 -0.1253  0.3423
23338SOL    HW171455   2.054   7.333   2.292 -1.5163 -0.5080  0.4001
23338SOL    HW271456   1.996   7.472   2.285 -0.2162  0.0404  0.0942
23339SOL     OW71457   0.173   5.810  10.157 -0.4761 -0.2088  0.0978
23339SOL    HW171458   0.123   5.834  10.079 -0.6229  0.6317  0.4310
23339SOL    HW271459   0.261   5.843  10.140 -0.2052 -1.0845 -0.2066
23340SOL     OW71460   3.478   1.636   8.809 -0.4919 -0.4026  0.6469
23340SOL    HW171461   3.505   1.727   8.811  0.0808 -0.3282 -2.9361
23340SOL    HW271462   3.395   1.636   8.760 -0.5878 -1.7663  0.7528
23341SOL     OW71463   3.557   2.427   7.829 -0.0428 -0.6177 -0.0089
23341SOL    HW171464   3.579   2.517   7.854  0.3092 -0.6176 -0.3126
23341SOL    HW271465   3.640   2.380   7.836 -0.0525 -0.7365 -0.6499
23342SOL     OW71466   5.216   2.458   0.750 -0.1646  0.1459  0.1661
23342SOL    HW171467   5.243   2.489   0.837  1.7391  0.2624 -0.4237
23342SOL    HW271468   5.290   2.408   0.718 -1.4240 -1.1838 -0.8145
23343SOL     OW71469   7.242   4.929  12.467 -0.7121  0.1316 -0.3778
23343SOL    HW171470   7.236   4.834  12.455  1.7432  0.1600 -2.6895
23343SOL    HW271471   7.301   4.940  12.541 -0.9238 -0.1369 -0.1658
23344SOL     OW71472   0.429   2.253   8.340 -0.8788 -0.3126  0.4947
23344SOL    HW171473   0.354   2.283   8.288 -0.3373 -0.7385 -0.5639
23344SOL    HW271474   0.481   2.200   8.279  0.0525 -0.4001  1.3368
23345SOL     OW71475   2.582   5.319   9.384  0.6946 -0.2327 -0.5157
23345SOL    HW171476   2.553   5.229   9.393  1.0996 -0.3290 -0.1156
23345SOL    HW271477   2.634   5.320   9.304  2.2143 -0.7796  0.4193
23346SOL     OW71478   0.799   1.501   6.411 -0.0973 -0.1672 -0.2484
23346SOL    HW171479   0.740   1.575   6.404 -0.3620 -0.2292  1.0673
23346SOL    HW271480   0.873   1.534   6.462 -1.0370 -1.2390  1.9457
23347SOL     OW71481   0.767   1.337   8.577  0.3709 -0.2201  0.1432
23347SOL    HW171482   0.728   1.362   8.661  0.1878  1.7800 -0.4856
23347SOL    HW271483   0.694   1.299   8.528  0.6085 -1.9518  1.0528
23348SOL     OW71484   4.506   4.470  11.862  0.2711 -0.0325  0.1020
23348SOL    HW171485   4.493   4.434  11.950 -0.5457 -0.0652 -0.0219
23348SOL    HW271486   4.424   4.452  11.817  0.1983  1.1466 -0.2687
23349SOL     OW71487   4.707   2.828   4.860  0.3566 -0.3314  0.1561
23349SOL    HW171488   4.731   2.918   4.838  1.2375 -0.9936 -1.8710
23349SOL    HW271489   4.757   2.808   4.939 -0.9757  1.3780  1.5141
23350SOL     OW71490   3.283   1.842   7.306 -0.1300  0.7066 -0.0100
23350SOL    HW171491   3.348   1.807   7.245  1.0285  0.9318  1.0509
23350SOL    HW271492   3.231   1.903   7.254  0.3020  0.2865 -0.9609
23351SOL     OW71493   1.160   7.042   2.392  0.0746 -0.2213 -0.4417
23351SOL    HW171494   1.120   7.001   2.469  0.2297 -0.2462 -0.3725
23351SOL    HW271495   1.098   7.110   2.366 -0.3173 -0.6816 -0.7264
23352SOL     OW71496   7.753   1.373   6.160  0.3562 -0.3768  0.3882
23352SOL    HW171497   7.751   1.431   6.236  1.7061  1.6110 -1.0099
23352SOL    HW271498   7.798   1.294   6.191  0.6956  0.3173  1.7196
23353SOL     OW71499   2.031   2.034   2.020 -0.4848 -0.3943  0.1581
23353SOL    HW171500   2.116   2.057   1.982  0.6007 -1.9146  1.5122
23353SOL    HW271501   2.048   2.029   2.114 -2.2000 -0.3265  0.5046
23354SOL     OW71502   2.279   0.439   8.800 -0.2299  0.0787  0.0763
23354SOL    HW171503   2.232   0.509   8.845  1.5765  1.1715  0.3816
23354SOL    HW271504   2.230   0.424   8.720 -2.2660 -0.3515  1.3424
23355SOL     OW71505   5.815   6.283   5.371  0.0891 -0.1653 -0.0341
23355SOL    HW171506   5.832   6.356   5.311 -0.3106  1.2427  1.4804
23355SOL    HW271507   5.720   6.283   5.382 -0.0195 -1.6431 -0.8577
23356SOL     OW71508   7.160   2.327   0.406 -0.0564 -0.2060  0.7836
23356SOL    HW171509   7.175   2.243   0.363  0.5006  0.6349 -0.7202
23356SOL    HW271510   7.176   2.309   0.499  1.4471 -1.4529  0.3294
23357SOL     OW71511   5.671   1.903   8.962  0.4260 -0.2843 -0.3535
23357SOL    HW171512   5.747   1.932   9.012  0.0073 -0.7102  0.5639
23357SOL    HW271513   5.628   1.984   8.934  0.5793 -0.0301  0.1257
23358SOL     OW71514   0.474   3.246   1.028 -0.3195  0.0730 -0.1307
23358SOL    HW171515   0.458   3.160   0.989  0.0268  0.2870 -0.7523
23358SOL    HW271516   0.495   3.227   1.120 -0.8520 -0.4541 -0.1139
23359SOL     OW71517   5.692   2.964   6.956  0.3268 -0.5242  0.3511
23359SOL    HW171518   5.629   3.021   6.911 -0.5694 -1.6618  0.1209
23359SOL    HW271519   5.776   2.985   6.914 -0.2665 -0.5894 -0.9360
23360SOL     OW71520   6.147   5.968  10.961 -0.4842 -0.1807 -0.2590
23360SOL    HW171521   6.063   5.922  10.964 -0.1718 -0.9222 -1.8159
23360SOL    HW271522   6.153   6.001  10.871  0.5208  0.5716  0.0661
23361SOL     OW71523   6.033   2.468  10.062 -0.4539  0.2350 -0.0194
23361SOL    HW171524   6.064   2.485   9.973  2.5376  1.4208  1.1185
23361SOL    HW271525   6.007   2.375  10.060  1.2856 -0.2895 -1.7007
23362SOL     OW71526   1.539   1.508   2.920  0.6608  0.4094  0.5273
23362SOL    HW171527   1.578   1.535   2.837 -0.9300 -0.4641 -0.5587
23362SOL    HW271528   1.454   1.553   2.922  1.1516  1.3460  2.2740
23363SOL     OW71529   3.283   7.677   5.730  0.4943  0.1859  0.1871
23363SOL    HW171530   3.325   7.757   5.761  1.6733 -0.3178 -0.0570
23363SOL    HW271531   3.259   7.629   5.809 -0.6460  0.9766  0.3424
23364SOL     OW71532   6.683   1.687  12.153  0.4146  0.2049 -0.0779
23364SOL    HW171533   6.690   1.591  12.147  0.9925  0.3085 -2.2351
23364SOL    HW271534   6.742   1.711  12.225  0.8533 -1.0226  0.0010
23365SOL     OW71535   5.801   4.173   7.052 -0.1141 -0.5303  0.0514
23365SOL    HW171536   5.791   4.138   7.141  0.5109  1.3039  0.8943
23365SOL    HW271537   5.895   4.179   7.039 -0.1763  1.4020  0.2149
23366SOL     OW71538   4.645   6.537   0.730 -0.0405  0.1133  0.0309
23366SOL    HW171539   4.646   6.532   0.634 -1.3370 -0.6066  0.0240
23366SOL    HW271540   4.603   6.621   0.749  1.7247  1.0369  0.0011
23367SOL     OW71541   2.172   3.949   2.903 -0.0025  0.5264 -0.2445
23367SOL    HW171542   2.115   4.013   2.946  1.7352  1.4307  0.8136
23367SOL    HW271543   2.208   3.995   2.828  1.4304  0.9245  0.6474
23368SOL     OW71544   6.718   5.489   1.986 -0.2170  0.2328 -0.0235
23368SOL    HW171545   6.785   5.462   2.049 -0.6426  1.1291  0.8509
23368SOL    HW271546   6.723   5.585   1.985  0.1070  0.2195 -1.7475
23369SOL     OW71547   2.128   3.879   8.622  0.0122  0.6325 -0.2859
23369SOL    HW171548   2.059   3.854   8.561 -0.0277  1.3331 -0.5344
23369SOL    HW271549   2.103   3.966   8.652  1.5302  1.5245 -1.4776
23370SOL     OW71550   7.342   2.191   7.783  0.2706 -0.1503 -0.4520
23370SOL    HW171551   7.313   2.279   7.808  1.2173  0.3516 -1.0775
23370SOL    HW271552   7.433   2.187   7.810 -0.2113 -1.5737  1.1196
23371SOL     OW71553   7.827   4.833   8.922 -0.0834  0.0322  0.0773
23371SOL    HW171554   7.870   4.901   8.973 -1.5517  0.2419  1.0875
23371SOL    HW271555   7.866   4.840   8.835  1.3671  0.6813  0.7590
23372SOL     OW71556   7.469   1.993   6.223  0.1625  0.0008  0.2324
23372SOL    HW171557   7.510   1.913   6.188 -1.7803 -1.0313  0.2218
23372SOL    HW271558   7.434   2.037   6.146 -3.1673 -1.7273  0.6091
23373SOL     OW71559   5.271   1.912   9.798  0.0136  0.0669 -0.0441
23373SOL    HW171560   5.215   1.980   9.833 -0.3552  0.4139 -1.2524
23373SOL    HW271561   5.342   1.959   9.754 -0.2353 -0.3052 -0.8810
23374SOL     OW71562   0.102   1.493   1.901 -0.2369 -0.0245  0.0780
23374SOL    HW171563   0.154   1.416   1.878 -0.2108 -0.0327  0.1662
23374SOL    HW271564   0.132   1.561   1.841  0.7162  0.3169  0.9113
23375SOL     OW71565   0.118   2.677  11.576 -0.3301 -0.0986 -0.2158
23375SOL    HW171566   0.200   2.671  11.625 -0.2799  0.8497 -0.1755
23375SOL    HW271567   0.072   2.596  11.598 -0.7220  0.6814  2.1683
23376SOL     OW71568   5.623   3.591   5.207  0.3179 -0.3895 -0.0435
23376SOL    HW171569   5.541   3.640   5.196  0.0203 -0.6128  0.9833
23376SOL    HW271570   5.678   3.648   5.260  0.2986 -0.7899  0.4212
23377SOL     OW71571   2.261   0.856   1.880 -0.1150 -0.0159 -0.0602
23377SOL    HW171572   2.345   0.832   1.841 -0.4407 -0.3507 -0.5689
23377SOL    HW271573   2.282   0.878   1.971  0.4945 -0.2783 -0.1319
23378SOL     OW71574   5.914   7.745   4.195  0.1243  0.4228  0.3711
23378SOL    HW171575   5.930   7.825   4.245  2.0460  0.5727 -0.4070
23378SOL    HW271576   5.863   7.774   4.119  0.0901  0.7534  0.5189
23379SOL     OW71577   5.410   6.289  10.253 -0.0980 -0.1792 -0.3274
23379SOL    HW171578   5.495   6.331  10.238 -0.9687  1.0182 -2.4995
23379SOL    HW271579   5.400   6.230  10.178 -1.3643  0.0826 -0.3832
23380SOL     OW71580   6.731   4.746   8.720 -0.1821  0.0294 -0.4174
23380SOL    HW171581   6.746   4.794   8.639 -0.9896  1.5660  0.3118
23380SOL    HW271582   6.817   4.714   8.746  0.2530  0.4783 -1.2813
23381SOL     OW71583   6.509   7.572  11.490 -0.5621 -0.3436 -0.3660
23381SOL    HW171584   6.428   7.624  11.498  0.2267  0.8369  0.3392
23381SOL    HW271585   6.488   7.489  11.532 -0.6497  0.8969  2.2787
23382SOL     OW71586   1.911   0.529  11.977  0.1162 -0.2059 -0.3423
23382SOL    HW171587   1.990   0.480  12.001  0.5766  0.8258  0.3332
23382SOL    HW271588   1.923   0.551  11.885  0.0235 -1.1249 -0.5831
23383SOL     OW71589   6.608   2.960   3.367 -0.4008  1.8031  0.1163
23383SOL    HW171590   6.644   3.033   3.317 -0.8629  2.2702  0.4521
23383SOL    HW271591   6.684   2.909   3.395 -0.1066  1.8687 -0.5596
23384SOL     OW71592   6.653   4.823   6.158  0.2719  0.0296  0.2178
23384SOL    HW171593   6.571   4.847   6.202  1.2065 -0.1424  2.1596
23384SOL    HW271594   6.641   4.852   6.068 -1.7316  0.4561  0.5705
23385SOL     OW71595   5.845   2.774   4.213 -0.0428 -0.5400  0.2789
23385SOL    HW171596   5.812   2.854   4.255 -0.5395  0.3453 -1.6343
23385SOL    HW271597   5.935   2.766   4.244  0.5101  1.6243 -0.5011
23386SOL     OW71598   1.635   6.088   0.291  0.2715  0.4506 -0.5108
23386SOL    HW171599   1.584   6.016   0.254 -2.3018  1.2278  1.2149
23386SOL    HW271600   1.574   6.133   0.350  3.2460  0.9052  2.5452
23387SOL     OW71601   0.796   4.382   6.324 -0.3457 -0.1197 -0.0943
23387SOL    HW171602   0.796   4.443   6.251 -0.0209 -1.9008 -1.6462
23387SOL    HW271603   0.708   4.391   6.362 -1.1631 -0.4260 -1.8169
23388SOL     OW71604   0.457   2.428   4.899 -0.7236 -0.0713 -0.4904
23388SOL    HW171605   0.469   2.333   4.907 -0.2860  0.0649  0.6777
23388SOL    HW271606   0.500   2.450   4.816  2.6231 -0.3959  0.9707
23389SOL     OW71607   5.182   2.893   8.798 -0.1980 -0.2630 -0.0271
23389SOL    HW171608   5.161   2.906   8.891 -0.4883 -0.9449  0.0066
23389SOL    HW271609   5.192   2.982   8.763 -2.5433  0.0949  0.0938
23390SOL     OW71610   5.132   5.894   9.769 -0.0382 -0.7721  0.4872
23390SOL    HW171611   5.131   5.830   9.698 -1.0048 -0.2369  0.0024
23390SOL    HW271612   5.040   5.917   9.782  0.3815  1.7859 -0.5358
23391SOL     OW71613   5.090   0.835   3.315 -0.9209 -0.4571  0.1788
23391SOL    HW171614   5.114   0.769   3.381  1.5554 -0.5396 -0.7307
23391SOL    HW271615   5.136   0.914   3.342 -1.0205 -0.0864 -0.7007
23392SOL     OW71616   5.865   1.803   2.593 -0.0890 -0.3577 -0.4234
23392SOL    HW171617   5.824   1.717   2.584 -0.9357 -0.2625  1.8392
23392SOL    HW271618   5.899   1.805   2.682 -0.1939  1.6749 -0.3684
23393SOL     OW71619   4.881   3.106   1.010 -0.0481  0.7811 -0.0931
23393SOL    HW171620   4.849   3.025   1.050 -1.1425  1.0634 -0.3526
23393SOL    HW271621   4.862   3.094   0.917  0.5344  1.0013 -0.2374
23394SOL     OW71622   7.241   0.251   2.472 -0.0941 -0.0834 -0.7850
23394SOL    HW171623   7.265   0.343   2.486  1.6736 -0.4953 -0.9513
23394SOL    HW271624   7.157   0.255   2.427 -0.5838  1.4302  0.1779
23395SOL     OW71625   5.286   7.140   4.191 -0.2709 -0.2647  0.3863
23395SOL    HW171626   5.254   7.203   4.126 -0.1230 -0.5478  0.0364
23395SOL    HW271627   5.301   7.059   4.142 -0.0218 -0.4425  0.7446
23396SOL     OW71628   1.442   2.102   5.905 -0.3473  0.1454  0.0229
23396SOL    HW171629   1.362   2.152   5.888 -0.7779 -0.7085 -0.5972
23396SOL    HW271630   1.420   2.013   5.876  1.1666  0.1205 -1.1240
23397SOL     OW71631   2.403   7.360   2.054  0.0449  0.1288 -0.0637
23397SOL    HW171632   2.416   7.324   2.142  1.0214  0.6778  0.0388
23397SOL    HW271633   2.397   7.284   1.997  0.7452 -0.2207  0.3176
23398SOL     OW71634   3.503   1.423   3.420 -0.4981  0.5622  0.0652
23398SOL    HW171635   3.590   1.387   3.399 -1.2206 -0.1514 -1.9969
23398SOL    HW271636   3.482   1.387   3.506  1.2586  0.8144  0.6465
23399SOL     OW71637   3.439   5.409   1.499  0.4968  0.2754 -0.1011
23399SOL    HW171638   3.525   5.444   1.523 -0.1879  1.1851  1.0998
23399SOL    HW271639   3.414   5.354   1.574 -0.0246  0.1119 -0.3907
23400SOL     OW71640   0.066   6.886   4.760  0.0614 -0.4450 -0.3771
23400SOL    HW171641   0.142   6.830   4.777 -0.2414 -0.8779 -0.4533
23400SOL    HW271642  -0.008   6.839   4.797 -0.0060  0.5676  0.8586
23401SOL     OW71643   7.892   0.038   4.558 -0.0491  0.0334  0.1102
23401SOL    HW171644   7.806  -0.003   4.574 -0.5583  0.9594 -0.1677
23401SOL    HW271645   7.942  -0.029   4.512 -0.2163 -0.9339  1.2713
23402SOL     OW71646   7.562   7.624   1.278  0.0127 -0.0523  0.4598
23402SOL    HW171647   7.657   7.633   1.274  0.3270 -2.3103  1.5985
23402SOL    HW271648   7.546   7.530   1.274 -2.1162  0.2059  1.4888
23403SOL     OW71649   4.467   1.974   7.990 -0.1583 -0.2353 -0.1985
23403SOL    HW171650   4.460   1.933   7.904  0.0651 -1.1906  0.2298
23403SOL    HW271651   4.540   1.929   8.032 -1.6564 -1.3097  1.3386
23404SOL     OW71652   0.761   6.766   0.105  0.3796 -0.3706 -0.4622
23404SOL    HW171653   0.743   6.812   0.187  0.0659 -1.3215  0.0077
23404SOL    HW271654   0.856   6.763   0.099  0.4026  0.0105 -0.3139
23405SOL     OW71655   3.035   3.128   4.364 -0.3115 -0.3120 -0.1710
23405SOL    HW171656   3.017   3.164   4.277 -1.7454 -1.3442 -0.3299
23405SOL    HW271657   3.116   3.171   4.391  1.5463 -1.7482 -3.0059
23406SOL     OW71658   0.241   4.879   6.767 -0.1831 -0.2772 -0.7074
23406SOL    HW171659   0.332   4.899   6.789 -0.0137 -1.1794 -0.5643
23406SOL    HW271660   0.190   4.916   6.840  0.0125  0.7089 -1.0588
23407SOL     OW71661   1.825   7.233   5.193  0.0100 -0.5854  0.2179
23407SOL    HW171662   1.741   7.196   5.166 -0.0423  0.7589 -1.6637
23407SOL    HW271663   1.890   7.171   5.162 -0.2088 -0.5250 -0.3844
23408SOL     OW71664   0.722   0.215   4.710 -0.2780 -0.0337  0.1648
23408SOL    HW171665   0.668   0.266   4.649  0.6411 -1.5897 -2.1119
23408SOL    HW271666   0.659   0.176   4.770 -1.4661  0.0718 -0.9613
23409SOL     OW71667   1.812   1.440   5.437 -0.0957 -0.8168  0.0059
23409SOL    HW171668   1.749   1.466   5.370 -0.5705  1.8357  1.3518
23409SOL    HW271669   1.758   1.401   5.506  0.1692 -1.6492 -0.2396
23410SOL     OW71670   1.599   7.873   8.325  0.7381 -0.1493 -0.1541
23410SOL    HW171671   1.626   7.827   8.246 -1.6693 -1.1681 -0.4569
23410SOL    HW271672   1.637   7.960   8.317  2.4122 -0.9361 -1.2987
23411SOL     OW71673   1.543   0.225  11.068  0.2093  0.3469  0.3982
23411SOL    HW171674   1.617   0.251  11.013 -0.1830  1.1226  0.2320
23411SOL    HW271675   1.503   0.152  11.020 -0.4043  1.3122 -0.5950
23412SOL     OW71676   0.254   2.023   6.602 -0.0533 -0.1780  0.1870
23412SOL    HW171677   0.241   1.998   6.693  0.9967  0.6706  0.5920
23412SOL    HW271678   0.222   2.113   6.597  2.2130  0.7106  0.3809
23413SOL     OW71679   1.166   1.374  10.208  0.3247  0.2525  0.1423
23413SOL    HW171680   1.178   1.348  10.299 -2.4344  0.0785  0.5280
23413SOL    HW271681   1.214   1.308  10.158 -0.3051 -1.2262  1.3961
23414SOL     OW71682   4.509   1.627   4.935 -0.2531  0.2072 -0.1158
23414SOL    HW171683   4.464   1.657   4.856  0.2636  1.5215  0.0585
23414SOL    HW271684   4.564   1.554   4.906 -1.4004 -0.4782 -0.6009
23415SOL     OW71685   3.711   5.032  11.142 -0.1848 -0.5905  0.4622
23415SOL    HW171686   3.666   5.051  11.224 -1.6807 -0.4163 -0.3687
23415SOL    HW271687   3.797   5.074  11.151  0.0826 -1.4579  2.3231
23416SOL     OW71688   0.628   7.380   1.100 -0.2641  0.1544  0.2313
23416SOL    HW171689   0.575   7.454   1.068 -0.0207 -0.0359 -0.6276
23416SOL    HW271690   0.655   7.334   1.021  1.7431  0.6220  0.6071
23417SOL     OW71691   7.716   6.172   1.831 -0.0099  0.1955  0.5276
23417SOL    HW171692   7.729   6.265   1.808  0.1174 -0.0485 -0.4502
23417SOL    HW271693   7.758   6.124   1.759  0.0584 -0.6270  1.1026
23418SOL     OW71694   3.259   5.446   4.663 -0.0509  0.1480  0.0235
23418SOL    HW171695   3.164   5.447   4.662 -0.2322  4.3728 -1.7339
23418SOL    HW271696   3.283   5.517   4.723  1.9202  0.3532 -0.9278
23419SOL     OW71697   2.227   3.521   5.696  0.1679 -0.0726 -0.1834
23419SOL    HW171698   2.148   3.492   5.743 -0.6784 -0.0889 -1.5606
23419SOL    HW271699   2.199   3.531   5.605  1.4140  1.2990 -0.4655
23420SOL     OW71700   2.492   0.772  11.507  0.0641  0.0745  0.5789
23420SOL    HW171701   2.454   0.723  11.580  2.3455 -2.3933  0.2854
23420SOL    HW271702   2.574   0.808  11.543  0.8632 -0.5766 -0.5333
23421SOL     OW71703   5.319   6.225   0.711  0.4146  0.5534 -0.0756
23421SOL    HW171704   5.297   6.206   0.620  1.2973  1.7024 -0.5566
23421SOL    HW271705   5.324   6.140   0.754  2.8054 -0.2329 -1.7569
23422SOL     OW71706   6.446   6.128   4.118 -0.1023 -0.3980 -0.1888
23422SOL    HW171707   6.495   6.210   4.118  1.1424 -1.1153 -0.1939
23422SOL    HW271708   6.425   6.113   4.210  0.0365 -0.2714 -0.1357
23423SOL     OW71709   4.284   1.024   0.217 -0.1841  0.0489  0.3448
23423SOL    HW171710   4.340   0.947   0.225 -0.7015 -0.2402  1.3895
23423SOL    HW271711   4.298   1.055   0.128  0.2348 -1.0989 -0.0018
23424SOL     OW71712   6.471   4.678  11.253  0.0170  0.2720 -0.0575
23424SOL    HW171713   6.477   4.653  11.161 -1.1240  1.4627 -0.4859
23424SOL    HW271714   6.413   4.755  11.253  0.3262  0.5306  1.6068
23425SOL     OW71715   6.758   0.600   2.163 -0.5998  0.3397  0.3432
23425SOL    HW171716   6.723   0.515   2.137 -2.3517  1.2641 -0.4896
23425SOL    HW271717   6.779   0.591   2.256 -0.8317 -0.9574  0.2812
23426SOL     OW71718   4.664   2.933   9.187 -0.1874 -0.1046 -0.2309
23426SOL    HW171719   4.642   2.924   9.095 -2.5556  0.9426  0.1553
23426SOL    HW271720   4.685   2.844   9.216 -2.6554 -1.0544 -1.0774
23427SOL     OW71721   6.237   3.287   2.899  0.3560  0.5734 -0.1065
23427SOL    HW171722   6.263   3.367   2.943  0.3283  0.6741 -0.2714
23427SOL    HW271723   6.154   3.309   2.856  1.0512  0.8906 -1.3464
23428SOL     OW71724   1.774   0.339  12.131  0.6379 -0.5248 -0.7688
23428SOL    HW171725   1.813   0.387  12.058  1.1601 -1.1951 -0.9451
23428SOL    HW271726   1.748   0.255  12.093 -1.2455 -0.0118 -0.7248
23429SOL     OW71727   5.280   5.398  11.674  0.1438 -0.7860 -0.4873
23429SOL    HW171728   5.224   5.321  11.684  0.5665 -0.9121  1.2484
23429SOL    HW271729   5.286   5.435  11.762  0.3554  0.9640 -1.1896
23430SOL     OW71730   6.017   2.683   1.420  0.7056 -0.0875 -0.5982
23430SOL    HW171731   6.060   2.753   1.469 -1.1513  0.5068  0.2675
23430SOL    HW271732   6.032   2.705   1.328  0.5314  1.2224 -0.3354
23431SOL     OW71733   2.433   2.289  10.536 -0.8476  0.5489 -0.4483
23431SOL    HW171734   2.435   2.264  10.628  0.2087 -0.6447 -0.7644
23431SOL    HW271735   2.501   2.356  10.528 -0.0144 -0.2917 -0.5899
23432SOL     OW71736   6.261   5.545   0.904  0.4971  0.4878 -0.7260
23432SOL    HW171737   6.261   5.576   0.813  0.7699 -0.6021 -1.1168
23432SOL    HW271738   6.171   5.517   0.920  0.0911  2.0092 -0.1604
23433SOL     OW71739   2.303   3.111   4.827  0.0919  0.0489  0.1082
23433SOL    HW171740   2.396   3.093   4.839  0.0347 -1.3141 -1.2712
23433SOL    HW271741   2.295   3.137   4.735 -0.9414 -0.1371  0.1314
23434SOL     OW71742   1.886   3.397   8.937 -0.1272  0.0009  0.1114
23434SOL    HW171743   1.868   3.333   8.867  0.3523  0.3577 -0.3465
23434SOL    HW271744   1.813   3.386   8.998 -1.1646  0.4547 -1.0027
23435SOL     OW71745   7.589   6.872   6.080  0.6098 -0.3022 -0.1260
23435SOL    HW171746   7.672   6.918   6.090 -0.0782  0.9899 -0.0973
23435SOL    HW271747   7.551   6.870   6.167  0.4446 -0.5663 -0.2016
23436SOL     OW71748   4.768   1.519   8.571 -0.4422  0.6511 -0.2043
23436SOL    HW171749   4.840   1.499   8.631 -0.0928  0.0605 -0.8012
23436SOL    HW271750   4.802   1.588   8.514 -0.3753  0.4368 -0.4267
23437SOL     OW71751   1.936   6.169   0.522  0.2261  0.0885 -0.1051
23437SOL    HW171752   1.879   6.246   0.529  0.5756  0.3370  0.0660
23437SOL    HW271753   1.908   6.125   0.442  0.5603  0.8493 -0.6587
23438SOL     OW71754   0.673   7.483   2.494  0.2883  0.0091 -0.2198
23438SOL    HW171755   0.586   7.484   2.534  0.4200 -0.4046  0.0853
23438SOL    HW271756   0.690   7.575   2.472  0.8133  0.5058  2.0051
23439SOL     OW71757   6.228   0.246   9.612 -0.0939 -0.0853 -0.2317
23439SOL    HW171758   6.319   0.277   9.613 -0.6811  1.7525 -0.0027
23439SOL    HW271759   6.205   0.245   9.519  0.6875 -2.3228 -0.4469
23440SOL     OW71760   5.058   1.646   8.229  0.4840 -0.0058  0.3750
23440SOL    HW171761   5.121   1.685   8.168  1.2628  1.9994  2.3327
23440SOL    HW271762   5.077   1.552   8.226  0.6455  0.0390 -2.2286
23441SOL     OW71763   1.059   5.237   4.413 -0.2311  0.0069 -0.3948
23441SOL    HW171764   1.151   5.246   4.437 -0.2480  2.6726 -0.9818
23441SOL    HW271765   1.012   5.268   4.491 -0.6234 -0.6072 -0.3820
23442SOL     OW71766   4.521   5.327   6.245 -0.2548  0.0289 -0.2397
23442SOL    HW171767   4.505   5.239   6.280 -1.0841 -0.0436 -0.7742
23442SOL    HW271768   4.480   5.386   6.308 -3.1922 -0.1782 -1.8308
23443SOL     OW71769   4.001   2.436   2.253 -0.2698  0.0933 -0.1237
23443SOL    HW171770   3.998   2.415   2.159  1.1607 -0.3541 -0.0946
23443SOL    HW271771   4.018   2.352   2.296  2.7415  0.7408  0.2095
23444SOL     OW71772   4.989   5.947   5.824  0.2291 -0.1468  0.5814
23444SOL    HW171773   4.957   5.871   5.873 -0.1793  0.3255  1.0547
23444SOL    HW271774   5.082   5.952   5.845  0.0653  0.0206  1.2716
23445SOL     OW71775   1.378   5.269   6.258 -0.6840 -0.0831 -0.7363
23445SOL    HW171776   1.348   5.329   6.326 -1.7047  0.3329 -1.5204
23445SOL    HW271777   1.435   5.322   6.202 -0.2394 -0.2942 -0.4883
23446SOL     OW71778   2.964   2.116   0.587 -0.4217  0.2938  0.0984
23446SOL    HW171779   2.924   2.153   0.508  0.0037 -0.6073 -0.5503
23446SOL    HW271780   3.058   2.130   0.575 -0.4218  1.3319  1.0729
23447SOL     OW71781   7.917   3.944   0.871  0.0822 -0.2725  0.2949
23447SOL    HW171782   7.831   3.986   0.875 -0.7460 -1.8910  0.2447
23447SOL    HW271783   7.939   3.942   0.778  0.6456  1.0092  0.3822
23448SOL     OW71784   1.713   4.685   4.913 -0.4211  0.2623 -0.1440
23448SOL    HW171785   1.624   4.692   4.879 -0.6946 -1.4397  0.1740
23448SOL    HW271786   1.751   4.610   4.867  0.5034  0.3236  0.4855
23449SOL     OW71787   2.871   1.093  11.635  0.6905  0.2642 -0.0365
23449SOL    HW171788   2.824   1.050  11.565  0.6062  1.6133 -0.8498
23449SOL    HW271789   2.848   1.044  11.714  0.7403 -1.2384 -0.9277
23450SOL     OW71790   0.578   7.177  10.692  0.2861 -0.6499 -0.0467
23450SOL    HW171791   0.491   7.137  10.687 -1.2565  2.1407  1.6640
23450SOL    HW271792   0.628   7.119  10.749 -2.2305  0.2085  3.3843
23451SOL     OW71793   2.124   2.205   3.557  0.5696 -0.1385 -0.3058
23451SOL    HW171794   2.104   2.298   3.568  1.3052 -0.0178  0.0487
23451SOL    HW271795   2.048   2.170   3.511  0.1105  0.5600 -0.1022
23452SOL     OW71796   5.274   1.040   1.552 -0.2557 -0.3134  0.0048
23452SOL    HW171797   5.186   1.053   1.587 -0.6922 -0.1897 -1.1091
23452SOL    HW271798   5.261   1.007   1.463  0.8285 -2.6833  0.6393
23453SOL     OW71799   0.987   1.706  11.073  0.0093 -0.2034  0.1143
23453SOL    HW171800   1.046   1.632  11.059 -0.0707 -0.2212 -0.1219
23453SOL    HW271801   0.990   1.755  10.991 -1.6929 -1.1581 -0.5646
23454SOL     OW71802   1.932   5.611   3.721  0.4633 -0.2466  0.3981
23454SOL    HW171803   1.951   5.519   3.740  1.5485 -0.1652 -0.1973
23454SOL    HW271804   1.838   5.620   3.735  0.3375 -1.4586  0.4182
23455SOL     OW71805   1.026   2.521   7.383 -0.5218  0.7391 -0.0813
23455SOL    HW171806   1.045   2.612   7.405 -1.1014  0.4073  1.9513
23455SOL    HW271807   0.968   2.490   7.453  0.0861 -1.3536 -0.4226
23456SOL     OW71808   2.508   4.369   2.760  0.4129 -0.3774  0.3084
23456SOL    HW171809   2.489   4.281   2.729  1.5534 -0.4541 -0.2525
23456SOL    HW271810   2.513   4.422   2.680  1.9917 -0.2908  0.4269
23457SOL     OW71811   6.806   2.424   4.227 -0.2120  0.0054 -0.2726
23457SOL    HW171812   6.736   2.478   4.192 -0.4648 -2.1705 -3.5365
23457SOL    HW271813   6.762   2.351   4.270  0.1154  0.5529  1.0398
23458SOL     OW71814   5.514   6.705   8.148 -0.3107  0.3364  0.1094
23458SOL    HW171815   5.593   6.745   8.184 -0.0854  0.6990 -0.7624
23458SOL    HW271816   5.540   6.614   8.131  0.2906  0.7449 -1.2505
23459SOL     OW71817   4.027   5.033   2.822  0.2647 -0.8547  0.3781
23459SOL    HW171818   4.102   4.975   2.835  0.3964 -0.6544  0.5304
23459SOL    HW271819   4.064   5.121   2.832  0.4430 -0.6575 -1.6377
23460SOL     OW71820   1.803   4.267   8.713  0.0906  0.5618 -1.0262
23460SOL    HW171821   1.781   4.298   8.625  0.0881  2.3660 -0.4435
23460SOL    HW271822   1.871   4.328   8.743 -1.6919  1.6278  1.1566
23461SOL     OW71823   5.209   1.791   2.082  0.6791 -0.3923  0.4858
23461SOL    HW171824   5.167   1.850   2.020  1.1597  0.3670  0.8608
23461SOL    HW271825   5.239   1.718   2.029 -1.5249 -1.2237  0.2833
23462SOL     OW71826   2.804   2.122   6.341  0.1138  0.1073  0.3393
23462SOL    HW171827   2.758   2.082   6.268  0.6868  0.8593 -0.4537
23462SOL    HW271828   2.783   2.066   6.416  0.2544 -1.2079 -0.5637
23463SOL     OW71829   0.380   3.056   8.844 -0.0317 -0.2616 -0.8766
23463SOL    HW171830   0.340   3.136   8.877 -1.5322 -1.8818  1.5844
23463SOL    HW271831   0.309   3.010   8.798  0.8226 -0.1966 -2.3243
23464SOL     OW71832   6.665   4.472   7.029 -0.2168 -0.4584  0.1478
23464SOL    HW171833   6.740   4.458   6.972 -0.3167  1.5420 -0.5376
23464SOL    HW271834   6.697   4.449   7.116  0.9679 -0.3304 -0.2353
23465SOL     OW71835   0.107   4.660  11.767 -0.2117  0.4683 -0.3081
23465SOL    HW171836   0.110   4.567  11.744 -2.6790 -0.1469  1.4175
23465SOL    HW271837   0.130   4.705  11.686 -0.6890 -1.6140 -1.7030
23466SOL     OW71838   5.607   1.138  12.243 -0.5707  0.4370 -0.1737
23466SOL    HW171839   5.678   1.201  12.256 -0.6292  0.6069 -0.6507
23466SOL    HW271840   5.601   1.129  12.148 -0.9998  0.2057 -0.1248
23467SOL     OW71841   1.972   3.579  11.021  0.1983 -0.2901 -0.0414
23467SOL    HW171842   1.991   3.558  11.112  0.8145  1.3690  0.2560
23467SOL    HW271843   1.981   3.674  11.016 -0.6639 -0.2566 -1.6503
23468SOL     OW71844   1.929   3.170   0.621 -0.4412 -0.0560 -0.2548
23468SOL    HW171845   1.950   3.240   0.683 -2.8274  0.4518  0.0897
23468SOL    HW271846   1.954   3.090   0.666  0.0261  0.4331  0.3854
23469SOL     OW71847   7.485   4.939  11.807 -0.2460  0.5835 -0.3073
23469SOL    HW171848   7.462   4.850  11.833  0.3940  0.3754 -0.4343
23469SOL    HW271849   7.520   4.979  11.887  0.9926  0.1931 -0.6369
23470SOL     OW71850   1.790   7.274  11.662  0.4563  0.6001 -0.0300
23470SOL    HW171851   1.757   7.269  11.572 -0.5672 -0.0991  0.3677
23470SOL    HW271852   1.723   7.322  11.710  0.2199 -0.4083  0.6852
23471SOL     OW71853   4.606   1.242   1.626 -0.4122  0.7409  0.3827
23471SOL    HW171854   4.643   1.245   1.714 -0.2882  0.4673  0.3388
23471SOL    HW271855   4.517   1.209   1.639 -0.6527  1.4017  0.4884
23472SOL     OW71856   3.602   1.554  12.060 -0.0165  0.2278 -0.2141
23472SOL    HW171857   3.558   1.482  12.016  2.1206 -0.8236 -0.7556
23472SOL    HW271858   3.532   1.600  12.107 -1.5785 -1.6204 -0.6160
23473SOL     OW71859   4.061   3.857   0.161  0.1178  0.1140  0.0367
23473SOL    HW171860   4.008   3.814   0.228 -0.3821  0.3192 -0.2245
23473SOL    HW271861   4.134   3.797   0.147 -1.1695 -1.2670 -1.1795
23474SOL     OW71862   7.064   6.990   7.091  0.5862  0.1125  0.3468
23474SOL    HW171863   7.009   7.049   7.038  0.4842  1.1048  1.5159
23474SOL    HW271864   7.009   6.968   7.167  2.0799  1.9237  2.0560
23475SOL     OW71865   6.789   1.899   0.178  0.3219  0.3565  0.3827
23475SOL    HW171866   6.830   1.985   0.180  0.4861  0.2989 -0.2565
23475SOL    HW271867   6.723   1.905   0.109  0.3212 -0.0138  0.3467
23476SOL     OW71868   1.153   0.066   2.424  0.4675  0.4124 -0.2876
23476SOL    HW171869   1.179   0.133   2.488  0.2088  0.9712 -0.7501
23476SOL    HW271870   1.081   0.106   2.376  1.8130  0.7791 -2.1578
23477SOL     OW71871   2.001   7.559   6.892  0.8473 -0.2503 -0.2801
23477SOL    HW171872   2.059   7.525   6.960  1.0086 -0.7256 -0.6493
23477SOL    HW271873   2.048   7.543   6.810 -0.4282 -1.9738 -0.7117
23478SOL     OW71874   3.165   0.196   2.573 -0.3718 -0.0068 -0.6908
23478SOL    HW171875   3.243   0.249   2.588  0.1042 -0.4249 -1.6313
23478SOL    HW271876   3.117   0.242   2.504 -0.2110 -0.5138 -1.1522
23479SOL     OW71877   4.515   1.428   3.239  0.6532  0.3687  0.6256
23479SOL    HW171878   4.421   1.448   3.247  0.5465 -0.1751  0.8042
23479SOL    HW271879   4.547   1.489   3.173 -0.0292 -0.0926 -0.1578
23480SOL     OW71880   5.289   5.022   9.848 -0.1593 -0.4594 -0.1077
23480SOL    HW171881   5.327   4.935   9.846 -0.7385 -0.7694  1.1716
23480SOL    HW271882   5.213   5.014   9.905 -0.5647  0.7537 -0.4359
23481SOL     OW71883   6.057   1.366   1.674 -0.6469 -0.2526 -0.3033
23481SOL    HW171884   6.063   1.443   1.730 -0.1523  0.9107 -1.9151
23481SOL    HW271885   6.147   1.347   1.649 -0.9391 -0.1742 -1.4630
23482SOL     OW71886   2.491   4.084   3.034 -0.4276  0.0983  0.1574
23482SOL    HW171887   2.487   3.996   2.996 -1.1913  0.5207 -0.8092
23482SOL    HW271888   2.401   4.117   3.024 -0.0893  1.0678  0.2864
23483SOL     OW71889   2.062   6.636   0.497  0.3623 -0.1368 -0.0276
23483SOL    HW171890   1.988   6.621   0.439 -1.4092  0.1235  2.0350
23483SOL    HW271891   2.122   6.690   0.446 -1.2019  0.2619 -1.5324
23484SOL     OW71892   7.368   2.064  12.321 -0.4108 -0.1328  0.4613
23484SOL    HW171893   7.459   2.034  12.319 -0.4270 -0.1563 -0.6465
23484SOL    HW271894   7.328   2.014  12.392  0.2953 -0.5464  0.5846
23485SOL     OW71895   4.372   0.428   6.254  0.5624 -0.3250  0.4769
23485SOL    HW171896   4.316   0.468   6.187  0.9032 -2.4445 -1.1708
23485SOL    HW271897   4.441   0.493   6.269  2.4190 -0.9634 -3.8044
23486SOL     OW71898   1.668   2.273   3.084 -0.3720  0.4480 -0.0470
23486SOL    HW171899   1.582   2.270   3.043 -1.1036  1.5803  1.3076
23486SOL    HW271900   1.683   2.184   3.117 -1.4094  0.4408  0.4300
23487SOL     OW71901   0.264   0.390  11.366  0.1595 -0.2259 -0.1087
23487SOL    HW171902   0.172   0.396  11.390  0.4164  0.9932  0.6356
23487SOL    HW271903   0.286   0.297  11.379 -1.4005 -0.9622 -2.1134
23488SOL     OW71904   2.807   7.513   8.686 -0.0887 -0.2790 -0.2914
23488SOL    HW171905   2.859   7.466   8.752 -0.4853  0.0763  0.2919
23488SOL    HW271906   2.739   7.557   8.737 -1.2233 -1.0617 -1.0792
23489SOL     OW71907   7.782   7.715   7.860 -0.2026  0.3533 -0.1506
23489SOL    HW171908   7.850   7.677   7.915 -0.6794 -0.1883  0.0755
23489SOL    HW271909   7.747   7.641   7.810  0.6954  0.9286 -1.7260
23490SOL     OW71910   2.156   1.533   9.372  0.2122 -0.6023  0.1691
23490SOL    HW171911   2.096   1.597   9.334  1.9281  1.1957  0.3522
23490SOL    HW271912   2.106   1.493   9.443 -1.0542  0.2300 -0.2187
23491SOL     OW71913   4.642   3.157  11.837 -0.3233  0.6140  0.1509
23491SOL    HW171914   4.608   3.242  11.810  0.4547  0.0882 -2.7946
23491SOL    HW271915   4.728   3.151  11.796  0.7110 -0.6440  2.3076
23492SOL     OW71916   3.233   5.073   7.703 -0.0136  0.0690 -0.1412
23492SOL    HW171917   3.186   5.078   7.619 -0.9376  0.5762  0.3849
23492SOL    HW271918   3.184   5.008   7.754  0.7171 -0.4544 -0.0875
23493SOL     OW71919   5.454   0.091   7.816  0.3035  0.5429 -0.5484
23493SOL    HW171920   5.391   0.124   7.752  0.1100  0.9406 -0.1530
23493SOL    HW271921   5.477   0.004   7.783 -2.0015 -0.4925  0.3851
23494SOL     OW71922   6.937   3.378   5.188  0.7013 -0.1331  0.2459
23494SOL    HW171923   7.018   3.352   5.232  1.4842 -1.5351 -1.8840
23494SOL    HW271924   6.942   3.337   5.102 -1.8623  0.5333 -0.2995
23495SOL     OW71925   7.242   0.814  11.902  0.0871 -0.0649 -0.4350
23495SOL    HW171926   7.313   0.836  11.962  0.4037  0.1233 -0.8723
23495SOL    HW271927   7.281   0.822  11.815 -1.0705  2.3246 -0.8173
23496SOL     OW71928   5.440   0.767   1.999  0.0113 -0.3187 -0.4750
23496SOL    HW171929   5.374   0.788   1.934  0.9256 -1.0041 -1.6554
23496SOL    HW271930   5.513   0.826   1.980 -0.5959  1.1734  1.4766
23497SOL     OW71931   2.557   6.850   0.832  0.0709  0.0931  0.7497
23497SOL    HW171932   2.566   6.862   0.737 -0.5547  2.2823  0.9099
23497SOL    HW271933   2.634   6.894   0.868  1.3614 -2.4258  1.2425
23498SOL     OW71934   7.438   5.550   9.156 -0.2937 -1.0638  0.8273
23498SOL    HW171935   7.371   5.534   9.091  0.7175 -1.5638 -0.1229
23498SOL    HW271936   7.391   5.556   9.239 -1.5563 -0.8068  0.1092
23499SOL     OW71937   0.694   7.943   2.583  0.3955 -0.0624 -0.3073
23499SOL    HW171938   0.671   7.850   2.570 -0.9209  0.2877 -0.6851
23499SOL    HW271939   0.721   7.948   2.674  1.8632 -1.0684 -0.6443
23500SOL     OW71940   7.555   2.414   5.876  0.2105 -0.3787  0.0713
23500SOL    HW171941   7.564   2.319   5.883 -1.6698 -0.4813  2.0838
23500SOL    HW271942   7.635   2.449   5.916  0.4499 -1.1066  0.2358
23501SOL     OW71943   4.755   7.043   6.431  0.4558  0.3292 -0.1567
23501SOL    HW171944   4.810   7.003   6.365  0.2098  0.4389 -0.4286
23501SOL    HW271945   4.725   6.970   6.485  0.1683  0.1671 -0.5311
23502SOL     OW71946   0.377   7.699   3.321  0.2761 -0.0880 -1.2866
23502SOL    HW171947   0.372   7.618   3.372 -0.0597  1.1192  0.6967
23502SOL    HW271948   0.298   7.699   3.268 -1.1292  0.1894  0.7116
23503SOL     OW71949   6.973   7.584   1.076 -0.1461 -0.1350 -0.2730
23503SOL    HW171950   6.990   7.584   1.171  2.1458  2.4413 -0.5300
23503SOL    HW271951   7.056   7.557   1.037 -0.8682 -0.5514 -1.5818
23504SOL     OW71952   6.292   6.034  11.726 -0.2003 -0.2523 -0.8618
23504SOL    HW171953   6.306   6.007  11.635  0.3931  0.0744 -0.8664
23504SOL    HW271954   6.357   6.101  11.742  1.7042 -2.3326  0.7018
23505SOL     OW71955   4.656   4.308   2.904 -0.4539 -0.2038 -0.4454
23505SOL    HW171956   4.588   4.375   2.893 -1.6725 -1.6157 -1.8195
23505SOL    HW271957   4.634   4.265   2.987  1.6390  2.4020  1.7099
23506SOL     OW71958   7.244   5.538   3.434  0.6010 -0.0130 -0.4742
23506SOL    HW171959   7.211   5.618   3.392 -0.2446 -0.2039 -0.1943
23506SOL    HW271960   7.323   5.566   3.480  0.5185  0.5874 -0.6804
23507SOL     OW71961   0.193   2.249   5.230  0.1413 -0.2558 -0.0032
23507SOL    HW171962   0.276   2.206   5.248  0.2739 -0.0663 -0.1644
23507SOL    HW271963   0.213   2.314   5.163 -0.3603 -0.9627 -0.8539
23508SOL     OW71964   5.650   7.635   4.986  0.0929 -0.5900 -0.3965
23508SOL    HW171965   5.614   7.597   5.066  0.2634 -0.3326 -0.1977
23508SOL    HW271966   5.609   7.721   4.978  0.6647 -0.2875 -0.1605
23509SOL     OW71967   6.950   5.069   3.455 -0.3097  1.0286 -0.7275
23509SOL    HW171968   6.905   5.012   3.393 -0.6291 -1.5466  1.6828
23509SOL    HW271969   7.043   5.048   3.446 -0.5731 -2.1251  1.9436
23510SOL     OW71970   0.309   5.045  10.846 -0.0924 -0.1608  0.1889
23510SOL    HW171971   0.247   5.099  10.895  1.5870 -0.0721  2.3638
23510SOL    HW271972   0.394   5.086  10.862  0.6277 -0.2219 -2.7615
23511SOL     OW71973   5.654   7.648   3.750  0.3515  0.3421 -0.3852
23511SOL    HW171974   5.599   7.603   3.686  1.6869 -1.7614 -0.1546
23511SOL    HW271975   5.654   7.589   3.826  2.3197  0.6254 -0.1231
23512SOL     OW71976   5.517   6.097  10.974 -0.2297 -0.1201 -0.3200
23512SOL    HW171977   5.492   6.069  11.062  2.7757 -0.8951  0.4057
23512SOL    HW271978   5.542   6.017  10.928 -0.2296  0.4410 -1.3432
23513SOL     OW71979   2.710   0.461   8.294  0.0632 -0.4363  0.1116
23513SOL    HW171980   2.799   0.485   8.320  0.0247  1.7525 -1.4696
23513SOL    HW271981   2.674   0.415   8.370  1.5274  1.3100  1.9768
23514SOL     OW71982   3.439   1.201  12.220 -0.3058 -0.0015  0.0722
23514SOL    HW171983   3.362   1.257  12.216 -0.3672 -0.0416  0.6277
23514SOL    HW271984   3.510   1.259  12.249 -0.7214 -0.5435  2.3179
23515SOL     OW71985   3.620   2.133   3.319  0.5118 -0.0638  0.0729
23515SOL    HW171986   3.640   2.040   3.332 -1.7130 -0.4163  1.4905
23515SOL    HW271987   3.562   2.135   3.243  0.8641  0.2125 -0.1903
23516SOL     OW71988   7.848   0.653   9.685  0.3601 -0.1657 -0.4449
23516SOL    HW171989   7.813   0.644   9.773 -0.6899 -0.0339 -0.8364
23516SOL    HW271990   7.824   0.572   9.640  2.1451 -0.8734 -0.2177
23517SOL     OW71991   7.672   4.495   6.132 -0.4215 -0.3608 -0.5010
23517SOL    HW171992   7.637   4.416   6.091 -1.7573 -0.3774  0.6207
23517SOL    HW271993   7.643   4.490   6.223  2.3197 -0.2393  0.4805
23518SOL     OW71994   3.236   0.369  10.185 -0.0096 -0.5640  0.3633
23518SOL    HW171995   3.304   0.313  10.148 -0.5478  0.2114 -1.9982
23518SOL    HW271996   3.238   0.352  10.279  2.2890 -1.7931  0.1452
23519SOL     OW71997   4.509   7.855   6.322  0.0078  0.2149  0.1869
23519SOL    HW171998   4.462   7.780   6.357 -0.6153  0.2844 -0.4636
23519SOL    HW271999   4.599   7.825   6.313 -0.4787 -0.9178 -1.3020
23520SOL     OW72000   6.995   2.018   1.071  0.7111  0.3472 -0.2677
23520SOL    HW172001   7.090   2.010   1.070  0.6488 -0.5050 -0.4849
23520SOL    HW272002   6.964   1.935   1.035 -0.1190  0.5421 -0.0225
23521SOL     OW72003   1.419   3.193   5.039 -0.3780  0.0059  0.4643
23521SOL    HW172004   1.434   3.233   5.125 -1.5097  2.5188 -0.3966
23521SOL    HW272005   1.329   3.162   5.043  0.2090 -1.8081  0.8079
23522SOL     OW72006   4.532   1.544  11.275  0.6886  0.3112 -0.3809
23522SOL    HW172007   4.604   1.542  11.337  2.0512 -2.6226 -1.8880
23522SOL    HW272008   4.531   1.457  11.235 -3.1080  0.5148 -1.1500
23523SOL     OW72009   7.111   1.771   0.853  0.0703  0.4759  0.0162
23523SOL    HW172010   7.200   1.803   0.837  0.3777  0.4425  1.4970
23523SOL    HW272011   7.123   1.682   0.885 -0.5828  0.0316 -0.9455
23524SOL     OW72012   1.090   5.380  10.334 -0.0633 -0.1174  0.4461
23524SOL    HW172013   1.078   5.286  10.349  0.3027  0.1681  2.9977
23524SOL    HW272014   1.139   5.410  10.410 -0.3323  2.1994 -0.2272
23525SOL     OW72015   4.591   0.131   7.371 -0.1359  0.6428  0.3563
23525SOL    HW172016   4.528   0.149   7.302 -0.9317  1.1468  1.1921
23525SOL    HW272017   4.665   0.091   7.326 -1.3888 -0.7807 -0.5466
23526SOL     OW72018   6.657   7.757   6.602 -0.4143  0.2552 -0.1956
23526SOL    HW172019   6.750   7.744   6.587 -0.5516 -0.1279 -0.7464
23526SOL    HW272020   6.618   7.671   6.588 -1.0231  0.6910 -1.3692
23527SOL     OW72021   7.789   6.639   2.456  0.0257 -0.2050  0.1855
23527SOL    HW172022   7.695   6.620   2.455 -0.3058  1.2089  0.8703
23527SOL    HW272023   7.831   6.554   2.463 -1.2101 -0.8522  0.0327
23528SOL     OW72024   2.763   0.288   6.297  0.5041  0.1155  0.4521
23528SOL    HW172025   2.732   0.379   6.302 -2.1741 -0.7302  1.2460
23528SOL    HW272026   2.787   0.275   6.206 -2.6669  0.6760 -0.6095
23529SOL     OW72027   0.889   6.149   9.854 -0.5509 -0.6261  0.4333
23529SOL    HW172028   0.933   6.202   9.920  1.8321 -1.1745 -0.6224
23529SOL    HW272029   0.880   6.063   9.893 -1.5139 -0.3108  0.9518
23530SOL     OW72030   6.074   3.159   9.268  0.1083 -0.1656 -0.2766
23530SOL    HW172031   6.080   3.243   9.314  0.0582 -1.1839  1.6504
23530SOL    HW272032   6.147   3.107   9.302 -1.0067 -1.5981  0.0247
23531SOL     OW72033   1.930   0.088  10.687 -0.1516  0.4436 -0.2002
23531SOL    HW172034   1.893   0.039  10.614 -0.9611 -0.4681  0.7817
23531SOL    HW272035   2.011   0.042  10.708 -0.6382 -0.1889  0.3689
23532SOL     OW72036   3.250   1.291   4.513  0.4393 -0.1473  0.1800
23532SOL    HW172037   3.158   1.272   4.531  0.6293  1.0211  2.7702
23532SOL    HW272038   3.254   1.386   4.503  1.1141 -0.3351 -2.0369
23533SOL     OW72039   5.633   1.462   9.508 -0.0963  0.0012  0.2649
23533SOL    HW172040   5.622   1.441   9.416  1.0761 -1.7657  0.4580
23533SOL    HW272041   5.551   1.502   9.535 -0.4376  0.5691 -1.5378
23534SOL     OW72042   6.476   6.435   1.630  0.6091 -0.1431  0.3586
23534SOL    HW172043   6.431   6.359   1.666  0.3784 -0.2809 -0.2033
23534SOL    HW272044   6.499   6.488   1.706 -0.0975 -0.2978  0.6863
23535SOL     OW72045   3.343   3.158  12.440  0.0523  0.4858 -0.3680
23535SOL    HW172046   3.424   3.138  12.393  0.3474  0.7738  0.0138
23535SOL    HW272047   3.345   3.103  12.518  0.4748  1.3556  0.2627
23536SOL     OW72048   1.942   0.176   3.671 -0.1724  0.1999  0.0933
23536SOL    HW172049   1.876   0.120   3.711 -0.5450  1.3669  1.2072
23536SOL    HW272050   2.011   0.183   3.737  0.1631  0.5302 -0.2834
23537SOL     OW72051   0.597   0.883   0.507 -0.4015 -0.4953 -0.1795
23537SOL    HW172052   0.516   0.924   0.538  0.2316  0.9737 -0.3794
23537SOL    HW272053   0.575   0.791   0.498 -1.2489 -0.6608  2.5232
23538SOL     OW72054   2.625   2.410  11.311 -0.5905 -0.0524 -0.2163
23538SOL    HW172055   2.663   2.359  11.239 -2.7652  0.8022 -2.1218
23538SOL    HW272056   2.694   2.470  11.338  0.3910 -0.6064 -1.4201
23539SOL     OW72057   0.932   2.188  10.678  0.2866 -0.2110  0.2368
23539SOL    HW172058   0.883   2.107  10.672 -0.6461  0.0406  3.0996
23539SOL    HW272059   0.898   2.232  10.757  2.9903  1.4056  0.6431
23540SOL     OW72060   7.233   0.034   1.913 -0.3960 -0.1245  0.1460
23540SOL    HW172061   7.210   0.058   1.823 -1.4244 -0.0588  0.4154
23540SOL    HW272062   7.246  -0.060   1.911  0.2199 -0.0403 -0.1954
23541SOL     OW72063   3.055   7.965  10.606 -0.3238 -0.1306  0.3870
23541SOL    HW172064   3.050   8.061  10.606 -1.0520 -0.1650  0.1737
23541SOL    HW272065   3.074   7.942  10.697  2.6099  0.3239  0.0086
23542SOL     OW72066   6.384   3.654   4.383 -0.1338  0.5118  0.0720
23542SOL    HW172067   6.442   3.727   4.358 -2.2077  1.6236 -1.8914
23542SOL    HW272068   6.320   3.693   4.442 -1.2289  0.3078 -0.9446
23543SOL     OW72069   3.730   2.558   9.214  0.7328 -0.0840 -0.8088
23543SOL    HW172070   3.725   2.621   9.142  0.8498 -0.9339 -1.5730
23543SOL    HW272071   3.800   2.591   9.270 -0.2205  1.3052 -0.3536
23544SOL     OW72072   5.655   1.020   9.938  0.6990 -0.6096  0.5301
23544SOL    HW172073   5.564   0.991   9.923  0.2992  0.6251  0.5090
23544SOL    HW272074   5.701   0.994   9.858  0.3492 -1.1366  0.4892
23545SOL     OW72075   1.512   6.518   1.664 -0.0818 -0.1990  0.5515
23545SOL    HW172076   1.598   6.533   1.702  0.4387 -0.2480 -0.5859
23545SOL    HW272077   1.527   6.513   1.570 -1.2349 -0.8273  0.3759
23546SOL     OW72078   2.129   2.869   2.079 -0.0419  0.2104  0.0787
23546SOL    HW172079   2.038   2.844   2.098 -0.3022 -0.1171 -1.4664
23546SOL    HW272080   2.148   2.829   1.994  1.4652  0.5188  0.2380
23547SOL     OW72081   1.796   7.969   4.166  0.1734 -0.6590  0.3886
23547SOL    HW172082   1.773   7.918   4.244 -0.8427 -0.0574  0.4980
23547SOL    HW272083   1.711   7.997   4.130  0.6277 -0.8424 -0.8792
23548SOL     OW72084   6.020   5.519   5.160  0.5707 -0.0165  0.1522
23548SOL    HW172085   5.988   5.494   5.074  1.1845 -0.3742  0.0202
23548SOL    HW272086   6.065   5.603   5.146 -1.8178  1.4507  0.6603
23549SOL     OW72087   0.438   5.490   5.633  0.6080  0.6129  0.4134
23549SOL    HW172088   0.359   5.442   5.605  1.2434 -0.3709  0.2456
23549SOL    HW272089   0.451   5.557   5.566  0.8300 -0.2756 -0.4604
23550SOL     OW72090   2.559   7.665  10.013 -0.2830 -0.0034  0.5816
23550SOL    HW172091   2.575   7.610   9.936  0.1082  0.5811  0.2390
23550SOL    HW272092   2.619   7.631  10.080  0.3495  0.3390  0.2022
23551SOL     OW72093   7.436   0.861   4.007 -0.1805 -0.2048  0.2938
23551SOL    HW172094   7.413   0.798   3.939  0.0579 -1.2567  1.1540
23551SOL    HW272095   7.392   0.829   4.086  1.0100 -0.0361  1.0499
23552SOL     OW72096   2.130   2.906   8.389 -0.4092  0.1435 -0.0806
23552SOL    HW172097   2.051   2.928   8.341 -0.2060 -1.6978 -1.3733
23552SOL    HW272098   2.104   2.834   8.447  0.2507 -0.3290 -0.3555
23553SOL     OW72099   5.671   6.498   5.031  0.1207 -0.4408 -0.0530
23553SOL    HW172100   5.680   6.479   4.938  2.1185  0.5785 -0.1039
23553SOL    HW272101   5.612   6.574   5.034 -0.9422 -1.2206 -0.3627
23554SOL     OW72102   2.742   5.248   6.105  0.2429 -0.5547  0.3831
23554SOL    HW172103   2.725   5.339   6.082  0.9500  0.5056  3.5044
23554SOL    HW272104   2.673   5.226   6.168  2.0862 -0.8863  2.4179
23555SOL     OW72105   3.506   5.032   8.369 -0.1955  0.0629 -0.5171
23555SOL    HW172106   3.524   4.968   8.300  2.0309 -1.9105  1.6881
23555SOL    HW272107   3.585   5.085   8.374 -1.2145  1.6879 -0.9002
23556SOL     OW72108   7.217   5.092   6.388  0.3005  0.3944  0.3316
23556SOL    HW172109   7.231   5.184   6.365 -2.0879  0.5043 -1.0616
23556SOL    HW272110   7.136   5.092   6.439 -0.5173 -1.0040 -0.8622
23557SOL     OW72111   5.124   6.527   7.285 -0.1235  0.0583  0.1133
23557SOL    HW172112   5.032   6.553   7.282 -0.0312  0.3127 -2.1349
23557SOL    HW272113   5.134   6.465   7.214  1.4513  0.0135  0.3312
23558SOL     OW72114   5.561   3.044   6.366 -0.2196 -0.2604  0.2892
23558SOL    HW172115   5.625   2.998   6.312  2.7216  1.3999  2.0871
23558SOL    HW272116   5.569   3.003   6.452 -0.3229  1.0424  0.9497
23559SOL     OW72117   0.327   1.167   3.503 -0.0183 -0.6942 -0.0377
23559SOL    HW172118   0.370   1.180   3.587  0.3534 -0.1422 -0.3030
23559SOL    HW272119   0.369   1.090   3.465  0.5610 -0.3167 -0.1788
23560SOL     OW72120   7.109   1.518   0.959 -0.3635 -0.7337 -0.3172
23560SOL    HW172121   7.130   1.500   1.050  0.5760 -1.3611 -0.6326
23560SOL    HW272122   7.019   1.489   0.948 -0.9110  0.4905  0.6948
23561SOL     OW72123   5.374   1.081   7.211  0.5645  0.4469  0.5429
23561SOL    HW172124   5.398   1.108   7.122 -0.3318 -2.2020 -0.6048
23561SOL    HW272125   5.283   1.107   7.221 -0.5433 -2.4518 -0.8510
23562SOL     OW72126   2.604   7.662   2.784 -0.0173 -0.3119 -0.0660
23562SOL    HW172127   2.629   7.570   2.769 -0.1709 -0.2262 -0.9113
23562SOL    HW272128   2.684   7.703   2.818  0.0226 -0.7756  0.4212
23563SOL     OW72129   1.036   2.962   4.250  0.1342 -0.0723  0.5186
23563SOL    HW172130   1.097   2.934   4.182 -1.6725 -0.7320 -0.8947
23563SOL    HW272131   0.980   3.027   4.208 -1.0415 -0.5172  1.3246
23564SOL     OW72132   6.078   4.741   0.198 -0.3062  0.1037 -0.6303
23564SOL    HW172133   6.074   4.830   0.230 -0.8252 -0.0570 -0.2370
23564SOL    HW272134   6.088   4.750   0.103 -1.1284  0.5806 -0.6784
23565SOL     OW72135   5.469   5.263   8.668 -0.3825 -0.0060  0.3028
23565SOL    HW172136   5.462   5.307   8.583  0.6692 -0.9965 -0.3332
23565SOL    HW272137   5.562   5.242   8.676 -0.9225 -2.8105  0.1747
23566SOL     OW72138   5.395   7.345   7.298 -0.5766  0.2115 -0.3273
23566SOL    HW172139   5.365   7.367   7.386  0.9140 -4.8486  1.8129
23566SOL    HW272140   5.318   7.306   7.256 -0.5480 -0.1923 -0.0204
23567SOL     OW72141   3.052   7.141   0.537  0.2546  0.4323  0.0042
23567SOL    HW172142   3.065   7.198   0.613 -1.5254  1.4080 -0.3668
23567SOL    HW272143   2.971   7.173   0.497  0.8271 -0.4702 -1.9617
23568SOL     OW72144   2.750   3.576  10.785  0.6470  0.0624  0.2292
23568SOL    HW172145   2.712   3.501  10.739 -0.6177  0.0507  1.2380
23568SOL    HW272146   2.828   3.597  10.735  0.1046 -0.8577 -1.0727
23569SOL     OW72147   3.164   1.382   8.631  0.5614 -0.3612 -0.0721
23569SOL    HW172148   3.141   1.373   8.723  2.8424  1.7758  0.8160
23569SOL    HW272149   3.238   1.323   8.618  3.1920  2.5017  0.7891
23570SOL     OW72150   4.598   4.810  10.846 -0.6749 -0.0816  0.1977
23570SOL    HW172151   4.521   4.769  10.806  1.6005 -2.7779 -1.8944
23570SOL    HW272152   4.651   4.737  10.877  1.1970  1.6352  1.3248
23571SOL     OW72153   6.400   5.055   6.841  0.2865  0.1433  0.1372
23571SOL    HW172154   6.470   5.001   6.878 -0.2410 -0.2934  0.5285
23571SOL    HW272155   6.371   5.110   6.914  0.3008  0.4056 -0.0541
23572SOL     OW72156   0.956   3.216  12.459  0.4455 -0.3127 -0.0317
23572SOL    HW172157   0.957   3.149  12.528 -0.3818 -0.1794  0.1106
23572SOL    HW272158   0.867   3.251  12.460  1.2702  2.0276  1.0875
23573SOL     OW72159   6.639   3.704  11.714  0.0177  0.3512  0.5292
23573SOL    HW172160   6.640   3.726  11.620  1.2921  2.1138  0.9026
23573SOL    HW272161   6.714   3.751  11.750 -0.8736  0.2798  2.5750
23574SOL     OW72162   3.632   0.522   2.240  0.5901  0.3825 -0.1831
23574SOL    HW172163   3.633   0.426   2.242  0.2151  0.3869  0.4465
23574SOL    HW272164   3.700   0.548   2.303 -1.1753  0.5146  1.7891
23575SOL     OW72165   0.351   4.640   5.021  0.4939 -0.1863  0.0276
23575SOL    HW172166   0.292   4.618   4.949 -1.0777  0.1433  1.1543
23575SOL    HW272167   0.387   4.555   5.048 -0.7287 -0.6498  0.3245
23576SOL     OW72168   2.151   4.270   5.160 -0.0467  0.4326  0.4675
23576SOL    HW172169   2.183   4.216   5.232 -0.4331  0.9022  1.0039
23576SOL    HW272170   2.230   4.299   5.115  0.1733 -0.3564  0.3335
23577SOL     OW72171   6.870   1.119   7.074  0.3842  0.4208  0.3656
23577SOL    HW172172   6.777   1.097   7.067 -0.0149  2.4392 -3.1040
23577SOL    HW272173   6.870   1.208   7.111  1.0873 -0.1631  1.8225
23578SOL     OW72174   5.263   5.891   9.378 -0.3429  0.4313  0.4111
23578SOL    HW172175   5.291   5.946   9.452 -0.2023 -0.5699  1.1143
23578SOL    HW272176   5.167   5.899   9.379 -0.3381  0.4821  0.6532
23579SOL     OW72177   4.075   1.771   3.910 -0.1250 -0.3407  0.3592
23579SOL    HW172178   4.095   1.682   3.937 -0.8630 -0.0418  1.9782
23579SOL    HW272179   4.153   1.799   3.861  0.7198 -1.3592  1.0784
23580SOL     OW72180   3.249   4.981   8.405  0.3900 -0.1775 -0.2275
23580SOL    HW172181   3.339   4.998   8.377 -0.6644  1.6731 -2.8759
23580SOL    HW272182   3.230   4.892   8.374  0.7970  0.0253 -1.0625
23581SOL     OW72183   5.343   3.848   4.274  0.2033 -0.0326  0.0221
23581SOL    HW172184   5.285   3.788   4.227  0.8946  1.5864 -3.2445
23581SOL    HW272185   5.425   3.800   4.283 -0.5400 -1.0897  1.5202
23582SOL     OW72186   2.362   0.821  11.281 -0.3598 -0.4487  0.2482
23582SOL    HW172187   2.380   0.834  11.374 -0.8861 -0.1120  0.3106
23582SOL    HW272188   2.414   0.744  11.257  0.0669 -0.3174  0.7301
23583SOL     OW72189   4.690   7.204   2.816 -0.3707 -0.1314 -0.3551
23583SOL    HW172190   4.597   7.228   2.811 -0.1510  0.6875 -0.6110
23583SOL    HW272191   4.699   7.162   2.901 -0.1630  3.4933  1.6048
23584SOL     OW72192   0.651   7.895   6.903  0.1135 -0.9050 -0.1796
23584SOL    HW172193   0.667   7.941   6.985  1.3154 -0.4028 -0.6705
23584SOL    HW272194   0.727   7.837   6.893  0.8197  0.2005 -1.6999
23585SOL     OW72195   4.802   3.079   3.902  0.0345 -0.0186  0.2409
23585SOL    HW172196   4.863   3.143   3.864 -3.6760  2.6914 -1.8193
23585SOL    HW272197   4.788   3.015   3.832 -0.2428 -0.0187  0.2947
23586SOL     OW72198   0.166   4.612   6.796 -0.4784  0.0912 -0.4834
23586SOL    HW172199   0.179   4.706   6.784 -0.1765  0.2580  0.9132
23586SOL    HW272200   0.071   4.601   6.804 -0.4475  0.4693  0.5701
23587SOL     OW72201   2.959   7.958   0.351  0.1932  0.6093  0.6031
23587SOL    HW172202   2.961   7.893   0.421 -1.0712  0.1295  0.2159
23587SOL    HW272203   3.017   8.027   0.382  0.6514 -0.1657  1.5490
23588SOL     OW72204   2.088   2.047   4.775  0.2635  0.2015 -0.3856
23588SOL    HW172205   2.149   2.092   4.717  1.5611 -1.0239 -0.0291
23588SOL    HW272206   2.123   1.958   4.783 -1.0915 -0.2895  0.5363
23589SOL     OW72207   0.076   7.372   2.797 -0.5571  0.4129  0.2793
23589SOL    HW172208   0.094   7.446   2.739 -1.2898  0.1102 -0.3500
23589SOL    HW272209   0.156   7.319   2.793  0.3960  1.6861  1.5698
23590SOL     OW72210   4.261   0.995   3.919  0.3707 -0.5711 -0.1158
23590SOL    HW172211   4.355   1.001   3.901 -0.1921  1.4361 -3.1946
23590SOL    HW272212   4.246   0.902   3.937  3.0823 -0.7228  1.9476
23591SOL     OW72213   5.115   5.902   2.451 -0.4079 -0.3085  0.2632
23591SOL    HW172214   5.081   5.908   2.540  0.0048  0.2253  0.3853
23591SOL    HW272215   5.074   5.975   2.404  0.7207  0.4847  0.4707
23592SOL     OW72216   5.936   5.520  10.218 -0.5524  0.3463  0.3306
23592SOL    HW172217   5.858   5.533  10.273 -0.7759  0.1349  0.0647
23592SOL    HW272218   5.935   5.595  10.158 -0.0179  0.8593  0.9539
23593SOL     OW72219   1.273   0.355  11.013  0.3109  0.1488 -0.5514
23593SOL    HW172220   1.347   0.407  10.979 -0.4385  2.7857  1.5240
23593SOL    HW272221   1.218   0.339  10.936  2.3859 -0.8324 -1.9233
23594SOL     OW72222   0.474   5.009   3.668 -0.5871 -0.6262 -0.3772
23594SOL    HW172223   0.394   4.970   3.635 -0.4956  0.3359 -1.8423
23594SOL    HW272224   0.467   5.102   3.644 -0.1178 -0.0365  1.6234
23595SOL     OW72225   6.721   5.816  10.549 -0.0372  0.1879  0.3169
23595SOL    HW172226   6.700   5.764  10.471  0.4647  0.1808  0.1830
23595SOL    HW272227   6.678   5.770  10.621 -1.8571  1.0694 -0.1543
23596SOL     OW72228   1.739   5.153   8.079  0.3369  0.0012  0.2094
23596SOL    HW172229   1.831   5.140   8.102  0.4854  0.1122 -0.2989
23596SOL    HW272230   1.702   5.064   8.076  0.4352 -0.0452  0.3892
23597SOL     OW72231   0.760   7.688  10.210 -0.1351  0.2379 -0.2037
23597SOL    HW172232   0.707   7.678  10.131  0.8895 -0.5013 -0.8170
23597SOL    HW272233   0.846   7.716  10.178 -0.1203  1.3997  0.7699
23598SOL     OW72234   0.850   2.792   1.387 -0.1384  0.3981 -0.2186
23598SOL    HW172235   0.920   2.740   1.349 -1.0258 -1.4761  0.5371
23598SOL    HW272236   0.894   2.857   1.441  1.0587  1.5873 -2.5100
23599SOL     OW72237   3.625   6.627   0.729 -0.0105 -0.0904  0.6250
23599SOL    HW172238   3.639   6.673   0.812  0.8796 -0.7748  0.8730
23599SOL    HW272239   3.702   6.650   0.676 -1.0068  1.0846 -0.3843
23600SOL     OW72240   5.373   4.008   5.696 -0.1485 -0.3155  0.7040
23600SOL    HW172241   5.432   4.011   5.771 -0.3342 -0.9335  0.8868
23600SOL    HW272242   5.430   4.017   5.620  0.0428  0.3082  0.9149
23601SOL     OW72243   1.005   3.712   5.883 -0.1568 -0.2667  0.6330
23601SOL    HW172244   0.999   3.741   5.974  0.8937  0.1908  0.5678
23601SOL    HW272245   0.958   3.629   5.881  2.4977 -1.9785  2.3462
23602SOL     OW72246   0.893   1.709   8.735 -0.0567 -0.1323  0.1760
23602SOL    HW172247   0.831   1.645   8.769  0.8626 -0.5253  1.1540
23602SOL    HW272248   0.840   1.766   8.678 -1.0361 -1.2483 -0.0592
23603SOL     OW72249   1.659   4.444  10.735 -0.1737  0.0765  0.0911
23603SOL    HW172250   1.659   4.427  10.829  1.2607 -1.1028 -0.0959
23603SOL    HW272251   1.625   4.363  10.696 -0.3274  0.3939 -0.4447
23604SOL     OW72252   1.880   0.396  11.164 -0.1367  0.3401 -0.2507
23604SOL    HW172253   1.836   0.477  11.189 -0.5359  0.1853 -0.4507
23604SOL    HW272254   1.939   0.377  11.237  0.4061  1.1358 -0.4697
23605SOL     OW72255   7.260   5.257   1.885  0.8502  0.4665 -0.3749
23605SOL    HW172256   7.256   5.185   1.822  3.5221 -0.5556  0.4931
23605SOL    HW272257   7.218   5.223   1.964 -1.9869  1.5485 -1.3272
23606SOL     OW72258   6.909   7.892  11.424 -0.5998 -0.1562  0.1534
23606SOL    HW172259   6.908   7.901  11.519  0.8888  0.6344  0.1313
23606SOL    HW272260   6.990   7.843  11.406 -0.0694  1.0034 -0.7691
23607SOL     OW72261   6.345   7.080   6.874  0.3452 -0.0013 -0.3435
23607SOL    HW172262   6.335   7.175   6.879  0.3905  0.0127 -0.5191
23607SOL    HW272263   6.439   7.065   6.886  0.3290 -0.0299 -0.2471
23608SOL     OW72264   0.502   7.370   6.111  0.2647  0.4223  0.1578
23608SOL    HW172265   0.534   7.281   6.101  0.6029  0.5600 -0.0379
23608SOL    HW272266   0.442   7.383   6.038  0.3834  0.4248  0.0607
23609SOL     OW72267   4.345   6.530   1.300 -0.1755  0.0632  0.5035
23609SOL    HW172268   4.312   6.571   1.380 -1.4608 -0.7326  0.4053
23609SOL    HW272269   4.316   6.588   1.230  0.6611  0.5847  0.5847
23610SOL     OW72270   6.320   2.375  11.005  0.0965  0.0679  0.5066
23610SOL    HW172271   6.339   2.282  10.989  0.0617  0.1308  0.0927
23610SOL    HW272272   6.367   2.421  10.937 -0.2514  0.3284  0.4402
23611SOL     OW72273   2.132   1.878   8.001 -0.1663 -0.3084  0.4932
23611SOL    HW172274   2.204   1.853   8.059  0.2529 -3.1421 -1.0750
23611SOL    HW272275   2.153   1.966   7.972  2.2810 -0.7639  0.7055
23612SOL     OW72276   7.224   5.007  11.287  0.5061  0.3912  0.5835
23612SOL    HW172277   7.153   4.996  11.224  0.7842  0.8500  0.1862
23612SOL    HW272278   7.231   5.102  11.300  0.9190  0.3393  0.7645
23613SOL     OW72279   1.735   5.401   5.026 -0.3451  0.0786 -0.1929
23613SOL    HW172280   1.786   5.449   5.091 -0.2803 -0.4236  0.1307
23613SOL    HW272281   1.684   5.339   5.077  0.9770 -1.5209 -0.7196
23614SOL     OW72282   6.186   3.467   0.631  0.5220  0.1353  0.3856
23614SOL    HW172283   6.263   3.464   0.574 -0.9909  2.2473 -1.9161
23614SOL    HW272284   6.197   3.548   0.681 -0.3928  0.6579 -0.2533
23615SOL     OW72285   0.730   3.434   2.783  0.5173  0.4137  0.0582
23615SOL    HW172286   0.823   3.445   2.767  0.3470  0.0902 -1.2545
23615SOL    HW272287   0.692   3.420   2.697 -0.6047 -0.5091  0.6652
23616SOL     OW72288   3.567   6.837   0.454  0.8787 -0.3471 -0.0521
23616SOL    HW172289   3.511   6.821   0.530  2.2161 -1.8063  0.6788
23616SOL    HW272290   3.582   6.750   0.417  1.1065  0.2360 -1.3879
23617SOL     OW72291   7.907   7.309   0.185  0.2072  0.2001  0.1092
23617SOL    HW172292   7.996   7.343   0.175  0.3644 -0.0193  0.6916
23617SOL    HW272293   7.917   7.214   0.184 -0.1732  0.1629 -1.0286
23618SOL     OW72294   3.533   1.717  10.438  0.0415 -0.5837 -0.1466
23618SOL    HW172295   3.625   1.730  10.463  0.2489 -0.7443 -0.8056
23618SOL    HW272296   3.499   1.806  10.426  0.4470 -0.5474 -1.0776
23619SOL     OW72297   0.224   5.604   8.325  0.0744 -0.2637 -0.7477
23619SOL    HW172298   0.218   5.686   8.275  1.3463  0.1587 -0.2337
23619SOL    HW272299   0.242   5.537   8.258 -0.6315 -0.0859 -1.1287
23620SOL     OW72300   7.696   2.748   3.659 -0.4502 -0.2142 -0.1118
23620SOL    HW172301   7.703   2.763   3.753 -2.3776 -0.4853  0.0986
23620SOL    HW272302   7.690   2.836   3.621  0.7967 -0.0833 -0.0623
23621SOL     OW72303   4.905   6.484   0.763 -0.3955 -0.3218 -0.1850
23621SOL    HW172304   4.935   6.522   0.846  0.8157 -0.5440 -0.4923
23621SOL    HW272305   4.811   6.501   0.761 -0.5629 -0.9163  1.5354
23622SOL     OW72306   1.844   6.976  11.534  0.4556  0.1663 -0.6531
23622SOL    HW172307   1.777   6.977  11.466 -1.3964  1.4031  1.0395
23622SOL    HW272308   1.878   7.066  11.536  1.0659 -0.0647 -0.4936
23623SOL     OW72309   7.352   0.415   4.764 -0.5202 -0.2377 -0.1701
23623SOL    HW172310   7.435   0.448   4.732 -0.6487  0.2751  0.0151
23623SOL    HW272311   7.298   0.404   4.686  0.0828 -1.6633 -0.4252
23624SOL     OW72312   3.745   5.510   2.891  0.5748  0.3540  0.1000
23624SOL    HW172313   3.722   5.417   2.893  0.5386  0.3363 -0.8490
23624SOL    HW272314   3.832   5.514   2.930  0.0537  0.0956  1.3466
23625SOL     OW72315   0.451   0.531   4.880 -1.0236  0.2106  0.1274
23625SOL    HW172316   0.423   0.440   4.893  0.0721 -0.2055 -0.2745
23625SOL    HW272317   0.465   0.538   4.785 -0.2500  0.5287  0.2545
23626SOL     OW72318   1.715   7.887   8.571 -0.0750 -0.0660 -0.1621
23626SOL    HW172319   1.662   7.880   8.491 -0.4193 -0.1833  0.0778
23626SOL    HW272320   1.671   7.954   8.623  1.1075  1.2699 -0.8115
23627SOL     OW72321   3.920   1.781   1.353 -0.0486 -0.6396 -0.1196
23627SOL    HW172322   3.839   1.758   1.397 -0.5028 -1.1816 -1.1981
23627SOL    HW272323   3.920   1.729   1.273  1.2251 -0.4291 -0.2851
23628SOL     OW72324   6.579   5.811   9.654 -0.6758  0.3692 -0.0101
23628SOL    HW172325   6.602   5.902   9.631 -0.1487  0.7514  1.8509
23628SOL    HW272326   6.591   5.807   9.749 -1.9064 -1.3259  0.1077
23629SOL     OW72327   4.822   5.703   3.088 -0.1701  0.1641  0.2738
23629SOL    HW172328   4.766   5.763   3.039 -0.7893 -0.0900  0.6530
23629SOL    HW272329   4.838   5.748   3.171  1.8997  1.1484 -0.5927
23630SOL     OW72330   6.257   3.234   0.094 -0.6741  0.1436  0.0417
23630SOL    HW172331   6.334   3.205   0.144 -0.4934  1.1601  0.3882
23630SOL    HW272332   6.183   3.191   0.136 -0.3119 -0.7317 -0.2002
23631SOL     OW72333   0.348   0.387  12.163 -0.7403 -0.1518 -0.0619
23631SOL    HW172334   0.297   0.306  12.168 -0.4555 -0.2616  1.5824
23631SOL    HW272335   0.403   0.385  12.242  0.6572  0.7260 -0.9830
23632SOL     OW72336   6.355   4.462   8.760  0.2226  0.2600 -0.5264
23632SOL    HW172337   6.340   4.497   8.672 -2.0893 -0.8684 -0.6466
23632SOL    HW272338   6.396   4.535   8.808 -0.6052  1.6811 -1.8925
23633SOL     OW72339   3.094   7.924   7.240 -0.4223  0.1147 -0.0101
23633SOL    HW172340   3.070   8.016   7.225  1.1134  0.3613 -1.1851
23633SOL    HW272341   3.188   7.921   7.226 -0.4974 -1.7202 -0.3408
23634SOL     OW72342   3.631   7.265   9.182  0.3426  0.4320  0.4084
23634SOL    HW172343   3.606   7.178   9.152  0.2535  0.8667 -0.8671
23634SOL    HW272344   3.566   7.323   9.143  0.2558  1.0471  1.4465
23635SOL     OW72345   6.625   3.446   4.516  0.9408  0.7798 -0.3770
23635SOL    HW172346   6.631   3.413   4.426  0.4528 -0.3192 -0.0170
23635SOL    HW272347   6.593   3.372   4.567 -1.3174  2.1156  0.2679
23636SOL     OW72348   3.771   3.198   1.100 -0.3298 -0.2459  0.0257
23636SOL    HW172349   3.742   3.162   1.016 -0.2126  0.3998 -0.3041
23636SOL    HW272350   3.711   3.271   1.116  0.3793  0.3791 -0.0941
23637SOL     OW72351   6.921   3.153   8.517  0.3515 -0.3310 -0.5338
23637SOL    HW172352   6.867   3.214   8.468  1.5313  0.5361 -0.8112
23637SOL    HW272353   6.994   3.206   8.549  1.6589 -1.6615 -1.1590
23638SOL     OW72354   3.629   2.713   3.979  0.3185 -0.1765  0.0840
23638SOL    HW172355   3.638   2.784   4.043  0.6246 -1.6748  1.8124
23638SOL    HW272356   3.608   2.756   3.897 -1.1663  1.7995  1.4150
23639SOL     OW72357   7.637   6.888   1.763  0.8071 -0.1722  0.3661
23639SOL    HW172358   7.602   6.963   1.812 -0.8712  1.0284 -2.4142
23639SOL    HW272359   7.731   6.889   1.781  0.8028  2.4594  0.6407
23640SOL     OW72360   0.555   5.898   9.775 -0.2233 -0.0611  0.5986
23640SOL    HW172361   0.601   5.881   9.692 -0.2019 -2.0881  0.9709
23640SOL    HW272362   0.509   5.980   9.760  0.1597 -0.1374 -1.2722
23641SOL     OW72363   6.594   2.671   4.500  0.1455 -0.0938 -0.4432
23641SOL    HW172364   6.574   2.751   4.548  1.0787  0.4148 -0.8726
23641SOL    HW272365   6.512   2.646   4.458 -0.3129  0.2628  0.2287
23642SOL     OW72366   2.049   0.126   7.680 -0.2007  0.1152  0.1480
23642SOL    HW172367   2.109   0.189   7.719  1.1951  0.1371 -1.9299
23642SOL    HW272368   2.075   0.042   7.718 -0.5058  0.4257  1.0929
23643SOL     OW72369   2.321   2.163   0.622 -0.3189  0.1092  0.1281
23643SOL    HW172370   2.353   2.244   0.582  1.9401 -0.8212 -0.0672
23643SOL    HW272371   2.387   2.097   0.601 -1.9194 -1.7418  0.5659
23644SOL     OW72372   6.842   0.152   0.886 -0.1314  0.0385  0.2243
23644SOL    HW172373   6.916   0.095   0.903 -1.6780 -2.1153  0.1181
23644SOL    HW272374   6.843   0.164   0.791 -1.2147 -1.9536 -0.0884
23645SOL     OW72375   7.854   3.129  11.252  0.0811 -0.4922  0.3613
23645SOL    HW172376   7.776   3.165  11.293  0.2175 -0.3831  0.5244
23645SOL    HW272377   7.836   3.035  11.245 -0.5345 -0.3209 -0.6382
23646SOL     OW72378   7.403   5.748   1.210 -0.1894  0.7525 -0.4814
23646SOL    HW172379   7.391   5.732   1.116  1.3818 -2.4328 -0.2610
23646SOL    HW272380   7.495   5.773   1.219  0.8537 -2.8546  0.4516
23647SOL     OW72381   0.234   0.579  10.341 -0.3225  0.0612 -0.6238
23647SOL    HW172382   0.306   0.519  10.322 -0.6997 -0.3410 -0.8053
23647SOL    HW272383   0.161   0.522  10.365 -0.8580  0.4159 -1.3616
23648SOL     OW72384   1.829   1.437   9.863  0.1491  0.5252 -0.0545
23648SOL    HW172385   1.883   1.368   9.899 -0.5672  0.3473  0.6999
23648SOL    HW272386   1.852   1.440   9.770  0.3499 -0.5733 -0.0493
23649SOL     OW72387   3.321   6.044   1.627 -0.1343 -0.0165  0.3992
23649SOL    HW172388   3.363   6.044   1.713  1.2544 -1.4818 -0.2346
23649SOL    HW272389   3.338   6.132   1.592  2.1110 -0.4052  0.3554
23650SOL     OW72390   0.745   7.223   2.492 -0.1084  0.2367 -0.1459
23650SOL    HW172391   0.706   7.310   2.485 -1.0537  0.0052  1.5918
23650SOL    HW272392   0.679   7.171   2.538 -0.3744 -1.9525 -2.7258
23651SOL     OW72393   2.045   5.223   4.171 -0.5153  0.2245  0.0784
23651SOL    HW172394   2.005   5.176   4.243 -1.6185  0.1832 -0.5365
23651SOL    HW272395   1.978   5.286   4.143 -0.3840 -0.2218 -1.3318
23652SOL     OW72396   7.287   3.968  12.121 -0.2718 -0.2927 -0.5638
23652SOL    HW172397   7.369   3.965  12.073 -0.5163  0.2086 -1.0207
23652SOL    HW272398   7.312   3.996  12.209  0.0072  0.2391 -0.8067
23653SOL     OW72399   4.821   5.099   0.806  0.0344  0.9601  0.6212
23653SOL    HW172400   4.741   5.081   0.856 -0.6268  0.5758 -0.5187
23653SOL    HW272401   4.790   5.148   0.730  0.7982  0.2572 -0.1539
23654SOL     OW72402   0.921   2.032   4.344  0.1895 -0.1466  0.0573
23654SOL    HW172403   0.868   1.953   4.356 -3.0314  1.5795 -1.4125
23654SOL    HW272404   0.950   2.029   4.253  1.3533 -0.3249  0.4211
23655SOL     OW72405   5.704   5.582  12.046 -0.4126 -0.0009 -0.1684
23655SOL    HW172406   5.782   5.633  12.027  0.4800 -1.2106  0.0845
23655SOL    HW272407   5.646   5.643  12.091 -0.1693  1.2753 -1.5102
23656SOL     OW72408   0.619   0.143   8.617 -0.2213 -0.4827 -0.7038
23656SOL    HW172409   0.573   0.193   8.551  2.1346  2.1086 -0.5835
23656SOL    HW272410   0.571   0.061   8.624 -2.4678  0.5004 -3.1953
23657SOL     OW72411   1.908   3.799   7.556  0.1896 -0.3342  0.1711
23657SOL    HW172412   1.909   3.711   7.520 -2.4489 -0.1573 -0.5901
23657SOL    HW272413   1.890   3.787   7.649 -0.3548 -0.6147  0.0333
23658SOL     OW72414   4.542   0.709   4.689 -0.3519 -0.1219  0.0087
23658SOL    HW172415   4.461   0.712   4.638 -0.9642 -0.1687  0.9756
23658SOL    HW272416   4.597   0.778   4.650  0.0310 -1.5053 -2.0886
23659SOL     OW72417   6.903   6.484   2.872 -0.6062 -0.4918 -0.2706
23659SOL    HW172418   6.831   6.547   2.860  0.2689  0.4415 -0.8144
23659SOL    HW272419   6.975   6.537   2.907  0.0793 -1.2422 -0.5149
23660SOL     OW72420   0.069   5.568   2.090  0.4323  0.1241 -0.2458
23660SOL    HW172421   0.093   5.477   2.071 -1.5649 -0.2539 -1.3786
23660SOL    HW272422   0.105   5.618   2.017  0.7107  0.0825 -0.1351
23661SOL     OW72423   0.088   2.310   4.793 -0.0815 -0.1358  0.7386
23661SOL    HW172424   0.143   2.380   4.759  0.0676 -0.2193  0.8032
23661SOL    HW272425   0.002   2.349   4.803  0.1122  0.1744  1.2305
23662SOL     OW72426   1.590   5.458  11.023 -0.3946 -0.7049 -0.2518
23662SOL    HW172427   1.638   5.541  11.032 -1.4747  0.1662 -1.9310
23662SOL    HW272428   1.588   5.442  10.929 -2.5517 -1.1954 -0.1680
23663SOL     OW72429   3.290   1.361   8.311 -0.2646  0.4558  0.0611
23663SOL    HW172430   3.258   1.393   8.226 -0.1351  1.2247  0.2945
23663SOL    HW272431   3.244   1.279   8.324 -0.2368  0.2936 -0.7883
23664SOL     OW72432   6.588   0.017  11.774  0.1218  0.2679 -0.1681
23664SOL    HW172433   6.531  -0.026  11.838  0.8526 -0.5373 -0.0304
23664SOL    HW272434   6.643   0.075  11.826 -0.1587  0.5940 -0.2308
23665SOL     OW72435   0.773   1.085   0.552 -0.2670 -0.1306  0.3640
23665SOL    HW172436   0.712   1.012   0.555  1.5229 -1.6575  1.8789
23665SOL    HW272437   0.717   1.163   0.556 -2.1572 -1.3967  0.0529
23666SOL     OW72438   3.049   5.598   2.432  0.1175  0.0956 -0.0189
23666SOL    HW172439   2.974   5.656   2.419 -0.0367 -0.3017 -0.9724
23666SOL    HW272440   3.125   5.649   2.403 -0.0476 -0.2540 -1.0919
23667SOL     OW72441   5.364   4.737   5.551  0.1146  0.5323  0.3743
23667SOL    HW172442   5.289   4.701   5.503  1.0186  1.7389 -2.1031
23667SOL    HW272443   5.363   4.690   5.635 -2.1160 -1.0207 -0.4191
23668SOL     OW72444   4.658   5.862   2.932 -0.0034 -0.1619 -0.0236
23668SOL    HW172445   4.625   5.839   2.845 -0.4225  1.2419 -0.2538
23668SOL    HW272446   4.582   5.854   2.990 -0.0066  0.0740  0.0038
23669SOL     OW72447   2.527   7.985   2.437 -0.0285  0.0274 -0.0235
23669SOL    HW172448   2.516   8.052   2.370 -0.2653 -1.1238 -1.1614
23669SOL    HW272449   2.564   8.032   2.512 -0.7109  1.5213 -0.5942
23670SOL     OW72450   0.599   1.406   7.691 -0.2312  0.0465 -0.2732
23670SOL    HW172451   0.644   1.360   7.762 -0.0564  1.1423  0.3500
23670SOL    HW272452   0.604   1.346   7.616 -1.0788 -1.4666  0.8171
23671SOL     OW72453   5.755   1.345   5.936 -0.1471 -0.5658 -0.1795
23671SOL    HW172454   5.671   1.346   5.982 -0.1088  0.1465 -0.1220
23671SOL    HW272455   5.748   1.270   5.876 -1.0611 -0.1405 -0.6256
23672SOL     OW72456   2.747   0.070  10.521 -0.8325  0.8764  0.0237
23672SOL    HW172457   2.702  -0.005  10.481  0.0078  0.7942 -0.7972
23672SOL    HW272458   2.778   0.122  10.447 -0.7299  1.6314  0.5851
23673SOL     OW72459   7.969   1.751   2.006  0.2308  0.6992  0.1518
23673SOL    HW172460   8.046   1.706   1.970 -1.0224 -1.3441 -0.1267
23673SOL    HW272461   7.976   1.737   2.100 -0.1180 -0.0739  0.0723
23674SOL     OW72462   1.161   6.712  10.113 -0.2792 -0.1289 -0.3558
23674SOL    HW172463   1.090   6.679  10.167 -1.4151 -0.6174 -2.0581
23674SOL    HW272464   1.136   6.690  10.024  1.9450 -0.1573 -1.0408
23675SOL     OW72465   7.294   1.455   1.280  0.1195  0.2508 -0.0125
23675SOL    HW172466   7.383   1.423   1.262 -0.8535 -1.7978 -1.6671
23675SOL    HW272467   7.296   1.547   1.253  1.3311 -0.1900 -1.6146
23676SOL     OW72468   1.400   7.594   6.636 -0.3583  0.1372 -0.7843
23676SOL    HW172469   1.320   7.570   6.683  0.3148 -0.9531 -0.1741
23676SOL    HW272470   1.392   7.689   6.623 -2.6705 -0.1883 -2.4965
23677SOL     OW72471   7.463   3.398   8.156 -0.0966  0.3197 -0.0826
23677SOL    HW172472   7.416   3.320   8.124  1.4137 -0.1965 -1.1338
23677SOL    HW272473   7.499   3.438   8.077  0.9223  0.9073  0.6635
23678SOL     OW72474   0.396   5.252   2.835 -0.1204 -0.2568  0.1209
23678SOL    HW172475   0.469   5.312   2.846 -0.8370  0.6783 -0.1058
23678SOL    HW272476   0.431   5.167   2.862  1.5360 -0.1772 -1.5601
23679SOL     OW72477   3.680   6.786   9.456 -0.0665  0.4108  0.4017
23679SOL    HW172478   3.589   6.786   9.426 -0.6084  0.3569  1.9525
23679SOL    HW272479   3.714   6.871   9.427 -0.1353 -0.1538 -1.4664
23680SOL     OW72480   2.277   7.912  11.321 -0.0854  0.0786 -0.1456
23680SOL    HW172481   2.194   7.868  11.305 -0.7125  0.9462  0.5805
23680SOL    HW272482   2.332   7.846  11.362 -0.0001 -0.8357 -1.6694
23681SOL     OW72483   6.602   5.821   2.520  0.1134 -0.0045  0.1899
23681SOL    HW172484   6.628   5.735   2.554  0.1071 -0.2030 -0.3012
23681SOL    HW272485   6.646   5.826   2.435  3.3388  2.0562  1.7602
23682SOL     OW72486   6.528   3.093   2.073  0.4122  0.2397 -0.8982
23682SOL    HW172487   6.583   3.124   2.000  2.2001  0.4366  0.4763
23682SOL    HW272488   6.583   3.102   2.150 -0.8001 -1.6599  0.2642
23683SOL     OW72489   5.907   7.851   7.402  0.4270 -0.1789 -0.0672
23683SOL    HW172490   5.941   7.801   7.477  1.6903  0.3531 -0.2493
23683SOL    HW272491   5.843   7.911   7.439  1.2961  0.3215  0.6630
23684SOL     OW72492   7.376   7.578   3.376 -0.1331 -0.3503  0.0411
23684SOL    HW172493   7.281   7.587   3.370 -0.1079  0.1208  0.2691
23684SOL    HW272494   7.403   7.552   3.288 -0.4710 -0.4888 -0.0257
23685SOL     OW72495   7.468   2.246   4.379 -0.0362 -0.1034 -0.0671
23685SOL    HW172496   7.537   2.257   4.444 -0.4318  1.5772  0.1106
23685SOL    HW272497   7.467   2.152   4.361  1.1723 -0.3804  1.1413
23686SOL     OW72498   6.642   2.877   7.866  0.1315 -0.2772 -0.0559
23686SOL    HW172499   6.572   2.835   7.916 -0.7014 -0.0124 -0.9537
23686SOL    HW272500   6.609   2.879   7.776  0.8273  0.8687 -0.3100
23687SOL     OW72501   4.363   3.014   5.331  0.7224 -0.4569  0.2270
23687SOL    HW172502   4.417   3.038   5.406  0.4260  0.9693  0.0208
23687SOL    HW272503   4.425   2.983   5.265  1.1442 -0.2043  0.5026
23688SOL     OW72504   2.818   2.815   0.354  0.3092  0.2025 -0.7980
23688SOL    HW172505   2.896   2.770   0.321  0.4421  1.8375 -2.9159
23688SOL    HW272506   2.846   2.858   0.434  1.0509 -0.7867 -0.5160
23689SOL     OW72507   7.417   7.760   9.959  0.5511  1.1150 -0.6954
23689SOL    HW172508   7.438   7.763   9.865 -2.2784  1.6912 -1.4154
23689SOL    HW272509   7.418   7.667   9.981 -0.8916  0.7838 -1.8909
23690SOL     OW72510   6.471   4.342   3.524 -0.1174 -0.4137 -0.5785
23690SOL    HW172511   6.492   4.250   3.510  1.1455 -0.4712  1.3421
23690SOL    HW272512   6.552   4.380   3.557 -0.9425  1.1501 -0.2594
23691SOL     OW72513   5.955   0.921   5.102 -1.0379  0.5391 -0.0614
23691SOL    HW172514   5.933   0.914   5.009 -1.8391 -1.1971  0.2201
23691SOL    HW272515   5.939   1.012   5.124  0.3827  1.3006 -1.9125
23692SOL     OW72516   2.405   6.935   8.005 -0.0066 -0.0546  0.2256
23692SOL    HW172517   2.495   6.968   8.007  0.1220 -0.4129  1.5623
23692SOL    HW272518   2.369   6.958   8.091 -0.1142 -2.7762  1.0032
23693SOL     OW72519   6.774   6.129   3.167  0.2975 -0.4747  0.2294
23693SOL    HW172520   6.755   6.155   3.077  1.9838  0.1060 -0.0056
23693SOL    HW272521   6.740   6.201   3.220  2.7296  1.2023 -0.2605
23694SOL     OW72522   5.019   2.333  10.561 -0.7331  0.1617  0.2007
23694SOL    HW172523   5.016   2.285  10.478  2.3150 -0.2892  0.2101
23694SOL    HW272524   5.031   2.266  10.628 -0.0882  0.6925  0.6314
23695SOL     OW72525   6.020   6.104   6.643 -0.2708 -0.3537 -0.4165
23695SOL    HW172526   6.055   6.177   6.694 -0.0350  0.0150 -1.0962
23695SOL    HW272527   6.037   6.128   6.552  0.6963 -1.6884 -0.6214
23696SOL     OW72528   1.474   0.598   6.145  0.0918  0.2662 -0.6808
23696SOL    HW172529   1.392   0.549   6.153  0.3729 -0.0300  0.6473
23696SOL    HW272530   1.477   0.626   6.054 -1.9158  1.0306 -0.5568
23697SOL     OW72531   7.627   6.862  11.553  0.0162 -0.1111  0.0908
23697SOL    HW172532   7.641   6.896  11.465  1.6396 -0.3530  0.2205
23697SOL    HW272533   7.668   6.775  11.552  0.3653  0.0227  1.1694
23698SOL     OW72534   2.789   4.287   5.287  0.3073 -0.1344 -0.3148
23698SOL    HW172535   2.857   4.238   5.332  0.3246 -0.7352 -0.9754
23698SOL    HW272536   2.830   4.371   5.266  1.1742 -0.8088 -1.4875
23699SOL     OW72537   5.233   2.862   9.543 -0.1816  0.0495  0.1750
23699SOL    HW172538   5.247   2.797   9.612  1.9584 -1.4488 -1.4978
23699SOL    HW272539   5.179   2.816   9.478  0.4027  0.3222 -0.5140
23700SOL     OW72540   1.282   3.636  10.798 -0.2522  0.3780  0.4999
23700SOL    HW172541   1.289   3.583  10.878 -0.0442 -0.1063  0.1659
23700SOL    HW272542   1.197   3.678  10.804  0.5635  1.9660  1.9724
23701SOL     OW72543   1.520   1.894   4.497  0.4963  0.2970 -0.1027
23701SOL    HW172544   1.615   1.881   4.495  0.5696  0.3679  1.3710
23701SOL    HW272545   1.509   1.988   4.487  0.4714  0.1232 -1.9100
23702SOL     OW72546   0.263   3.479   7.292  0.0871  0.0306 -0.0851
23702SOL    HW172547   0.332   3.532   7.331 -1.3051  1.1088  0.9919
23702SOL    HW272548   0.257   3.509   7.202  0.6414  0.3129 -0.0282
23703SOL     OW72549   3.996   3.404  10.316 -0.1996  0.1649  0.0361
23703SOL    HW172550   3.968   3.476  10.261  1.0048  1.2415  0.7628
23703SOL    HW272551   4.006   3.329  10.256  0.1889  1.0561 -1.0400
23704SOL     OW72552   0.124   7.887   6.900 -0.4920 -0.6398  0.5792
23704SOL    HW172553   0.089   7.866   6.814  1.4516 -0.9956 -0.1662
23704SOL    HW272554   0.049   7.876   6.960 -2.4366  1.5878 -1.2418
23705SOL     OW72555   5.619   3.715   7.034  0.3444  0.0177  0.3355
23705SOL    HW172556   5.568   3.667   7.100  0.0858  0.2391  0.2985
23705SOL    HW272557   5.569   3.795   7.018  0.3742 -0.0566 -0.1697
23706SOL     OW72558   7.262   4.478   6.377 -0.1069  0.0855 -0.1414
23706SOL    HW172559   7.283   4.562   6.335 -1.9480 -0.0419 -1.4313
23706SOL    HW272560   7.339   4.459   6.431  1.0798  1.7584 -1.1289
23707SOL     OW72561   4.137   1.803   2.023  0.3544 -0.3458 -0.0076
23707SOL    HW172562   4.096   1.846   1.948 -1.7776 -0.2348  1.1276
23707SOL    HW272563   4.074   1.736   2.049  1.8749 -1.6044  0.5978
23708SOL     OW72564   1.552   6.804   6.450 -0.2396 -0.4436  0.3391
23708SOL    HW172565   1.486   6.740   6.476  0.2984 -0.9770  0.4207
23708SOL    HW272566   1.611   6.809   6.526 -1.1044  1.2728  0.9410
23709SOL     OW72567   7.485   3.213  11.887  0.2412 -0.2602 -0.4104
23709SOL    HW172568   7.517   3.190  11.975 -0.4374  1.1213  0.2272
23709SOL    HW272569   7.449   3.301  11.897 -0.5542 -0.3861 -1.9094
23710SOL     OW72570   4.734   1.015   8.810  0.1635  0.4078  0.2683
23710SOL    HW172571   4.689   0.931   8.814  0.6352  0.1897  1.8205
23710SOL    HW272572   4.811   1.000   8.755 -0.9021  0.4299 -1.2716
23711SOL     OW72573   2.399   3.270  12.229  0.0054  0.3717 -1.0261
23711SOL    HW172574   2.478   3.229  12.265 -0.0361  2.1032  1.3097
23711SOL    HW272575   2.327   3.227  12.276 -0.3910 -0.2840 -2.1938
23712SOL     OW72576   0.449   0.587   3.450 -0.6638 -0.7297  0.1827
23712SOL    HW172577   0.538   0.580   3.485 -0.1609 -0.5133 -1.0252
23712SOL    HW272578   0.420   0.496   3.440 -0.5990 -0.7998  0.6075
23713SOL     OW72579   6.424   4.077   1.084 -0.7386 -0.5599  0.3493
23713SOL    HW172580   6.411   3.982   1.089 -1.2373 -0.4526  1.3958
23713SOL    HW272581   6.343   4.110   1.045 -0.3739 -0.5927 -0.4631
23714SOL     OW72582   2.567   4.417   2.022 -0.4288  0.4402  0.4960
23714SOL    HW172583   2.529   4.387   2.105 -2.1247 -1.0820 -0.7315
23714SOL    HW272584   2.639   4.356   2.005  1.8580  2.4813  2.1388
23715SOL     OW72585   1.811   3.670   2.888  0.1372 -0.1924  0.1059
23715SOL    HW172586   1.797   3.649   2.980  2.4839  1.0663  0.8228
23715SOL    HW272587   1.904   3.655   2.874  0.1211  1.0616 -1.6548
23716SOL     OW72588   0.232   3.008   3.841 -0.5354  0.1380 -0.0056
23716SOL    HW172589   0.226   3.103   3.829  0.2531  0.1782 -0.1440
23716SOL    HW272590   0.146   2.983   3.876 -1.7441  0.5209 -2.4513
23717SOL     OW72591   2.337   3.589  11.083 -0.0180 -0.5965  0.6546
23717SOL    HW172592   2.411   3.532  11.103  1.6810  2.0056  2.5684
23717SOL    HW272593   2.309   3.622  11.169  0.0044  2.3910 -0.3755
23718SOL     OW72594   2.645   6.944   6.683 -0.1178 -0.5356 -0.4714
23718SOL    HW172595   2.677   6.998   6.755  0.2842 -0.3331 -0.7948
23718SOL    HW272596   2.558   6.916   6.710 -0.3183  0.2508 -0.2919
23719SOL     OW72597   3.056   7.729   4.850  0.3518 -0.1095 -0.1092
23719SOL    HW172598   3.123   7.727   4.918  0.1591  0.5130  0.1070
23719SOL    HW272599   2.974   7.742   4.898  0.0336 -1.1084 -0.3488
23720SOL     OW72600   5.307   2.221   9.153  0.1572 -0.4512 -0.1902
23720SOL    HW172601   5.223   2.186   9.182 -0.2355  1.2389  0.7962
23720SOL    HW272602   5.372   2.165   9.196 -0.4413 -0.8390  0.2276
23721SOL     OW72603   2.198   1.020   5.989 -0.2302 -0.2604 -0.0547
23721SOL    HW172604   2.117   1.045   5.944  0.4689  1.4100 -0.4443
23721SOL    HW272605   2.233   1.102   6.024  1.3726 -0.9276 -0.0035
23722SOL     OW72606   2.321   5.921  11.901  0.7888  0.1460 -0.5043
23722SOL    HW172607   2.247   5.880  11.856 -0.9713  2.4829  0.0979
23722SOL    HW272608   2.371   5.847  11.936 -2.1116 -1.5775  0.3827
23723SOL     OW72609   0.377   4.328   5.383 -0.4711 -0.1536  0.4065
23723SOL    HW172610   0.302   4.302   5.435 -1.2878  0.3950 -0.4564
23723SOL    HW272611   0.420   4.396   5.434  0.2392 -1.3973  1.5209
23724SOL     OW72612   7.248   7.084   0.060 -0.0537 -0.3139 -0.0761
23724SOL    HW172613   7.167   7.041   0.087  1.4399 -1.9990  2.0561
23724SOL    HW272614   7.275   7.037  -0.019 -0.6808 -0.3380 -0.2807
23725SOL     OW72615   1.766   2.436   0.407 -0.0228 -0.2626  0.1397
23725SOL    HW172616   1.845   2.401   0.447  1.0132  0.8306 -0.8789
23725SOL    HW272617   1.782   2.531   0.402 -1.1804 -0.0858 -0.5659
23726SOL     OW72618   6.628   2.759   5.454 -0.1135 -0.6298  0.0289
23726SOL    HW172619   6.542   2.728   5.483 -1.2890  0.9419 -1.5415
23726SOL    HW272620   6.632   2.850   5.482  0.7254 -0.4699 -0.5559
23727SOL     OW72621   4.773   5.390   7.800 -0.4086  0.2092 -0.1797
23727SOL    HW172622   4.810   5.412   7.715  0.9611 -0.8126  0.1232
23727SOL    HW272623   4.845   5.404   7.862 -1.0405 -0.1660  0.6557
23728SOL     OW72624   2.037   4.319   2.135 -0.7046  0.3713  0.0359
23728SOL    HW172625   2.035   4.409   2.169  0.3177  0.3224  0.2570
23728SOL    HW272626   2.097   4.324   2.060  1.3321 -0.5850  1.5078
23729SOL     OW72627   0.531   0.307   1.172  0.1756  0.3665 -0.3714
23729SOL    HW172628   0.610   0.352   1.203 -0.0570  1.1320 -0.8771
23729SOL    HW272629   0.497   0.363   1.102 -0.6048 -0.1588 -0.4232
23730SOL     OW72630   0.784   6.872   0.433  0.0458 -0.3518  0.4492
23730SOL    HW172631   0.797   6.879   0.528 -0.0965  3.5925  0.3502
23730SOL    HW272632   0.689   6.872   0.421  0.0632 -0.7742  0.2981
23731SOL     OW72633   2.598   5.769  10.127  0.4583  0.7174 -0.0305
23731SOL    HW172634   2.660   5.708  10.169 -1.1884  0.3295  2.0044
23731SOL    HW272635   2.608   5.850  10.176 -1.1456  0.4062  0.8958
23732SOL     OW72636   4.893   6.196   5.981  0.6333 -0.8334 -0.2806
23732SOL    HW172637   4.946   6.130   5.938  0.0478 -0.9331 -0.8652
23732SOL    HW272638   4.855   6.247   5.910  0.2331 -0.5419  0.1335
23733SOL     OW72639   2.248   4.319   5.715  0.2759  0.1270  0.1780
23733SOL    HW172640   2.274   4.264   5.789 -0.7449 -1.1726 -0.3869
23733SOL    HW272641   2.324   4.319   5.656  0.8039  0.5310  0.8512
23734SOL     OW72642   5.478   0.220   2.271  0.5576 -0.3794 -1.2184
23734SOL    HW172643   5.402   0.229   2.213 -0.0934 -0.3107 -0.3660
23734SOL    HW272644   5.554   0.224   2.212  0.0688  2.9324 -1.8026
23735SOL     OW72645   7.776   0.701   1.333 -0.3744 -0.2132 -0.5067
23735SOL    HW172646   7.686   0.697   1.300 -0.7806 -2.8608  0.6855
23735SOL    HW272647   7.767   0.733   1.423  0.1357  1.4093 -0.9964
23736SOL     OW72648   2.351   1.106   2.750 -0.4992  0.0924 -0.0403
23736SOL    HW172649   2.294   1.030   2.761 -0.2990 -0.2807 -1.3694
23736SOL    HW272650   2.389   1.094   2.663 -2.0659  2.7428 -1.2121
23737SOL     OW72651   7.228   5.243   7.961 -0.0281 -0.3744 -0.0482
23737SOL    HW172652   7.319   5.263   7.980 -0.2579 -0.3863  1.0988
23737SOL    HW272653   7.182   5.255   8.044 -0.6964 -2.5425 -0.0407
23738SOL     OW72654   4.464   0.374   9.568  0.0428 -0.0886 -0.0021
23738SOL    HW172655   4.429   0.462   9.584 -0.9038 -0.5752  0.7210
23738SOL    HW272656   4.558   0.383   9.580  0.2641  1.2862 -2.0586
23739SOL     OW72657   7.553   7.611   0.630 -0.0722  0.2404  0.6333
23739SOL    HW172658   7.552   7.518   0.606 -1.8421  0.4626 -0.3374
23739SOL    HW272659   7.613   7.651   0.566  1.0106 -0.2550  1.3016
23740SOL     OW72660   6.144   7.577   2.114 -0.0306 -0.6706  0.0333
23740SOL    HW172661   6.217   7.606   2.170  0.2497 -1.2730 -0.0215
23740SOL    HW272662   6.071   7.635   2.139  0.2022 -0.6666  0.7447
23741SOL     OW72663   7.188   2.301   8.152  0.0058 -0.2833  0.1997
23741SOL    HW172664   7.176   2.387   8.191  1.3775 -0.0394  0.1200
23741SOL    HW272665   7.101   2.278   8.118 -0.2797  1.2600 -0.1899
23742SOL     OW72666   7.032   4.913   9.482 -0.3548  0.0071  0.1682
23742SOL    HW172667   7.047   4.937   9.573 -2.1503  1.3091  0.1894
23742SOL    HW272668   6.993   4.991   9.443 -1.9374 -1.3202 -1.0716
23743SOL     OW72669   3.072   7.158   5.560 -1.1258 -0.6031 -0.5115
23743SOL    HW172670   3.011   7.219   5.603 -0.8368 -1.7600  1.7249
23743SOL    HW272671   3.053   7.166   5.467 -1.3927  2.5709 -0.3086
23744SOL     OW72672   1.056   7.120   8.792  0.6386 -0.6285  1.0844
23744SOL    HW172673   1.110   7.198   8.779  1.1862 -1.0711  0.6573
23744SOL    HW272674   0.991   7.147   8.857 -1.7662  1.4296 -1.9125
23745SOL     OW72675   5.193   6.262   0.138  0.2686  0.6767 -0.0867
23745SOL    HW172676   5.155   6.174   0.140  0.8396  0.4172  1.9221
23745SOL    HW272677   5.237   6.267   0.053  0.7158 -1.2116 -0.0087
23746SOL     OW72678   5.644   5.802  12.447  0.3141 -0.1336  0.3576
23746SOL    HW172679   5.596   5.735  12.496  1.1537  0.1194  1.5811
23746SOL    HW272680   5.712   5.831  12.508  0.9143  0.7474 -0.7083
23747SOL     OW72681   7.685   4.275   6.917  0.5816  0.0822  0.2578
23747SOL    HW172682   7.716   4.185   6.910  0.4487  0.0556 -0.0098
23747SOL    HW272683   7.754   4.327   6.875  1.2847  0.2415  1.5688
23748SOL     OW72684   0.893   1.478   8.384 -0.4418  0.0298  0.5696
23748SOL    HW172685   0.853   1.563   8.365  0.5753  0.9743  2.3350
23748SOL    HW272686   0.834   1.437   8.447 -0.7108 -0.4092  0.0438
23749SOL     OW72687   0.682   4.742   6.398 -0.1376  0.0965  0.5237
23749SOL    HW172688   0.731   4.689   6.461  1.5937 -0.7725 -1.4268
23749SOL    HW272689   0.679   4.687   6.319 -2.2984  1.0987 -0.1517
23750SOL     OW72690   5.121   5.715   9.526  0.2859  0.0756 -0.1674
23750SOL    HW172691   5.056   5.770   9.483 -0.6657 -1.4525 -0.7287
23750SOL    HW272692   5.194   5.711   9.464  0.4772  0.8754 -0.0135
23751SOL     OW72693   4.123   1.952  11.828  0.0041 -0.6305  0.1625
23751SOL    HW172694   4.099   1.895  11.755 -1.6302  0.1699  0.0394
23751SOL    HW272695   4.076   1.915  11.903 -1.6928  0.9181 -0.0688
23752SOL     OW72696   2.278   2.329   3.168  0.0582  0.5302 -0.3344
23752SOL    HW172697   2.192   2.371   3.172  0.3425  1.0800  0.1582
23752SOL    HW272698   2.284   2.295   3.079 -0.4340  1.0017 -0.5520
23753SOL     OW72699   4.947   0.953   6.216  0.4966 -0.3627 -0.6117
23753SOL    HW172700   4.856   0.926   6.204  0.8216 -0.7668 -2.4631
23753SOL    HW272701   4.943   1.020   6.284 -1.0812 -0.9166 -0.1068
23754SOL     OW72702   5.887   1.595  11.059  0.3825  0.4456 -0.8072
23754SOL    HW172703   5.837   1.587  10.978 -0.0922 -0.3568 -0.4456
23754SOL    HW272704   5.821   1.603  11.127  0.4614 -4.1528  0.1142
23755SOL     OW72705   4.112   1.756   0.580 -0.1399  0.8308 -0.3377
23755SOL    HW172706   4.175   1.808   0.630  0.6711  0.6798 -1.1670
23755SOL    HW272707   4.124   1.786   0.489 -0.7009  0.2241 -0.6205
23756SOL     OW72708   7.977   6.303   0.605 -0.4159 -0.4712 -0.2518
23756SOL    HW172709   7.944   6.225   0.649 -0.2660 -0.0195  0.6739
23756SOL    HW272710   8.038   6.270   0.539  0.0214 -1.1111  0.4635
23757SOL     OW72711   0.604   0.578   0.582  0.7808  0.2654 -0.5520
23757SOL    HW172712   0.608   0.602   0.674 -0.1313  0.3747 -0.5328
23757SOL    HW272713   0.537   0.510   0.577  2.6320 -1.7015 -0.7500
23758SOL     OW72714   2.651   4.516   3.855  0.2746 -0.1126  0.5018
23758SOL    HW172715   2.714   4.587   3.842  0.0371  0.0384  0.1661
23758SOL    HW272716   2.672   4.481   3.941  0.0216  0.7481  0.9300
23759SOL     OW72717   0.967   6.181   6.999 -0.1190 -0.2627  0.6630
23759SOL    HW172718   0.983   6.089   7.020 -0.1511 -1.3768 -3.3820
23759SOL    HW272719   0.876   6.183   6.968 -0.1698  1.1814  0.8626
23760SOL     OW72720   3.131   3.168   6.397  0.3870  0.0564  0.2888
23760SOL    HW172721   3.191   3.095   6.381  1.2341  0.9415 -0.7591
23760SOL    HW272722   3.100   3.155   6.486 -0.9188 -2.5772 -0.4535
23761SOL     OW72723   4.196   6.707   3.505  0.3494  0.0530 -0.0532
23761SOL    HW172724   4.111   6.695   3.548  0.6454 -1.1390  0.2328
23761SOL    HW272725   4.174   6.710   3.411  0.1360 -2.3849 -0.1507
23762SOL     OW72726   5.435   3.778   3.066  0.6576 -0.0519 -0.0343
23762SOL    HW172727   5.507   3.715   3.069  0.7727  0.0580 -0.4188
23762SOL    HW272728   5.436   3.820   3.152  0.2482 -0.9406  0.4236
23763SOL     OW72729   4.551   4.464   6.280 -0.0594 -0.3947  0.4163
23763SOL    HW172730   4.576   4.508   6.361  0.1654 -0.3741  0.3354
23763SOL    HW272731   4.621   4.485   6.218 -0.4008 -0.1235  0.1143
23764SOL     OW72732   7.501   5.515   8.593  0.7186 -0.1697  0.4097
23764SOL    HW172733   7.526   5.581   8.658  0.0211  0.0619  0.4492
23764SOL    HW272734   7.559   5.441   8.610  0.6906 -0.0286  1.1574
23765SOL     OW72735   3.858   3.003   7.714  0.4715  0.1804  0.2994
23765SOL    HW172736   3.821   3.026   7.799 -0.5404 -0.6423  0.0962
23765SOL    HW272737   3.951   2.988   7.732  0.4497  0.8859  1.0857
23766SOL     OW72738   7.161   2.029   6.930  0.4464 -0.3414 -0.3422
23766SOL    HW172739   7.070   2.055   6.915  0.5521 -0.0843 -0.5391
23766SOL    HW272740   7.207   2.053   6.850  1.3454  2.5500  0.8879
23767SOL     OW72741   4.478   2.225   2.245  0.0566 -0.3562  0.0586
23767SOL    HW172742   4.491   2.147   2.299  2.4511  0.3902  0.6606
23767SOL    HW272743   4.523   2.295   2.293 -2.8734  1.7027  0.0654
23768SOL     OW72744   1.643   6.974  11.372 -0.0181 -0.3464  0.2053
23768SOL    HW172745   1.561   6.961  11.419 -0.5599  1.4663 -0.1615
23768SOL    HW272746   1.619   6.969  11.280  0.2230  0.4371  0.0942
23769SOL     OW72747   7.806   3.609   3.504  0.3918  0.8778 -0.5133
23769SOL    HW172748   7.812   3.526   3.551 -0.0436  2.0669  1.7920
23769SOL    HW272749   7.864   3.668   3.552 -1.7153  2.7414 -0.0751
23770SOL     OW72750   5.169   0.510   2.573 -0.2234  0.7851  0.0287
23770SOL    HW172751   5.225   0.575   2.616  2.0962 -0.8531 -0.3516
23770SOL    HW272752   5.195   0.427   2.613 -2.5602 -0.0466 -0.0527
23771SOL     OW72753   3.511   6.852   4.156 -0.1319  0.2673 -0.0285
23771SOL    HW172754   3.503   6.800   4.236 -0.5436  1.8501  0.9995
23771SOL    HW272755   3.422   6.855   4.120 -0.2953  0.9934  0.4130
23772SOL     OW72756   2.283   1.073   8.558 -0.6877  0.3365  0.1738
23772SOL    HW172757   2.301   1.128   8.634 -0.7284  0.1664  0.3054
23772SOL    HW272758   2.369   1.054   8.521 -0.5862 -0.5686  0.8657
23773SOL     OW72759   1.351   3.759   1.771 -0.2355  0.2309 -0.0263
23773SOL    HW172760   1.384   3.753   1.861  0.0607 -0.1251 -0.1573
23773SOL    HW272761   1.357   3.670   1.737 -0.1914  0.3948 -0.4570
23774SOL     OW72762   4.959   0.759   5.617  0.0762  0.0175 -0.4453
23774SOL    HW172763   4.954   0.743   5.523  1.9248 -0.8197 -0.4399
23774SOL    HW272764   4.868   0.753   5.647 -0.3024 -2.1878 -1.8006
23775SOL     OW72765   1.516   3.215   1.874 -0.1221  0.0973  0.4083
23775SOL    HW172766   1.591   3.231   1.932  1.0642  1.1724 -1.3317
23775SOL    HW272767   1.529   3.125   1.842  0.1497  0.1004  0.5070
23776SOL     OW72768   3.798   1.245   1.332  0.2749  0.1999  0.1015
23776SOL    HW172769   3.824   1.312   1.270  0.1194  1.0022  0.8838
23776SOL    HW272770   3.706   1.227   1.311  0.1814  0.5722  0.1802
23777SOL     OW72771   1.249   6.368   4.549 -0.4151 -0.1891  0.4563
23777SOL    HW172772   1.159   6.390   4.524 -0.6651  0.9450  2.1983
23777SOL    HW272773   1.301   6.385   4.470 -1.7646 -1.4537 -0.7774
23778SOL     OW72774   2.444   0.774   0.556  0.2092  0.1955 -0.4790
23778SOL    HW172775   2.452   0.689   0.511  1.7996 -0.0239  0.1583
23778SOL    HW272776   2.528   0.817   0.540 -0.5434  1.6331 -0.7055
23779SOL     OW72777   1.154   1.899   2.389  0.3400  0.6035  0.3820
23779SOL    HW172778   1.096   1.951   2.333  1.4221  1.9026  0.4137
23779SOL    HW272779   1.241   1.911   2.351  0.4597 -2.8073 -0.7898
23780SOL     OW72780   1.684   4.288   7.677  0.0165  0.1877  0.2419
23780SOL    HW172781   1.765   4.267   7.631  0.2326  1.1641  0.1636
23780SOL    HW272782   1.697   4.377   7.710 -0.5827 -0.0684  1.2145
23781SOL     OW72783   7.917   6.405   3.621 -0.6958 -0.9317 -0.5820
23781SOL    HW172784   7.864   6.418   3.542 -1.9339  2.9981  0.6977
23781SOL    HW272785   7.853   6.396   3.692  0.3528  0.0990  0.5288
23782SOL     OW72786   5.789   1.490   4.260  0.0642  0.0234 -0.9268
23782SOL    HW172787   5.867   1.477   4.314 -1.6783  0.0090  1.7924
23782SOL    HW272788   5.787   1.584   4.243 -0.1029  0.2829  0.3749
23783SOL     OW72789   7.489   1.784   8.769  0.0558 -0.4051  0.0127
23783SOL    HW172790   7.413   1.767   8.714  0.6944  0.4724 -1.2046
23783SOL    HW272791   7.472   1.735   8.850 -1.1443 -1.3395 -0.7622
23784SOL     OW72792   4.564   2.928   1.993  0.0722 -0.3128 -0.0322
23784SOL    HW172793   4.651   2.950   2.024 -0.4836 -0.5886  1.8556
23784SOL    HW272794   4.512   2.916   2.072 -2.7038  3.6368 -0.9083
23785SOL     OW72795   6.791   5.722   0.695 -0.1358 -0.2959  0.2835
23785SOL    HW172796   6.844   5.748   0.770  0.8465 -2.1466  0.2743
23785SOL    HW272797   6.704   5.707   0.731 -0.2972  1.2014  0.5803
23786SOL     OW72798   6.895   3.124   2.690 -0.3964  0.4703 -0.1421
23786SOL    HW172799   6.891   3.197   2.752  0.0687 -0.8117  1.4916
23786SOL    HW272800   6.803   3.105   2.670 -0.6148  0.2996  0.9473
23787SOL     OW72801   1.669   4.172  12.204 -0.4808 -0.2918 -0.2824
23787SOL    HW172802   1.666   4.262  12.238 -2.4449 -0.1732 -0.6513
23787SOL    HW272803   1.590   4.131  12.237  0.1026 -1.7375 -0.6016
23788SOL     OW72804   1.236   0.554   3.343 -0.0451 -0.1903  0.3836
23788SOL    HW172805   1.272   0.583   3.259 -1.8744  1.0733 -0.0326
23788SOL    HW272806   1.304   0.498   3.381  0.3509 -1.8449 -2.4825
23789SOL     OW72807   3.278   1.634   6.018 -0.0463  0.6025  0.2708
23789SOL    HW172808   3.329   1.560   5.984  0.2098  0.9531 -0.1103
23789SOL    HW272809   3.290   1.629   6.113 -1.3407 -0.8073  0.4014
23790SOL     OW72810   4.954   4.356   4.476  0.8356  0.7453 -0.0909
23790SOL    HW172811   4.964   4.450   4.461  2.2453  0.6851  0.2923
23790SOL    HW272812   4.890   4.350   4.547 -3.1566  1.1464 -3.3007
23791SOL     OW72813   5.322   2.551   5.188  0.0023  0.0539  0.3328
23791SOL    HW172814   5.316   2.553   5.093  0.3641  2.4511  0.2963
23791SOL    HW272815   5.412   2.576   5.208 -0.1626 -0.0692  1.3090
23792SOL     OW72816   3.754   0.230   3.740  0.4850  0.2664  0.3963
23792SOL    HW172817   3.774   0.154   3.686  0.2670  0.6671 -0.2671
23792SOL    HW272818   3.831   0.287   3.730  0.3554  0.4324  0.3443
23793SOL     OW72819   5.595   7.005   3.560 -0.0069 -0.0955  0.0261
23793SOL    HW172820   5.666   6.988   3.622 -0.8951 -1.8139  0.6187
23793SOL    HW272821   5.515   6.992   3.610 -0.7527 -0.0472 -1.1116
23794SOL     OW72822   2.311   7.873   8.394  0.3403 -0.4178 -0.1895
23794SOL    HW172823   2.281   7.943   8.452 -0.1672 -0.4906 -0.3589
23794SOL    HW272824   2.385   7.911   8.346  1.0530 -0.5009  0.8108
23795SOL     OW72825   5.828   5.862   6.368 -0.4175 -0.5617  0.2760
23795SOL    HW172826   5.833   5.783   6.313 -1.8924  1.4381 -3.0190
23795SOL    HW272827   5.837   5.829   6.457 -0.4113 -4.3877 -0.9479
23796SOL     OW72828   2.366   3.000   7.874  0.5645  0.3629  0.1229
23796SOL    HW172829   2.334   3.075   7.925  1.6231  1.0549 -0.2073
23796SOL    HW272830   2.445   3.032   7.831  0.9336 -0.8986 -0.1726
23797SOL     OW72831   2.482   2.931   2.706  0.0087 -0.0359 -0.2865
23797SOL    HW172832   2.440   2.885   2.633  1.6627 -0.7492 -0.8320
23797SOL    HW272833   2.421   2.919   2.779 -0.4233 -1.6388 -0.8585
23798SOL     OW72834   5.587   2.472  10.993  0.1814  0.0181 -0.5838
23798SOL    HW172835   5.514   2.457  11.054 -0.6900 -0.6139 -1.7405
23798SOL    HW272836   5.596   2.567  10.991  0.2295  0.0495  0.5299
23799SOL     OW72837   4.220   0.157  11.084 -0.1033 -0.3598 -0.1210
23799SOL    HW172838   4.195   0.239  11.127 -3.3389 -2.2643  2.0882
23799SOL    HW272839   4.312   0.145  11.108 -0.1111  1.6340  1.1756
23800SOL     OW72840   0.486   1.961   6.470  0.2554  0.4581 -0.4039
23800SOL    HW172841   0.517   2.049   6.494 -0.9192  1.0066 -0.7945
23800SOL    HW272842   0.401   1.953   6.514  0.8572 -0.9577  0.5711
23801SOL     OW72843   1.764   1.638   1.371 -0.5129  0.2469  0.2035
23801SOL    HW172844   1.706   1.697   1.323 -1.6362 -1.1210 -0.1432
23801SOL    HW272845   1.723   1.628   1.457  0.7555  1.5598  1.0120
23802SOL     OW72846   1.866   2.976   8.905 -0.2528  0.2005 -0.0166
23802SOL    HW172847   1.937   3.036   8.929 -0.2353 -0.3272  1.3689
23802SOL    HW272848   1.911   2.895   8.882 -0.3219  0.4511 -1.0836
23803SOL     OW72849   3.230   4.990   9.742 -0.1859  0.9972 -0.1344
23803SOL    HW172850   3.278   5.015   9.821 -0.7579 -2.2194  1.4067
23803SOL    HW272851   3.294   4.998   9.671  1.5024  0.4556  1.2620
23804SOL     OW72852   6.320   7.488   7.945  0.3198 -0.2329  0.1558
23804SOL    HW172853   6.410   7.456   7.939  0.1140 -0.6004 -1.2427
23804SOL    HW272854   6.296   7.471   8.036  2.1113  1.1505  0.9589
23805SOL     OW72855   2.953   1.656   7.308 -0.4272 -0.1765 -0.2708
23805SOL    HW172856   2.968   1.657   7.402 -0.3445  0.9311 -0.2839
23805SOL    HW272857   3.032   1.616   7.272 -0.7590 -1.2642  0.1625
23806SOL     OW72858   3.444   1.756   8.085  0.1090 -0.0992 -0.0969
23806SOL    HW172859   3.413   1.694   8.150 -0.2773  0.7331  0.5275
23806SOL    HW272860   3.539   1.743   8.082  0.1969  0.2169  1.0166
23807SOL     OW72861   7.582   1.854   9.574 -0.4366  0.1944  0.1139
23807SOL    HW172862   7.561   1.780   9.517  1.9504 -0.9335  0.6014
23807SOL    HW272863   7.503   1.865   9.628 -1.2802 -1.2231 -0.7598
23808SOL     OW72864   5.278   1.497   5.846  0.3284  0.5101 -0.0969
23808SOL    HW172865   5.227   1.417   5.856  1.4853 -0.4246 -1.3230
23808SOL    HW272866   5.254   1.531   5.760  1.8409 -0.0554 -0.7823
23809SOL     OW72867   4.242   0.228   9.281 -0.0744 -0.1326  0.4529
23809SOL    HW172868   4.249   0.197   9.371  0.5528  0.5707  0.6580
23809SOL    HW272869   4.332   0.243   9.254 -0.3238  1.2032  0.2690
23810SOL     OW72870   3.562   0.058   9.316 -0.3987 -0.2222 -0.2561
23810SOL    HW172871   3.601   0.145   9.323  0.5666 -0.7213  1.0599
23810SOL    HW272872   3.508   0.050   9.394  0.9475 -1.4506  0.5950
23811SOL     OW72873   7.350   3.522   2.711 -0.3090 -0.2507 -0.1247
23811SOL    HW172874   7.271   3.574   2.725 -0.1883 -0.5648  1.8977
23811SOL    HW272875   7.422   3.576   2.745  0.0519 -0.9296  0.2240
23812SOL     OW72876   1.212   2.874   0.477 -0.0444  0.1113 -0.1851
23812SOL    HW172877   1.193   2.786   0.509  1.1972  0.0213  0.3823
23812SOL    HW272878   1.156   2.932   0.529  0.5463 -0.1997  0.8314
23813SOL     OW72879   1.577   6.298   4.208 -0.5903  0.1415 -0.1702
23813SOL    HW172880   1.668   6.322   4.227  0.1181 -2.6533  0.4840
23813SOL    HW272881   1.579   6.271   4.116 -0.4857 -0.9522  0.1438
23814SOL     OW72882   7.824   5.501   4.306  0.3497  0.0391  0.1917
23814SOL    HW172883   7.781   5.425   4.345  0.9434 -0.9291 -0.9881
23814SOL    HW272884   7.758   5.540   4.250  0.8619 -1.2972 -1.4190
23815SOL     OW72885   2.437   0.655   9.019  0.2566  0.1422 -0.0723
23815SOL    HW172886   2.403   0.566   9.011 -2.7993  1.1303  0.5498
23815SOL    HW272887   2.439   0.671   9.114  1.1829  0.5977 -0.1626
23816SOL     OW72888   6.282   5.393  11.986  0.5450  0.3350  0.3365
23816SOL    HW172889   6.281   5.302  11.956  1.3387  0.6533 -0.7291
23816SOL    HW272890   6.353   5.396  12.051 -0.1832 -0.0247  1.1700
23817SOL     OW72891   5.952   5.310   0.648 -0.1049 -0.7461  0.1958
23817SOL    HW172892   5.932   5.404   0.642 -2.9164 -1.0807  2.3655
23817SOL    HW272893   6.004   5.292   0.570 -0.8144  2.2799 -1.1344
23818SOL     OW72894   5.075   6.016  11.373 -0.0357 -0.2838  0.4035
23818SOL    HW172895   5.051   6.029  11.281 -2.3188 -1.4843  0.7682
23818SOL    HW272896   5.095   6.104  11.405  1.1411  0.1134 -1.2923
23819SOL     OW72897   3.189   6.009  12.380  0.4129 -0.2065 -0.2142
23819SOL    HW172898   3.160   6.032  12.468 -1.5518 -2.2390 -0.2423
23819SOL    HW272899   3.111   5.971  12.338  1.5031 -0.0268 -2.5650
23820SOL     OW72900   4.293   2.169   3.814 -0.0039 -0.0262 -0.4511
23820SOL    HW172901   4.325   2.147   3.727  1.8551  3.3478 -0.8024
23820SOL    HW272902   4.201   2.142   3.813  0.7075 -2.8825 -2.2633
23821SOL     OW72903   5.698   5.151   3.901  0.3690 -0.2391 -0.0147
23821SOL    HW172904   5.645   5.091   3.848  0.9668 -1.4464  0.7160
23821SOL    HW272905   5.704   5.109   3.987  0.4817  1.0637  0.6408
23822SOL     OW72906   0.443   0.549   6.622 -0.7254  0.3872  0.1843
23822SOL    HW172907   0.480   0.535   6.535 -3.0436  1.8220 -1.1388
23822SOL    HW272908   0.404   0.636   6.617 -3.5135 -0.6712  1.6571
23823SOL     OW72909   4.153   0.304   3.126  0.4325  0.0173  0.3024
23823SOL    HW172910   4.198   0.258   3.055  0.1335  0.6261 -0.2883
23823SOL    HW272911   4.199   0.275   3.205  1.4860  0.1703 -0.2322
23824SOL     OW72912   5.714   4.357   6.722 -0.0886  0.1606 -0.7407
23824SOL    HW172913   5.619   4.366   6.718 -0.1432 -0.6595 -1.4779
23824SOL    HW272914   5.738   4.397   6.806 -1.2654 -1.0931  0.2419
23825SOL     OW72915   2.330   6.535   4.472 -0.2045  0.1123  0.6842
23825SOL    HW172916   2.359   6.558   4.560 -1.8213 -0.3196  1.3578
23825SOL    HW272917   2.241   6.571   4.465 -0.8493 -1.5221 -0.0540
23826SOL     OW72918   6.165   5.130  10.868 -0.4568  0.0041 -0.3086
23826SOL    HW172919   6.245   5.179  10.887 -1.0081  0.7490  0.1483
23826SOL    HW272920   6.120   5.182  10.802 -1.6837  0.8459  1.1261
23827SOL     OW72921   0.962   1.862   7.282  0.0370  0.3252 -0.0633
23827SOL    HW172922   0.999   1.848   7.369  1.7429  0.2085 -0.7742
23827SOL    HW272923   0.990   1.786   7.232 -0.7260  0.5066 -0.7803
23828SOL     OW72924   7.772   6.380  11.415  0.0538  0.4456 -0.1917
23828SOL    HW172925   7.802   6.306  11.362 -1.4005 -1.5044  1.5877
23828SOL    HW272926   7.852   6.429  11.434  0.8990 -0.0062 -2.3152
23829SOL     OW72927   7.629   2.907  12.308  0.0907 -0.0037  0.1723
23829SOL    HW172928   7.551   2.851  12.303 -1.3879  1.9862 -0.4661
23829SOL    HW272929   7.695   2.861  12.256 -1.2314 -0.8920 -0.7942
23830SOL     OW72930   0.739   5.715   6.621  0.1029  0.3455 -0.5466
23830SOL    HW172931   0.815   5.661   6.600  0.6077  1.5250 -1.8491
23830SOL    HW272932   0.673   5.689   6.557 -1.1631 -1.6970  1.4522
23831SOL     OW72933   0.712   3.574   6.892  0.0311 -0.0640  0.1153
23831SOL    HW172934   0.692   3.661   6.925 -1.7504 -0.0100 -0.9853
23831SOL    HW272935   0.808   3.570   6.891  0.1442  1.1572  1.9370
23832SOL     OW72936   2.446   7.313   6.051  0.1556 -0.4672 -0.1482
23832SOL    HW172937   2.394   7.292   5.974 -3.7468 -0.5198  2.2122
23832SOL    HW272938   2.483   7.229   6.078 -0.0432 -0.8041 -0.9102
23833SOL     OW72939   1.412   1.283   3.196 -0.1967  0.3562 -0.1767
23833SOL    HW172940   1.505   1.259   3.188  0.1460  1.7702 -0.7161
23833SOL    HW272941   1.368   1.232   3.128  0.1364 -0.5242  0.2580
23834SOL     OW72942   4.070   3.199   3.560  0.2665  0.2033  0.1709
23834SOL    HW172943   4.043   3.109   3.578  2.0393 -0.3355  0.2783
23834SOL    HW272944   3.989   3.249   3.566 -0.3464 -0.9276  2.9149
23835SOL     OW72945   2.382   5.223   9.033 -0.6755  0.1793  0.1268
23835SOL    HW172946   2.393   5.261   8.946  0.0100  0.5968  0.3879
23835SOL    HW272947   2.386   5.298   9.093 -0.1329 -0.2040  0.5905
23836SOL     OW72948   0.814   5.675   9.454  0.2457 -0.1571  0.4168
23836SOL    HW172949   0.859   5.655   9.371 -1.3238 -0.7221 -0.3492
23836SOL    HW272950   0.798   5.769   9.450  0.8948 -0.0355  0.4760
23837SOL     OW72951   2.418   3.161   1.661 -0.1520  0.3454  0.4335
23837SOL    HW172952   2.417   3.124   1.750 -0.6746 -1.6256 -0.3464
23837SOL    HW272953   2.359   3.105   1.611  1.6921  0.1646 -1.6598
23838SOL     OW72954   0.781   2.440   4.327  0.3606  0.1153  0.3032
23838SOL    HW172955   0.807   2.530   4.306  2.4505 -0.0881  1.7273
23838SOL    HW272956   0.792   2.392   4.244  0.2945  0.9512 -0.1964
23839SOL     OW72957   5.586   2.058   2.726  0.3069 -0.5068  0.1730
23839SOL    HW172958   5.535   2.122   2.776 -1.1228  0.8527 -2.7026
23839SOL    HW272959   5.522   1.991   2.701  0.3931 -0.0166 -1.5278
23840SOL     OW72960   6.825   3.136   4.160  0.1667  0.8954  0.1648
23840SOL    HW172961   6.900   3.165   4.109  0.8520 -0.8226  0.1165
23840SOL    HW272962   6.749   3.155   4.105  0.6338  1.8005 -0.1862
23841SOL     OW72963   4.320   1.013   9.613  0.3238 -1.1783  0.3510
23841SOL    HW172964   4.372   1.008   9.532  0.1336  0.7229  0.0614
23841SOL    HW272965   4.234   1.043   9.585  1.0971  2.5642  1.4574
23842SOL     OW72966   6.731   4.301   7.368 -0.0104  0.0197  0.3108
23842SOL    HW172967   6.669   4.333   7.433 -1.3954 -1.2477 -0.3127
23842SOL    HW272968   6.762   4.218   7.403 -0.4034 -0.4415 -0.4018
23843SOL     OW72969   7.513   0.552   9.692  0.0735 -0.2269 -0.2872
23843SOL    HW172970   7.493   0.527   9.602 -0.2685 -1.3007  0.0799
23843SOL    HW272971   7.451   0.623   9.712 -0.2518 -0.3949 -0.6959
23844SOL     OW72972   5.633   6.400   3.359  0.4075 -0.0166 -0.1003
23844SOL    HW172973   5.578   6.385   3.282 -0.8586 -0.9638  0.9211
23844SOL    HW272974   5.699   6.331   3.356  0.6044  0.1885 -0.5316
23845SOL     OW72975   7.873   3.042   8.026 -1.4174  0.3822 -0.0495
23845SOL    HW172976   7.942   3.049   7.959  0.3623  1.8071  1.8166
23845SOL    HW272977   7.874   2.950   8.052  0.0652  0.4467  0.2019
23846SOL     OW72978   6.833   7.495   3.717  0.0588  0.1207  0.5127
23846SOL    HW172979   6.825   7.458   3.805 -4.2550 -0.1521  0.2219
23846SOL    HW272980   6.803   7.586   3.727 -0.3526  0.1189 -0.6295
23847SOL     OW72981   5.626   4.198   4.583  0.4250  0.2970  0.3426
23847SOL    HW172982   5.611   4.288   4.610 -0.7026 -0.1056  1.1845
23847SOL    HW272983   5.652   4.153   4.664  0.9591 -0.1347 -0.0626
23848SOL     OW72984   2.583   3.682   9.345 -0.0880 -0.4089  0.2459
23848SOL    HW172985   2.508   3.637   9.307  0.1800  0.0686 -0.8934
23848SOL    HW272986   2.551   3.715   9.429 -0.5969 -1.7738  0.6294
23849SOL     OW72987   2.769   1.880   3.587  0.0705 -0.7220 -0.2835
23849SOL    HW172988   2.849   1.860   3.635 -0.0622 -0.8282 -0.1012
23849SOL    HW272989   2.790   1.956   3.534 -0.1984  0.3320  1.0569
23850SOL     OW72990   0.153   7.482   1.801  0.0098 -0.3710  0.8238
23850SOL    HW172991   0.124   7.501   1.890  0.6360  0.7557  0.8109
23850SOL    HW272992   0.241   7.518   1.796  0.4838 -1.5759  0.1246
23851SOL     OW72993   5.224   0.361   3.014  0.6762 -0.6228  0.6309
23851SOL    HW172994   5.265   0.284   3.055  2.6013  0.1113  0.1970
23851SOL    HW272995   5.243   0.433   3.074 -0.5084 -0.3430  0.6929
23852SOL     OW72996   7.562   5.773   2.517  0.0642  0.0560 -0.3137
23852SOL    HW172997   7.613   5.703   2.475 -0.2463  0.1389 -0.8419
23852SOL    HW272998   7.621   5.848   2.518  0.4569 -0.2559  0.4026
23853SOL     OW72999   1.686   7.558   8.479 -0.2610  0.5703 -0.3619
23853SOL    HW173000   1.627   7.483   8.476  0.0247  0.2028  1.9841
23853SOL    HW273001   1.649   7.615   8.546  1.3997  0.8974  0.3086
23854SOL     OW73002   6.514   5.965   3.888  0.5006  0.2909  0.2582
23854SOL    HW173003   6.544   5.890   3.940  0.9204  0.7145  0.6353
23854SOL    HW273004   6.479   6.026   3.952 -0.6105  0.0792 -0.1238
23855SOL     OW73005   0.534   3.938   6.120  0.0736 -0.2149 -0.1780
23855SOL    HW173006   0.601   3.913   6.055  1.7763 -0.7039  1.6719
23855SOL    HW273007   0.568   4.018   6.159 -1.6656  0.9053 -0.8510
23856SOL     OW73008   2.658   0.301   9.790 -0.1626 -0.4975  0.4742
23856SOL    HW173009   2.573   0.299   9.835 -0.7687 -0.7318 -0.6319
23856SOL    HW273010   2.694   0.213   9.805  0.3194 -0.1128  1.7062
23857SOL     OW73011   6.829   1.569   1.309  0.1675 -0.2534  0.3972
23857SOL    HW173012   6.758   1.618   1.268  0.2401 -0.2480  0.2776
23857SOL    HW273013   6.833   1.487   1.259  0.7010  0.0324 -0.0487
23858SOL     OW73014   4.768   7.573   8.329  0.1497 -0.3126 -0.2925
23858SOL    HW173015   4.726   7.633   8.267  2.0137  2.1802  0.6936
23858SOL    HW273016   4.852   7.552   8.289  0.0208 -1.3553 -0.0527
23859SOL     OW73017   3.359   4.593   2.998 -0.5587 -0.3806  0.2949
23859SOL    HW173018   3.277   4.619   3.041  0.2696  1.2581  0.9848
23859SOL    HW273019   3.420   4.578   3.071  0.6053  1.5290 -0.2190
23860SOL     OW73020   1.850   1.180   1.362 -0.5077  0.0651 -0.0517
23860SOL    HW173021   1.848   1.186   1.266  0.5707  0.6835 -0.0627
23860SOL    HW273022   1.929   1.130   1.381 -0.3275  0.5528  0.5264
23861SOL     OW73023   4.230   7.777   7.496  0.0864 -0.1674  0.1872
23861SOL    HW173024   4.173   7.718   7.546  3.5450 -1.5574  2.9178
23861SOL    HW273025   4.247   7.850   7.555 -0.1294  1.0707 -1.2283
23862SOL     OW73026   6.190   1.834  11.936 -0.0660 -0.0965  0.2457
23862SOL    HW173027   6.275   1.810  11.898 -0.8099  0.3728 -1.8801
23862SOL    HW273028   6.138   1.754  11.931 -0.7690  0.4129 -1.6415
23863SOL     OW73029   4.001   5.744   8.430  0.2641  0.0578 -0.2074
23863SOL    HW173030   4.033   5.813   8.488  0.1457  0.4482 -0.5951
23863SOL    HW273031   4.061   5.671   8.444  0.5931  0.3570 -0.0308
23864SOL     OW73032   0.184   1.808   2.830  0.2214 -0.5561  0.4216
23864SOL    HW173033   0.217   1.839   2.746 -1.1601  1.3213  0.4877
23864SOL    HW273034   0.260   1.772   2.874  1.5409  0.8139 -0.6181
23865SOL     OW73035   1.835   0.052  11.306  0.1773  0.1161  0.7696
23865SOL    HW173036   1.883  -0.011  11.253 -0.2368  0.4140  0.0247
23865SOL    HW273037   1.743   0.025  11.298 -0.0024  0.8007  0.4452
23866SOL     OW73038   5.869   1.511   7.262 -0.1113 -0.3527  0.2774
23866SOL    HW173039   5.944   1.504   7.202 -1.6274 -1.6195 -1.5835
23866SOL    HW273040   5.874   1.601   7.294  1.9063 -0.2367 -0.1871
23867SOL     OW73041   1.846   3.582   1.343 -0.1984  0.3591  0.0343
23867SOL    HW173042   1.859   3.667   1.301 -0.9819  0.4920  0.0429
23867SOL    HW273043   1.933   3.559   1.377 -0.3067  2.0332  1.6569
23868SOL     OW73044   3.676   0.656   8.334  0.0834 -0.2322  0.0037
23868SOL    HW173045   3.736   0.667   8.407 -0.6327  0.7024  0.4684
23868SOL    HW273046   3.731   0.623   8.263  1.0749  0.2424  0.5239
23869SOL     OW73047   6.931   0.266  10.330 -0.0944 -0.0366  0.0402
23869SOL    HW173048   6.863   0.223  10.278 -0.6962  1.3223 -0.3609
23869SOL    HW273049   6.981   0.317  10.266  0.4193  0.0800  0.5265
23870SOL     OW73050   3.390   0.064  12.273 -0.1568  0.3507  0.1625
23870SOL    HW173051   3.350   0.082  12.188  1.6788 -1.9083 -1.3262
23870SOL    HW273052   3.397  -0.032  12.276  3.9809  0.4605  0.6910
23871SOL     OW73053   1.254   0.713   5.926  0.1479  0.2107  0.3989
23871SOL    HW173054   1.338   0.753   5.947  0.1926 -1.0027  2.8570
23871SOL    HW273055   1.253   0.632   5.976 -0.4084 -2.4182 -3.4073
23872SOL     OW73056   6.160   0.641   7.317  0.5645 -0.6812 -0.4763
23872SOL    HW173057   6.217   0.577   7.359 -0.4706 -0.6136  1.1008
23872SOL    HW273058   6.220   0.704   7.277  1.5828 -1.8106 -0.7788
23873SOL     OW73059   6.213   6.559   5.235 -0.0757 -0.2887 -0.3824
23873SOL    HW173060   6.244   6.595   5.152 -0.6407 -0.2613 -0.5910
23873SOL    HW273061   6.135   6.612   5.256 -0.5353 -0.9554 -0.3637
23874SOL     OW73062   1.806   6.362   6.331  0.0481 -0.2775  0.2365
23874SOL    HW173063   1.720   6.405   6.322  0.9985  1.6629 -0.0669
23874SOL    HW273064   1.792   6.275   6.294 -1.7025  0.1322 -0.1882
23875SOL     OW73065   2.390   1.761   1.555  0.0093  0.2001 -0.1689
23875SOL    HW173066   2.386   1.828   1.487  3.4681  0.8521  0.1146
23875SOL    HW273067   2.434   1.687   1.514 -1.1461 -0.8312  0.3751
23876SOL     OW73068   1.996   4.859  10.791 -0.0615  0.2216 -0.5148
23876SOL    HW173069   1.991   4.837  10.698 -0.9431  1.8288 -0.8741
23876SOL    HW273070   2.037   4.945  10.793 -1.8591  1.1001  0.4205
23877SOL     OW73071   2.124   3.869   6.167 -0.0045 -0.3340 -0.1971
23877SOL    HW173072   2.039   3.837   6.139 -0.2260  0.9994 -1.1376
23877SOL    HW273073   2.106   3.920   6.247 -0.1027 -0.0200 -0.4178
23878SOL     OW73074   6.284   3.226   2.292 -0.0346  0.4605 -0.2892
23878SOL    HW173075   6.366   3.177   2.281 -1.5865 -1.9847 -1.8003
23878SOL    HW273076   6.299   3.280   2.370  2.4392 -1.0892  0.4286
23879SOL     OW73077   3.285   0.059  11.463 -0.2319  0.0393 -0.5176
23879SOL    HW173078   3.310   0.146  11.433  1.9523 -0.9060 -1.6414
23879SOL    HW273079   3.246   0.074  11.550 -1.3348  2.2405 -1.3229
23880SOL     OW73080   7.116   0.002   0.939 -0.0869  0.2302 -0.2313
23880SOL    HW173081   7.142  -0.055   0.866 -0.8478  0.4622 -0.6954
23880SOL    HW273082   7.140  -0.047   1.017 -2.2814 -1.5796 -0.5731
23881SOL     OW73083   2.095   0.103   6.172 -0.6781  0.2337  0.3859
23881SOL    HW173084   2.084   0.188   6.130 -1.1565  0.0795  0.1880
23881SOL    HW273085   2.187   0.081   6.158 -0.7328  0.3717 -0.2333
23882SOL     OW73086   6.707   7.314   5.716  0.4608  0.1870  0.2955
23882SOL    HW173087   6.718   7.286   5.625 -0.8470 -0.9666  0.4523
23882SOL    HW273088   6.768   7.387   5.727  1.3986 -0.3387 -1.1970
23883SOL     OW73089   0.289   5.599   4.223 -0.5881  0.1298  0.0220
23883SOL    HW173090   0.204   5.600   4.177 -0.3011  0.1198 -0.5154
23883SOL    HW273091   0.266   5.611   4.315 -1.1405  0.6238 -0.1738
23884SOL     OW73092   0.445   2.102  11.006  0.4285  0.0573 -0.1476
23884SOL    HW173093   0.424   2.192  11.029 -1.7755 -0.2100 -0.8395
23884SOL    HW273094   0.411   2.050  11.079 -0.1723 -0.3224 -0.6826
23885SOL     OW73095   1.637   2.971   8.446  0.1481  0.2901 -0.2799
23885SOL    HW173096   1.627   3.065   8.457  1.5056  0.2698  1.5609
23885SOL    HW273097   1.693   2.944   8.519 -1.3529 -2.1587  0.0711
23886SOL     OW73098   3.264   6.061  11.049 -0.4284  0.2552 -0.3930
23886SOL    HW173099   3.252   6.116  11.127 -0.3865 -0.3181  0.0257
23886SOL    HW273100   3.221   6.109  10.979 -0.7944  0.6017  0.0623
23887SOL     OW73101   5.082   0.985   5.974  0.3276 -0.1980 -0.2192
23887SOL    HW173102   5.151   0.920   5.984  0.2951 -0.3820 -1.1042
23887SOL    HW273103   5.049   0.999   6.062  1.6898  0.1132  0.2621
23888SOL     OW73104   1.202   6.975   9.842 -0.5965  0.3466 -0.0823
23888SOL    HW173105   1.237   6.891   9.870 -2.0901 -1.3415 -2.8055
23888SOL    HW273106   1.158   7.010   9.920 -0.9082 -1.9444  0.8426
23889SOL     OW73107   0.736   6.488   6.394 -0.0078 -0.4332 -0.3097
23889SOL    HW173108   0.737   6.394   6.374 -1.4961 -0.2615 -1.3824
23889SOL    HW273109   0.767   6.530   6.314 -0.7893  0.0478 -0.3702
23890SOL     OW73110   4.099   5.925   8.616  0.3318 -0.4527 -0.3430
23890SOL    HW173111   4.143   5.985   8.556 -0.3533  1.2549  0.7952
23890SOL    HW273112   4.169   5.893   8.672  0.2890  2.1182  1.3444
23891SOL     OW73113   3.431   2.773   6.488 -0.0043  0.0398  0.7258
23891SOL    HW173114   3.438   2.678   6.477  0.2075  0.1095  0.2069
23891SOL    HW273115   3.518   2.801   6.516 -0.2199  0.0154  1.4360
23892SOL     OW73116   0.921   0.674  10.150 -0.1933  0.4290 -0.0231
23892SOL    HW173117   0.968   0.693  10.069  1.5768  0.6308  1.0078
23892SOL    HW273118   0.909   0.579  10.149  2.5665 -0.0244  0.8314
23893SOL     OW73119   3.486   4.435   9.593 -0.1138 -0.0284  0.3952
23893SOL    HW173120   3.433   4.417   9.515  0.7574  0.2554 -0.2856
23893SOL    HW273121   3.484   4.353   9.643  0.4494 -0.6963 -0.6258
23894SOL     OW73122   1.113   6.546   8.060  0.2222 -0.4556  0.1064
23894SOL    HW173123   1.120   6.565   8.154  0.9688 -1.5328  0.2982
23894SOL    HW273124   1.154   6.460   8.051 -0.3154 -0.5970 -1.1353
23895SOL     OW73125   2.274   2.215   4.635  0.5395 -0.8518  0.4312
23895SOL    HW173126   2.263   2.219   4.540  2.0770  0.9184  0.2806
23895SOL    HW273127   2.364   2.244   4.651  0.3828 -1.2863  2.4328
23896SOL     OW73128   2.073   3.226   4.975  0.1630  1.0267 -0.4957
23896SOL    HW173129   2.155   3.180   4.958 -0.5301 -0.0630 -1.0197
23896SOL    HW273130   2.034   3.178   5.048  0.0871  1.6682 -0.1107
23897SOL     OW73131   3.623   0.288   6.996 -0.0335 -0.6508  0.4476
23897SOL    HW173132   3.612   0.208   7.046  0.7610 -1.9057 -1.2846
23897SOL    HW273133   3.716   0.310   7.006 -0.2191  0.0175  0.8111
23898SOL     OW73134   5.290   1.387   4.918  0.3188 -0.3063 -0.3803
23898SOL    HW173135   5.249   1.361   4.835  0.3435 -1.6793  0.0147
23898SOL    HW273136   5.217   1.416   4.973  0.4552  2.2408 -1.3911
23899SOL     OW73137   1.788   7.604   7.876  0.8973  0.0009  0.4028
23899SOL    HW173138   1.695   7.580   7.880  0.2840  2.2675  1.7926
23899SOL    HW273139   1.791   7.680   7.818  1.6285  0.8354  1.4952
23900SOL     OW73140   6.196   3.585   8.576  0.4594 -0.1804 -0.2337
23900SOL    HW173141   6.151   3.580   8.661  1.4432 -2.7214  0.2339
23900SOL    HW273142   6.126   3.603   8.513 -0.8564 -1.4997  0.7614
23901SOL     OW73143   6.848   5.279   9.014 -0.1049 -0.0377  0.2658
23901SOL    HW173144   6.904   5.276   9.091 -0.0830 -1.3337  0.2167
23901SOL    HW273145   6.877   5.206   8.960 -0.6154  0.3999 -0.6295
23902SOL     OW73146   4.923   4.660   8.833  0.3996  0.3282 -0.3732
23902SOL    HW173147   4.947   4.747   8.867 -0.5084  0.3997  0.1224
23902SOL    HW273148   4.839   4.675   8.788 -0.4916 -0.5495  0.9521
23903SOL     OW73149   5.274   7.277   4.754 -0.6301  0.5718  0.1511
23903SOL    HW173150   5.329   7.199   4.757 -0.0634  0.9885  2.5109
23903SOL    HW273151   5.289   7.313   4.666  1.3623 -0.3952  0.0299
23904SOL     OW73152   5.743   0.940   5.315  0.2458  0.2073 -0.3026
23904SOL    HW173153   5.671   0.877   5.324  0.5270 -0.4168 -2.0373
23904SOL    HW273154   5.807   0.895   5.260  1.2549  1.3678 -0.1124
23905SOL     OW73155   2.558   5.853   4.460  0.0561 -0.4076 -0.1676
23905SOL    HW173156   2.552   5.947   4.478 -0.1615 -0.3607 -0.4881
23905SOL    HW273157   2.641   5.827   4.499  0.4318  0.0490 -0.6482
23906SOL     OW73158   6.321   5.395   5.316 -0.0978  0.1346  0.5879
23906SOL    HW173159   6.283   5.393   5.403 -3.3837  2.1416 -0.6170
23906SOL    HW273160   6.263   5.340   5.263 -0.7034  2.2462 -1.0892
23907SOL     OW73161   4.102   0.134   9.027  0.5536 -0.4966  0.3967
23907SOL    HW173162   4.137   0.193   8.960  1.3215 -1.3844 -0.0208
23907SOL    HW273163   4.146   0.161   9.107 -0.0650  0.3109  0.4756
23908SOL     OW73164   1.762   2.408   1.733  0.2766  0.0363  0.3369
23908SOL    HW173165   1.821   2.333   1.721 -0.9261 -1.1864  1.6411
23908SOL    HW273166   1.753   2.416   1.828 -0.9723  0.7314  0.1776
23909SOL     OW73167   0.104   6.871   8.784  0.5812  0.2754 -0.4964
23909SOL    HW173168   0.096   6.816   8.706  1.6016 -2.7136  1.3232
23909SOL    HW273169   0.172   6.935   8.761  1.3849 -0.9825 -1.8311
23910SOL     OW73170   1.156   5.240   9.738 -0.0947  0.0121 -0.6610
23910SOL    HW173171   1.243   5.206   9.757 -0.3038 -0.5139 -0.6184
23910SOL    HW273172   1.097   5.187   9.792 -0.5336 -0.3615 -1.4872
23911SOL     OW73173   3.872   2.074   4.144 -0.9652 -0.0896  0.5389
23911SOL    HW173174   3.954   2.039   4.180 -0.4814  0.4028 -0.0574
23911SOL    HW273175   3.877   2.168   4.159 -0.3352  0.2724 -1.5478
23912SOL     OW73176   3.597   6.458   4.903 -0.1447  0.2284  0.5001
23912SOL    HW173177   3.588   6.521   4.832  2.8716  0.0093 -0.1950
23912SOL    HW273178   3.627   6.378   4.861  3.4884  0.5898  2.0384
23913SOL     OW73179   4.135   4.488   0.578  0.1587 -0.3949 -0.0871
23913SOL    HW173180   4.179   4.518   0.657  1.1393 -0.8399 -0.4422
23913SOL    HW273181   4.060   4.546   0.568  2.0367  2.0872 -0.8407
23914SOL     OW73182   2.466   4.111   5.507  0.4476 -0.0042  0.5201
23914SOL    HW173183   2.546   4.153   5.539  1.3216 -1.4756  0.3879
23914SOL    HW273184   2.482   4.098   5.413 -0.2550  0.3149  0.3475
23915SOL     OW73185   0.215   1.589   0.794  0.3170  0.4160 -0.6969
23915SOL    HW173186   0.240   1.681   0.787  0.0437  0.5389 -0.1380
23915SOL    HW273187   0.294   1.545   0.826  0.1786  0.6092 -0.0761
23916SOL     OW73188   6.756   5.811   8.620  0.2694 -0.0034 -0.0641
23916SOL    HW173189   6.675   5.854   8.650  0.4023  0.1915  0.0140
23916SOL    HW273190   6.763   5.837   8.528  1.3317  1.6818  0.4416
23917SOL     OW73191   6.760   3.880   0.079 -0.0831 -0.0914  0.4039
23917SOL    HW173192   6.806   3.811   0.031 -1.9233 -0.5679 -0.8304
23917SOL    HW273193   6.805   3.886   0.163  0.7641 -2.1048  0.1610
23918SOL     OW73194   2.194   1.585  11.989 -0.3567  0.5353 -1.0498
23918SOL    HW173195   2.215   1.628  12.072 -2.4677  1.8420 -1.1174
23918SOL    HW273196   2.218   1.648  11.922  1.0677 -0.3995 -1.4516
23919SOL     OW73197   6.433   3.649  11.106 -0.0675 -0.3779  0.4013
23919SOL    HW173198   6.387   3.566  11.116  0.9120 -1.0336 -0.4013
23919SOL    HW273199   6.477   3.643  11.021  0.8627  0.5398  0.7878
23920SOL     OW73200   2.760   3.031  11.158  0.2632  0.2678 -0.0047
23920SOL    HW173201   2.816   3.071  11.091 -0.5702  1.9284  0.2438
23920SOL    HW273202   2.684   2.999  11.110  0.3350  0.1397 -0.0337
23921SOL     OW73203   2.676   7.148  10.818  0.0301  0.1217  0.3755
23921SOL    HW173204   2.752   7.206  10.808  0.9623 -1.1047  0.1593
23921SOL    HW273205   2.701   7.068  10.772 -0.8395 -0.8117  1.4739
23922SOL     OW73206   5.715   2.164   8.327 -0.9007 -0.2418 -0.1067
23922SOL    HW173207   5.749   2.120   8.405 -1.1933  0.5600  0.4897
23922SOL    HW273208   5.787   2.222   8.300 -0.5434 -1.0132 -0.8457
23923SOL     OW73209   7.248   1.185   6.994  0.1661 -0.5537  0.1748
23923SOL    HW173210   7.342   1.176   7.012  0.6351  2.0442 -0.5319
23923SOL    HW273211   7.212   1.222   7.074  0.1998  0.5824 -0.3164
23924SOL     OW73212   5.438   0.674   5.408 -0.3892 -0.4255 -0.3208
23924SOL    HW173213   5.358   0.623   5.419 -0.0170 -1.2468 -1.2128
23924SOL    HW273214   5.445   0.688   5.314  1.0248 -1.2585 -0.3749
23925SOL     OW73215   3.959   4.314   8.892 -0.4962 -0.0986  0.2766
23925SOL    HW173216   3.866   4.331   8.879 -0.6831 -0.0923  1.5387
23925SOL    HW273217   3.970   4.307   8.987  1.2678  2.5795  0.3893
23926SOL     OW73218   3.758   2.215   2.058  0.1578 -0.0313 -0.3147
23926SOL    HW173219   3.734   2.127   2.087  0.2126 -0.7176 -2.2471
23926SOL    HW273220   3.788   2.259   2.138 -0.6852 -1.4658  0.8442
23927SOL     OW73221   3.612   3.932   3.597  0.1919 -0.2071 -0.3118
23927SOL    HW173222   3.552   3.948   3.524  1.2072 -2.6806 -1.8329
23927SOL    HW273223   3.586   3.846   3.631  0.1147  0.6395  1.9435
23928SOL     OW73224   4.323   2.354   9.692 -0.3632  0.0077  0.0251
23928SOL    HW173225   4.317   2.353   9.597  1.0888  1.0107 -0.1185
23928SOL    HW273226   4.236   2.381   9.722 -0.0945  2.4481 -1.1756
23929SOL     OW73227   1.440   2.762   2.246  0.5248  0.1772  0.0932
23929SOL    HW173228   1.499   2.834   2.223  2.3516 -0.6288  1.9172
23929SOL    HW273229   1.356   2.805   2.264  1.1448  1.6517 -0.3454
23930SOL     OW73230   5.079   1.051   2.173 -0.0232  0.0400  0.0559
23930SOL    HW173231   5.038   0.995   2.240 -0.1284  1.5632  1.3221
23930SOL    HW273232   5.166   1.012   2.160 -0.2540 -0.6791  0.5675
23931SOL     OW73233   3.430   6.619   7.950 -0.2518  1.1276  0.7040
23931SOL    HW173234   3.401   6.528   7.956  1.7671  0.3532 -0.1769
23931SOL    HW273235   3.379   6.657   7.879  1.7746 -0.6467 -1.8997
23932SOL     OW73236   2.133   3.512   9.120  0.6011  0.0219  0.1642
23932SOL    HW173237   2.207   3.477   9.169  0.3337  0.7936  1.1508
23932SOL    HW273238   2.057   3.466   9.153  0.6134 -0.7563 -0.8375
23933SOL     OW73239   5.323   6.869   7.603  0.1554  0.2694 -0.5210
23933SOL    HW173240   5.395   6.885   7.543 -0.2955  1.6682 -0.7308
23933SOL    HW273241   5.287   6.956   7.621 -0.4895 -0.2446  0.8090
23934SOL     OW73242   2.160   7.817   0.429  0.4795 -0.0862 -0.2587
23934SOL    HW173243   2.212   7.806   0.350  0.2792  0.2494 -0.4408
23934SOL    HW273244   2.159   7.912   0.444 -0.7110 -0.0144 -0.6917
23935SOL     OW73245   6.897   7.520   1.683 -0.0595 -0.2442 -0.4747
23935SOL    HW173246   6.884   7.556   1.770 -0.7771 -0.6040 -0.4333
23935SOL    HW273247   6.862   7.587   1.624  0.0108 -0.2035 -0.4710
23936SOL     OW73248   5.887   0.456   1.438  0.3441 -0.2059 -0.0222
23936SOL    HW173249   5.919   0.537   1.398 -1.1011 -0.1257 -1.1074
23936SOL    HW273250   5.926   0.386   1.386 -1.1184 -0.1093 -1.3404
23937SOL     OW73251   1.048   7.701   7.222 -0.0501  0.3575  0.5750
23937SOL    HW173252   0.978   7.764   7.239 -2.0730 -1.5515 -0.3082
23937SOL    HW273253   1.073   7.717   7.131  0.5927  0.9223  0.8382
23938SOL     OW73254   5.900   6.034   8.901  0.4524 -0.2336  0.5167
23938SOL    HW173255   5.885   6.116   8.947 -0.4079  0.9882 -1.7710
23938SOL    HW273256   5.978   6.050   8.848 -0.2590 -0.5480 -0.6569
23939SOL     OW73257   4.386   7.244  10.090 -0.0204  0.6509 -0.0270
23939SOL    HW173258   4.313   7.292  10.129  1.4842  2.2690  0.9399
23939SOL    HW273259   4.443   7.224  10.164  1.3313  0.9289 -0.9594
23940SOL     OW73260   2.182   5.746   9.381  0.3970  0.1493  0.4407
23940SOL    HW173261   2.116   5.706   9.437  0.5834 -0.1239  0.4647
23940SOL    HW273262   2.265   5.711   9.412  0.6324  1.0992  0.9338
23941SOL     OW73263   7.709   3.687   6.302 -0.1616  0.0027  0.2488
23941SOL    HW173264   7.650   3.614   6.319  1.1328 -1.2603 -0.4663
23941SOL    HW273265   7.652   3.764   6.299 -1.8345 -1.2278 -0.9638
23942SOL     OW73266   0.703   0.549  11.826 -0.5700  0.0709 -0.1634
23942SOL    HW173267   0.772   0.514  11.882  0.6372  1.2166 -0.8829
23942SOL    HW273268   0.625   0.548  11.881  0.5356  1.0258  1.5039
23943SOL     OW73269   7.051   5.963  12.277  0.0232  0.5170  0.0217
23943SOL    HW173270   7.062   6.057  12.268  0.7143  0.5733  1.3408
23943SOL    HW273271   7.105   5.926  12.207  0.1357  1.0749 -0.1918
23944SOL     OW73272   6.847   5.415  12.230 -0.0644 -0.3699  0.5922
23944SOL    HW173273   6.913   5.385  12.167  0.1755  0.6962  0.3123
23944SOL    HW273274   6.782   5.461  12.176  0.7468  1.6088  1.1951
23945SOL     OW73275   7.077   1.895  10.918 -0.5271  0.4516  0.3094
23945SOL    HW173276   7.110   1.920  10.832  0.3732 -1.7350 -0.0418
23945SOL    HW273277   7.010   1.961  10.938  0.4826  2.0378 -1.2423
23946SOL     OW73278   5.790   1.622   8.202  0.2918 -0.1731  0.0649
23946SOL    HW173279   5.727   1.694   8.206 -0.0770 -0.5185  0.5618
23946SOL    HW273280   5.825   1.626   8.113 -2.3454 -1.5719 -1.1592
23947SOL     OW73281   7.524   0.741   1.054 -0.7317  0.5258 -0.4654
23947SOL    HW173282   7.500   0.758   1.145 -1.9447 -1.0190 -0.4512
23947SOL    HW273283   7.532   0.828   1.015  2.8383  1.4338  1.7641
23948SOL     OW73284   6.588   6.972   7.014 -0.1505 -0.3420  0.2293
23948SOL    HW173285   6.629   6.894   6.975 -0.1933 -0.2615  0.0233
23948SOL    HW273286   6.506   6.940   7.051 -0.0641 -0.4376  0.3371
23949SOL     OW73287   0.331   7.719  10.341  0.6272  0.1763  0.6827
23949SOL    HW173288   0.411   7.764  10.316  0.7129 -0.6859 -0.7499
23949SOL    HW273289   0.336   7.634  10.296 -1.8341  0.7389 -0.8494
23950SOL     OW73290   7.671   5.454   8.926  0.4755 -0.1121  0.1618
23950SOL    HW173291   7.688   5.489   9.013  0.1338  0.3027  0.0615
23950SOL    HW273292   7.647   5.530   8.873  1.7345 -0.1958 -0.5685
23951SOL     OW73293   5.929   4.992   1.393 -0.2970 -0.3495  0.0675
23951SOL    HW173294   5.938   4.905   1.432  0.9814 -0.2615  0.0044
23951SOL    HW273295   5.970   5.051   1.456  0.7948 -0.0697 -0.8751
23952SOL     OW73296   5.646   5.202   4.418 -0.2464 -0.1898 -0.4370
23952SOL    HW173297   5.631   5.286   4.461  1.7077 -0.5710  1.1162
23952SOL    HW273298   5.620   5.137   4.483 -1.4818 -0.8350 -1.5304
23953SOL     OW73299   3.526   5.850   7.021 -0.0098  0.3539 -0.1231
23953SOL    HW173300   3.466   5.858   6.947 -0.5426  0.5942  0.3233
23953SOL    HW273301   3.600   5.800   6.987  0.2214  1.3243 -1.0917
23954SOL     OW73302   7.760   2.511   7.018  0.1250  0.6327  0.1199
23954SOL    HW173303   7.734   2.532   7.107 -2.2069  0.9024 -0.5621
23954SOL    HW273304   7.779   2.596   6.978 -0.7304  0.6850 -0.1800
23955SOL     OW73305   5.063   6.555   4.094 -0.1912 -0.3477 -0.1697
23955SOL    HW173306   5.082   6.503   4.172 -1.1160  0.8198  0.8698
23955SOL    HW273307   4.971   6.538   4.075 -0.6937  1.3668  0.5819
23956SOL     OW73308   3.283   7.545   5.494 -0.0169  0.4597 -0.6217
23956SOL    HW173309   3.205   7.554   5.439 -0.6821 -0.8692  0.0474
23956SOL    HW273310   3.266   7.602   5.569  0.0410  0.8381 -0.8986
23957SOL     OW73311   1.764   1.836   7.327  0.3278 -0.2538 -0.0051
23957SOL    HW173312   1.820   1.763   7.299  2.0289  1.2698 -0.8101
23957SOL    HW273313   1.775   1.902   7.259 -2.6195  0.1125 -0.2648
23958SOL     OW73314   5.028   4.375   0.374  0.1716 -0.1197  0.4293
23958SOL    HW173315   4.993   4.310   0.313  1.3801 -0.1163 -0.3123
23958SOL    HW273316   5.094   4.422   0.322  0.7805  0.3024  1.5648
23959SOL     OW73317   6.836   2.176   1.865  0.2578  0.3687 -0.2716
23959SOL    HW173318   6.810   2.238   1.933  1.0585  2.4227 -1.7545
23959SOL    HW273319   6.754   2.135   1.837 -0.1886  0.1851  1.2488
23960SOL     OW73320   6.622   2.229   0.955 -0.3264  0.3974 -0.0058
23960SOL    HW173321   6.646   2.313   0.995  0.5214 -0.0020  0.3636
23960SOL    HW273322   6.654   2.236   0.865 -1.4992  0.9859 -0.3923
23961SOL     OW73323   1.673   5.064  10.036  0.5865  0.2414 -0.3456
23961SOL    HW173324   1.733   5.084   9.964  1.3412  0.9971  0.4576
23961SOL    HW273325   1.731   5.042  10.110 -0.1083  0.8203  0.3967
23962SOL     OW73326   4.659   0.361   0.805  0.1413  0.0563  0.5812
23962SOL    HW173327   4.732   0.329   0.752 -0.4544  0.4339 -0.5042
23962SOL    HW273328   4.699   0.424   0.865  0.7495  0.0574  0.1861
23963SOL     OW73329   7.576   5.159   6.215 -0.4069  0.4479 -0.1561
23963SOL    HW173330   7.590   5.224   6.284 -0.3000  2.3685 -1.8992
23963SOL    HW273331   7.535   5.207   6.144 -0.8412 -1.5427 -1.3401
23964SOL     OW73332   1.612   1.639   2.196 -0.3794  0.0361  0.1686
23964SOL    HW173333   1.528   1.625   2.239 -1.0071 -0.8414 -1.2833
23964SOL    HW273334   1.640   1.552   2.168  0.9069  0.3519  0.3885
23965SOL     OW73335   7.679   1.623   1.480 -0.3284  0.0474 -0.1129
23965SOL    HW173336   7.610   1.662   1.534  1.0504  1.1291  0.9460
23965SOL    HW273337   7.760   1.648   1.523  0.7443 -1.3903 -1.1942
23966SOL     OW73338   4.989   3.524   0.214  0.5445  0.3755 -0.3013
23966SOL    HW173339   4.911   3.498   0.165 -1.2905  0.8849  2.1365
23966SOL    HW273340   5.019   3.604   0.170 -0.2172  0.0900 -1.3800
23967SOL     OW73341   6.496   4.997   8.823  0.2690 -0.3881  0.2962
23967SOL    HW173342   6.504   5.034   8.735 -1.9992 -1.2325 -0.3371
23967SOL    HW273343   6.407   4.964   8.827 -0.1364  0.7393  3.3944
23968SOL     OW73344   1.725   0.467   3.859  0.1286 -0.0278  0.1805
23968SOL    HW173345   1.810   0.493   3.894 -0.7802  0.8265  1.8638
23968SOL    HW273346   1.733   0.373   3.845  1.4843  0.1093 -0.1344
23969SOL     OW73347   3.460   7.256   8.339  0.5576  0.0454  0.0992
23969SOL    HW173348   3.472   7.314   8.415  0.5814  0.4193 -0.1900
23969SOL    HW273349   3.383   7.291   8.294 -1.1319 -1.7605  1.4119
23970SOL     OW73350   7.095   4.636   5.182 -0.3071 -0.1549 -0.0645
23970SOL    HW173351   7.064   4.659   5.270  0.1775 -0.1478  0.1046
23970SOL    HW273352   7.188   4.658   5.183  0.0257 -1.4808 -0.1137
23971SOL     OW73353   4.049   3.474   2.391 -0.3235 -0.2401  0.0110
23971SOL    HW173354   4.114   3.431   2.447  0.3552  0.5577 -0.1487
23971SOL    HW273355   4.093   3.486   2.307 -1.3350 -1.4191 -0.7289
23972SOL     OW73356   6.433   2.025   4.136 -0.1926 -0.1129 -0.0093
23972SOL    HW173357   6.340   2.038   4.154 -0.2380 -0.2899 -0.1065
23972SOL    HW273358   6.438   1.936   4.101 -0.3634  0.8099 -2.5939
23973SOL     OW73359   6.782   1.786   1.802 -0.6714  0.2787 -0.8851
23973SOL    HW173360   6.759   1.712   1.746  2.2321 -1.0022 -0.5510
23973SOL    HW273361   6.830   1.846   1.745 -0.8997  0.7577 -0.5814
23974SOL     OW73362   6.010   3.294   3.906 -0.1561 -0.0602 -0.0916
23974SOL    HW173363   6.013   3.202   3.933  2.3575  0.2562  0.9833
23974SOL    HW273364   5.974   3.340   3.981  0.1646  0.0051  0.0253
23975SOL     OW73365   4.885   7.230  10.181 -0.3541 -0.1890 -0.1487
23975SOL    HW173366   4.849   7.313  10.212  0.0867 -0.8062  2.1454
23975SOL    HW273367   4.931   7.193  10.256 -0.1736 -2.3343 -1.2238
23976SOL     OW73368   3.927   7.183   8.725 -0.0079 -0.1416 -0.1462
23976SOL    HW173369   4.000   7.166   8.785  0.6254 -0.6009 -1.0226
23976SOL    HW273370   3.938   7.118   8.656 -0.7635  0.3410 -0.7262
23977SOL     OW73371   7.939   3.621   1.339 -0.4027 -0.2202  0.6599
23977SOL    HW173372   7.895   3.536   1.341 -1.5486  0.3684  1.7687
23977SOL    HW273373   7.881   3.676   1.287  0.1143  0.0104  0.3196
23978SOL     OW73374   3.720   1.023  10.156 -0.0332  0.3913  0.0094
23978SOL    HW173375   3.689   1.114  10.165 -1.2734  0.2338 -2.0105
23978SOL    HW273376   3.750   1.017  10.066 -0.5626 -1.3794 -0.0760
23979SOL     OW73377   7.730   6.054   3.789 -0.4814  0.1049  0.7899
23979SOL    HW173378   7.702   6.139   3.755 -1.6686  0.0228  1.5018
23979SOL    HW273379   7.818   6.041   3.753 -1.4799  0.1995 -1.9434
23980SOL     OW73380   1.964   5.148   8.714 -0.1792 -0.1136  0.6004
23980SOL    HW173381   2.019   5.167   8.790 -0.8752  2.0841  0.6101
23980SOL    HW273382   1.944   5.054   8.723  1.1207 -0.2879  2.1918
23981SOL     OW73383   7.905   4.060  10.961 -0.4698  0.1611 -0.1458
23981SOL    HW173384   7.888   3.974  10.999  0.8662 -0.1884 -0.2876
23981SOL    HW273385   7.916   4.043  10.868  0.1422  0.4287 -0.1239
23982SOL     OW73386   2.701   6.022   2.847 -0.4112 -0.6390  0.7768
23982SOL    HW173387   2.631   6.005   2.911 -0.1948 -0.4472  1.0660
23982SOL    HW273388   2.780   5.986   2.888 -0.1389  0.1388  0.9401
23983SOL     OW73389   0.504   1.755  11.350 -0.4230 -0.5121 -0.0644
23983SOL    HW173390   0.592   1.746  11.313  0.7899 -1.3826  2.7577
23983SOL    HW273391   0.455   1.680  11.315 -0.0847 -0.0391 -1.6233
23984SOL     OW73392   7.862   0.297   0.100  0.3225 -0.5108 -0.3695
23984SOL    HW173393   7.823   0.249   0.174  0.5046  0.4206  0.3608
23984SOL    HW273394   7.950   0.319   0.130  0.4003 -0.1317 -0.8738
23985SOL     OW73395   0.530   2.783   4.516  0.1150  0.6737  0.9380
23985SOL    HW173396   0.566   2.805   4.430  1.5096  0.3463  1.4279
23985SOL    HW273397   0.478   2.704   4.500 -0.6709  1.3158  0.1808
23986SOL     OW73398   1.588   0.070   5.171 -0.1034  0.1825  0.3534
23986SOL    HW173399   1.576  -0.019   5.205 -0.8880  1.2140  2.9935
23986SOL    HW273400   1.536   0.125   5.229 -1.1294  2.2176 -2.3199
23987SOL     OW73401   5.339   4.821   4.763  0.2458 -0.0667  0.0850
23987SOL    HW173402   5.267   4.758   4.754 -1.7853  1.7867  2.2424
23987SOL    HW273403   5.317   4.891   4.702  1.2704 -0.3151 -0.5993
23988SOL     OW73404   5.433   3.426  11.272  0.2890  0.0558  0.0682
23988SOL    HW173405   5.443   3.402  11.365 -1.4511  0.5456  0.4146
23988SOL    HW273406   5.523   3.434  11.240  0.9492  0.4647  1.8715
23989SOL     OW73407   7.585   3.995  10.649 -0.6011 -0.2315  0.0983
23989SOL    HW173408   7.506   3.941  10.641 -0.6030 -0.0286 -1.7384
23989SOL    HW273409   7.653   3.945  10.604 -0.4826  1.0325 -1.2106
23990SOL     OW73410   6.358   2.267   6.684  0.0450 -0.4979  0.5206
23990SOL    HW173411   6.263   2.261   6.669  0.1940  1.7883 -2.0931
23990SOL    HW273412   6.370   2.352   6.725  0.9149 -1.4204  2.3059
23991SOL     OW73413   0.484   7.374   2.655 -0.3082 -0.9677 -0.0357
23991SOL    HW173414   0.428   7.296   2.663  0.1793 -1.1677  2.2512
23991SOL    HW273415   0.557   7.356   2.715  0.5366  0.6573 -0.5423
23992SOL     OW73416   4.595   4.103   5.705 -0.2230 -0.0775  0.6814
23992SOL    HW173417   4.526   4.103   5.640 -1.4553  0.6534  1.9256
23992SOL    HW273418   4.676   4.112   5.655 -0.7349 -3.2590 -1.0247
23993SOL     OW73419   3.985   0.634   3.290  0.1845  0.6211 -0.4899
23993SOL    HW173420   4.004   0.666   3.202  0.9961  1.4309 -0.0526
23993SOL    HW273421   4.066   0.591   3.318  0.1981  1.0187  0.1191
23994SOL     OW73422   1.370   5.444   4.930 -0.0867 -0.1398 -0.1201
23994SOL    HW173423   1.409   5.367   4.889  1.5573  0.8212 -0.4513
23994SOL    HW273424   1.357   5.419   5.021  2.3774 -0.1949  0.2874
23995SOL     OW73425   0.156   2.922  11.857  0.6912  0.5817 -0.6442
23995SOL    HW173426   0.222   2.853  11.855 -1.0239 -1.1502 -0.1554
23995SOL    HW273427   0.177   2.977  11.782  1.3234 -1.2550 -1.8871
23996SOL     OW73428   7.300   1.262   8.323 -0.0483 -0.1125  0.1255
23996SOL    HW173429   7.358   1.331   8.293 -0.0014  0.0103  0.4953
23996SOL    HW273430   7.257   1.231   8.244 -0.2794  0.5299 -0.0039
23997SOL     OW73431   0.449   0.852   0.138  1.0606 -0.2325 -0.4452
23997SOL    HW173432   0.400   0.775   0.111  0.9411 -0.6410  0.8890
23997SOL    HW273433   0.523   0.817   0.187  1.7478  0.4557 -0.9629
23998SOL     OW73434   2.566   7.128  11.485 -0.4024 -0.3486 -0.4601
23998SOL    HW173435   2.561   7.171  11.571  1.7307 -0.9340  0.0025
23998SOL    HW273436   2.477   7.136  11.450 -1.2105  0.3575  1.5738
23999SOL     OW73437   7.165   6.740  10.932  0.6852 -0.0649  0.0937
23999SOL    HW173438   7.132   6.695  10.854 -0.9074  1.6006 -0.2529
23999SOL    HW273439   7.212   6.816  10.897  1.2069 -0.0884  0.7283
24000SOL     OW73440   5.269   6.246  11.147  0.0209  0.8614 -0.5413
24000SOL    HW173441   5.182   6.237  11.185  0.5396  0.5196  0.5912
24000SOL    HW273442   5.319   6.295  11.212  0.4200  1.9212 -1.6098
24001SOL     OW73443   5.991   0.237   9.996 -0.2284  0.4723  0.4324
24001SOL    HW173444   6.075   0.258   9.957 -0.6645  0.7149 -0.4051
24001SOL    HW273445   5.944   0.321   9.999 -0.9284  0.1255 -0.3476
24002SOL     OW73446   4.841   2.662   1.630  0.4111 -0.3290 -0.3295
24002SOL    HW173447   4.779   2.719   1.677  0.2401 -0.2902 -0.6013
24002SOL    HW273448   4.914   2.719   1.607  0.8756 -0.5268  0.5977
24003SOL     OW73449   7.513   1.148   7.848 -0.2391 -0.2475  0.2984
24003SOL    HW173450   7.583   1.164   7.785  0.1794 -0.2368  0.7652
24003SOL    HW273451   7.556   1.109   7.923 -0.8479 -0.9561  0.2915
24004SOL     OW73452   7.682   3.091   5.156 -0.7639  0.0050 -0.3861
24004SOL    HW173453   7.732   3.149   5.214 -1.2799 -0.7386  0.8535
24004SOL    HW273454   7.708   3.003   5.183 -0.8358 -0.3570 -1.4667
24005SOL     OW73455   7.042   7.343   1.528  0.3884 -0.2851  0.1221
24005SOL    HW173456   7.008   7.402   1.595  1.9630  0.0775  0.6507
24005SOL    HW273457   7.019   7.255   1.560 -0.0887 -0.0574  0.4215
24006SOL     OW73458   3.517   5.684   4.187 -0.0052 -0.1122  0.2258
24006SOL    HW173459   3.592   5.699   4.131 -0.9353  3.0504 -0.3937
24006SOL    HW273460   3.554   5.660   4.272  1.5153 -1.9040 -0.9016
24007SOL     OW73461   3.093   0.490  12.357 -0.0579 -0.1946 -0.2102
24007SOL    HW173462   3.087   0.478  12.452  0.1230 -1.1922 -0.3097
24007SOL    HW273463   3.181   0.526  12.343  0.0167 -0.2984 -0.0206
24008SOL     OW73464   7.306   6.112   3.833  0.0033  0.0463  0.3702
24008SOL    HW173465   7.351   6.190   3.865  0.2790 -0.1732  0.5321
24008SOL    HW273466   7.343   6.040   3.886 -2.0132  0.0979  1.9880
24009SOL     OW73467   2.690   7.473  10.170 -0.2969  0.4587  0.1252
24009SOL    HW173468   2.740   7.477  10.252 -0.8192  0.0793  0.4691
24009SOL    HW273469   2.742   7.416  10.113 -0.7948 -0.7057  0.8083
24010SOL     OW73470   2.547   5.925  12.346  0.3448 -0.4021 -0.1859
24010SOL    HW173471   2.511   5.997  12.294  1.4948  0.4935  0.2162
24010SOL    HW273472   2.635   5.912  12.311  0.5586 -0.8516  0.4962
24011SOL     OW73473   5.591   6.362   7.691  0.1468  0.2651 -1.1720
24011SOL    HW173474   5.499   6.336   7.705  0.2161  1.1620  1.5112
24011SOL    HW273475   5.626   6.294   7.633 -1.4786 -1.7223  0.0306
24012SOL     OW73476   7.075   1.289   3.691  0.1081 -0.2116 -0.4910
24012SOL    HW173477   7.028   1.332   3.620  0.4439 -1.6456 -1.6257
24012SOL    HW273478   7.154   1.342   3.702  0.2335 -0.1753 -1.4604
24013SOL     OW73479   2.521   5.393   4.695  0.0569  0.6157 -0.0103
24013SOL    HW173480   2.492   5.482   4.712  0.3126  0.7697 -0.3735
24013SOL    HW273481   2.465   5.361   4.625  0.5449  0.8049 -0.4954
24014SOL     OW73482   3.712   7.395   6.569  0.1742 -0.4293 -0.0780
24014SOL    HW173483   3.708   7.487   6.542 -0.6619 -0.4117  0.0754
24014SOL    HW273484   3.627   7.379   6.610 -0.1226 -1.5569 -1.0692
24015SOL     OW73485   4.020   3.042   1.566 -0.0316 -0.2174  0.2417
24015SOL    HW173486   3.986   2.955   1.542 -0.6848 -0.5245  2.0695
24015SOL    HW273487   4.067   3.072   1.489 -0.5797 -1.8078 -0.7588
24016SOL     OW73488   1.047   7.939   1.001 -0.5036 -0.5351  0.1194
24016SOL    HW173489   1.060   7.935   0.906  2.5420 -1.4454  0.4620
24016SOL    HW273490   1.010   8.026   1.016  2.3451  1.1643 -1.6698
24017SOL     OW73491   2.835   0.209   9.067 -0.7922 -0.2829 -0.8111
24017SOL    HW173492   2.920   0.167   9.079 -0.6520  0.4941  1.4156
24017SOL    HW273493   2.833   0.278   9.133 -3.1645 -0.2858 -0.7924
24018SOL     OW73494   7.387   3.996   0.406 -0.5771 -0.0347  0.0401
24018SOL    HW173495   7.480   4.010   0.386 -0.9599  0.2517 -1.7164
24018SOL    HW273496   7.367   4.061   0.474  0.3806  0.2548  0.0591
24019SOL     OW73497   0.388   5.667   5.957 -0.0504 -0.0695 -0.4350
24019SOL    HW173498   0.404   5.594   5.898  0.4522 -2.3398  2.2750
24019SOL    HW273499   0.293   5.679   5.955 -0.2571 -1.4843 -0.2454
24020SOL     OW73500   6.383   2.158   8.444 -0.4082  0.5556  0.2507
24020SOL    HW173501   6.377   2.181   8.351 -0.4982 -0.1502  0.0738
24020SOL    HW273502   6.464   2.200   8.474  0.5464 -0.6133 -0.5815
24021SOL     OW73503   1.579   0.056   2.725 -0.1478  0.5220 -0.2038
24021SOL    HW173504   1.495   0.023   2.758 -0.1393  0.1962 -0.5001
24021SOL    HW273505   1.631  -0.022   2.709  0.9324  0.7715  1.8048
24022SOL     OW73506   2.551   0.112   1.337 -0.9839  0.6344  0.0281
24022SOL    HW173507   2.567   0.202   1.367 -0.2229  0.2233  0.9342
24022SOL    HW273508   2.568   0.114   1.243 -1.7068  1.5976 -0.0944
24023SOL     OW73509   0.797   6.696   5.008 -0.6915 -0.1748  0.1963
24023SOL    HW173510   0.869   6.645   5.045 -1.5626 -1.6215 -0.0267
24023SOL    HW273511   0.757   6.739   5.084 -1.1141 -1.3535  0.6551
24024SOL     OW73512   2.705   4.798  11.254 -0.3432 -0.0012 -0.6514
24024SOL    HW173513   2.689   4.856  11.329  1.5367 -0.2405 -0.0129
24024SOL    HW273514   2.723   4.858  11.181 -0.0346  0.2205 -0.3933
24025SOL     OW73515   0.898   6.122   7.631  0.0195  0.4258 -0.1563
24025SOL    HW173516   0.909   6.204   7.583  1.0234  0.5414  0.2574
24025SOL    HW273517   0.806   6.122   7.657  0.2224  1.8881  0.6621
24026SOL     OW73518   4.826   5.165  12.442 -0.1841 -0.3246 -0.3840
24026SOL    HW173519   4.738   5.165  12.481  0.0242 -1.4279  0.1057
24026SOL    HW273520   4.855   5.075  12.449  1.7656  0.3623  1.1753
24027SOL     OW73521   7.010   1.042   1.257  0.0199 -0.3251 -0.3066
24027SOL    HW173522   7.006   0.983   1.181  0.9150 -0.6938 -0.0774
24027SOL    HW273523   6.999   0.984   1.332  0.7525 -0.1885 -0.0848
24028SOL     OW73524   2.658   2.851   0.681  0.6645 -0.5996 -0.2539
24028SOL    HW173525   2.748   2.824   0.661  0.9178  0.6071 -0.8110
24028SOL    HW273526   2.653   2.941   0.650 -0.9041 -0.8271 -0.7045
24029SOL     OW73527   2.725   4.267   1.638  0.3532 -0.4777  0.1258
24029SOL    HW173528   2.726   4.358   1.667 -0.4334 -0.3970 -0.1073
24029SOL    HW273529   2.780   4.222   1.703 -0.0737 -0.0168  0.8176
24030SOL     OW73530   0.933   1.372   0.261  0.6706 -0.8335  0.4009
24030SOL    HW173531   0.916   1.456   0.218  0.6992 -0.5737  0.8985
24030SOL    HW273532   0.949   1.312   0.188  6.2185  0.6617 -0.0328
24031SOL     OW73533   5.212   0.583   9.066 -0.2703  0.0070 -0.2204
24031SOL    HW173534   5.182   0.672   9.046 -0.7188 -0.4894 -2.0014
24031SOL    HW273535   5.305   0.584   9.045  0.0091  0.3711  0.9827
24032SOL     OW73536   0.275   4.638   7.065 -0.4694  0.3820  0.5032
24032SOL    HW173537   0.190   4.608   7.095 -0.7313  1.9522  1.4519
24032SOL    HW273538   0.287   4.596   6.979 -1.4638 -1.0938  1.0528
24033SOL     OW73539   2.705   7.856   1.847 -0.4887 -0.5559  0.1366
24033SOL    HW173540   2.774   7.810   1.800 -1.5433 -0.7601 -1.2754
24033SOL    HW273541   2.625   7.808   1.827 -1.0857 -0.2673  1.6624
24034SOL     OW73542   6.696   7.248  10.574  0.0543 -0.5395  0.6870
24034SOL    HW173543   6.607   7.215  10.588 -1.2967  2.3795 -0.1002
24034SOL    HW273544   6.723   7.279  10.661 -0.1288 -0.4845  0.7252
24035SOL     OW73545   6.735   6.387  11.895  0.5700 -0.1756  0.0955
24035SOL    HW173546   6.679   6.464  11.895  0.9828  0.1428 -1.1046
24035SOL    HW273547   6.745   6.365  11.988  0.2679  1.0763  0.4423
24036SOL     OW73548   6.150   4.031   5.503 -0.0051  0.0045  0.5636
24036SOL    HW173549   6.108   4.087   5.438  0.4502 -0.0959  0.1688
24036SOL    HW273550   6.137   4.075   5.587  1.8140  1.6141  0.0709
24037SOL     OW73551   7.883   4.374  11.216 -0.1017 -0.2159 -0.7681
24037SOL    HW173552   7.922   4.455  11.183  1.2957 -0.8808 -0.8293
24037SOL    HW273553   7.794   4.398  11.242  0.1566  1.2345 -1.1785
24038SOL     OW73554   4.057   6.043   3.370 -0.4600  0.1568  0.8284
24038SOL    HW173555   4.090   5.954   3.365  0.4664  0.4955  0.5314
24038SOL    HW273556   3.975   6.037   3.419 -0.4207 -0.8525  0.7773
24039SOL     OW73557   2.943   3.285   5.795  0.1317  0.0481  0.1028
24039SOL    HW173558   2.927   3.196   5.827 -0.3432  0.3189  0.6289
24039SOL    HW273559   2.968   3.335   5.872  0.4199  0.3698 -0.1950
24040SOL     OW73560   4.557   3.559   9.798 -0.0873 -0.0082  0.2747
24040SOL    HW173561   4.497   3.633   9.789 -0.8894 -0.8429 -1.8708
24040SOL    HW273562   4.621   3.571   9.729 -0.1308 -1.2132 -0.0086
24041SOL     OW73563   3.467   7.676   7.233 -0.6390 -0.6435 -0.3721
24041SOL    HW173564   3.553   7.644   7.262 -0.3412  1.0199  0.7267
24041SOL    HW273565   3.444   7.618   7.160  0.8772 -1.8585  0.0448
24042SOL     OW73566   1.588   4.629   4.348  0.0449  0.2854 -0.3235
24042SOL    HW173567   1.614   4.538   4.331  0.1804  0.4682 -1.1444
24042SOL    HW273568   1.495   4.632   4.326 -0.6037 -0.2404  2.1108
24043SOL     OW73569   7.134   2.820   9.745  0.3615 -0.4444 -0.4678
24043SOL    HW173570   7.154   2.843   9.654 -2.2655  1.0653 -0.7654
24043SOL    HW273571   7.176   2.889   9.797  1.1817 -0.8602 -0.5549
24044SOL     OW73572   4.236   1.228   1.001  0.0585 -0.4634  0.3469
24044SOL    HW173573   4.223   1.155   1.061 -2.6357  0.4223  0.9682
24044SOL    HW273574   4.256   1.302   1.058  0.6340 -0.2634 -0.1058
24045SOL     OW73575   5.866   4.085  11.159  0.2357 -0.1193  0.0416
24045SOL    HW173576   5.936   4.093  11.095 -1.6635  0.1193 -2.1500
24045SOL    HW273577   5.903   4.032  11.230  2.4146 -0.4402 -1.2738
24046SOL     OW73578   7.841   4.629  11.524 -0.0754  0.6832  0.7316
24046SOL    HW173579   7.844   4.722  11.547  2.1437  0.8317  0.0728
24046SOL    HW273580   7.806   4.586  11.603  0.8650  1.8569  1.8276
24047SOL     OW73581   6.122   1.656  10.011  0.2011  0.2954 -0.5726
24047SOL    HW173582   6.199   1.690   9.965  0.7616  0.2252  0.2960
24047SOL    HW273583   6.055   1.722   9.996  0.4288  0.3708 -1.3211
24048SOL     OW73584   0.682   0.878   7.812 -0.1725  0.2119 -0.4397
24048SOL    HW173585   0.630   0.923   7.879 -2.9434  0.3682 -2.5041
24048SOL    HW273586   0.751   0.834   7.861 -1.6529  0.8259  2.4424
24049SOL     OW73587   7.467   6.724  10.820  0.1897 -0.1464  0.3862
24049SOL    HW173588   7.442   6.640  10.782 -0.4099 -0.1624  0.8188
24049SOL    HW273589   7.561   6.731  10.802 -0.3023  0.5177 -2.4104
24050SOL     OW73590   6.394   5.572   9.397  0.2497  0.1283 -0.6119
24050SOL    HW173591   6.391   5.578   9.302  2.5355  3.0034 -0.6566
24050SOL    HW273592   6.324   5.630   9.427 -0.1085 -0.3403 -0.5342
24051SOL     OW73593   7.738   2.825  11.233 -0.1667  0.0183  0.4351
24051SOL    HW173594   7.700   2.873  11.306 -1.0691  1.3557 -0.8712
24051SOL    HW273595   7.723   2.733  11.254 -1.7117  0.4299  1.2397
24052SOL     OW73596   5.278   5.935   8.443  0.0823 -0.4934 -0.2712
24052SOL    HW173597   5.193   5.971   8.469 -0.3341 -0.3717 -1.7098
24052SOL    HW273598   5.264   5.840   8.440  0.3050 -0.5612  0.4765
24053SOL     OW73599   6.565   5.349   3.705  0.3585  0.0060 -0.6839
24053SOL    HW173600   6.659   5.339   3.691  0.2593 -2.5375 -0.1068
24053SOL    HW273601   6.529   5.263   3.684 -1.3005 -0.3409  2.8212
24054SOL     OW73602   6.926   0.791   2.499  0.2128  0.2305 -0.2038
24054SOL    HW173603   7.009   0.821   2.538 -0.2389 -0.9887  1.9031
24054SOL    HW273604   6.865   0.789   2.573 -0.2840 -3.7875 -0.4771
24055SOL     OW73605   6.878   3.029   6.859  0.0828  0.0959  0.2998
24055SOL    HW173606   6.885   2.978   6.778 -2.4986  0.8452 -0.4745
24055SOL    HW273607   6.875   3.120   6.830 -2.8512  0.3123  0.9642
24056SOL     OW73608   7.205   2.477   8.485 -0.5553  0.8259  0.2510
24056SOL    HW173609   7.287   2.512   8.451  0.7253 -0.3678  1.9457
24056SOL    HW273610   7.147   2.473   8.409  1.3927  0.4290 -1.2730
24057SOL     OW73611   0.649   6.498   2.918  0.0471 -0.1271 -0.8153
24057SOL    HW173612   0.642   6.415   2.869 -0.2336 -1.2851  1.0826
24057SOL    HW273613   0.701   6.475   2.995 -1.4937  1.0115  0.6367
24058SOL     OW73614   7.523   1.915   2.423  0.7898  0.5006  0.2335
24058SOL    HW173615   7.519   1.835   2.475  0.9509  0.7051  0.5601
24058SOL    HW273616   7.432   1.933   2.400  0.7649  0.1539  0.0495
24059SOL     OW73617   1.055   4.631   7.666 -0.4340  0.2579  0.5096
24059SOL    HW173618   1.049   4.709   7.611  0.4639  0.4425  0.6701
24059SOL    HW273619   0.964   4.608   7.684 -0.8992 -0.8710 -2.5524
24060SOL     OW73620   1.540   1.070  12.285  0.1005  0.5878  0.7562
24060SOL    HW173621   1.524   0.996  12.344  0.4043 -0.4495 -0.4449
24060SOL    HW273622   1.616   1.114  12.322  1.4840 -1.1779  0.0982
24061SOL     OW73623   3.424   5.170   0.485 -0.3887  0.5579 -0.0388
24061SOL    HW173624   3.428   5.247   0.429  0.4002 -0.0136 -0.7922
24061SOL    HW273625   3.486   5.189   0.556  0.7328  0.1439 -0.8696
24062SOL     OW73626   1.065   6.812   1.680 -0.5259  0.3394  0.1924
24062SOL    HW173627   1.080   6.875   1.750 -0.9149 -0.0104  0.5962
24062SOL    HW273628   0.989   6.847   1.633  0.1566  0.9404 -0.4927
24063SOL     OW73629   3.691   1.849   3.282  0.2168  0.4029 -0.0320
24063SOL    HW173630   3.622   1.783   3.279  3.0651 -2.8585 -2.3967
24063SOL    HW273631   3.750   1.818   3.352  0.8679  1.3080 -0.1635
24064SOL     OW73632   0.133   2.448  10.757 -0.4136 -0.3081  0.6206
24064SOL    HW173633   0.060   2.430  10.816  0.1376  1.0420  1.7981
24064SOL    HW273634   0.183   2.367  10.755 -1.5389 -1.0218  0.3648
24065SOL     OW73635   7.200   3.747   0.104 -0.0065  1.0343 -0.6839
24065SOL    HW173636   7.113   3.764   0.068 -0.2865  0.5806 -0.2437
24065SOL    HW273637   7.220   3.825   0.156 -1.5660 -0.1238  1.8760
24066SOL     OW73638   4.688   2.839   1.749 -0.2138  0.3558  0.4508
24066SOL    HW173639   4.633   2.890   1.690 -0.1955  0.5080  0.5665
24066SOL    HW273640   4.641   2.837   1.832  0.2809  1.0770  0.7573
24067SOL     OW73641   3.879   0.356   9.760  0.6074  0.0284  0.5344
24067SOL    HW173642   3.853   0.420   9.694  1.5136 -0.1640 -0.0312
24067SOL    HW273643   3.916   0.409   9.831  2.6011  0.1319 -0.4959
24068SOL     OW73644   5.958   5.478   1.767  0.1676 -0.2999  0.4973
24068SOL    HW173645   5.952   5.509   1.677 -0.1068  0.7900  0.8722
24068SOL    HW273646   6.051   5.458   1.779  0.4773  0.9601  0.3984
24069SOL     OW73647   7.281   2.054   4.560  0.1827  0.1344 -0.2188
24069SOL    HW173648   7.266   2.050   4.654 -0.6159 -1.0571 -0.3714
24069SOL    HW273649   7.289   2.147   4.541  1.8284  0.3403  1.2358
24070SOL     OW73650   3.910   0.347   5.660 -0.5547  0.6619 -0.0666
24070SOL    HW173651   3.889   0.287   5.589  0.2103  0.7442 -0.3734
24070SOL    HW273652   4.005   0.351   5.661 -0.5794  2.0362 -0.2121
24071SOL     OW73653   2.271   3.677   3.161 -0.5217  0.4076  0.0216
24071SOL    HW173654   2.318   3.623   3.097  1.0596  1.3193  0.3317
24071SOL    HW273655   2.288   3.634   3.245 -2.2903 -0.5826 -0.0803
24072SOL     OW73656   4.644   5.326   4.120  0.2426 -0.1982 -0.2157
24072SOL    HW173657   4.590   5.398   4.088  0.4966 -0.0485 -0.3124
24072SOL    HW273658   4.629   5.324   4.214  0.3097  0.0471 -0.1993
24073SOL     OW73659   5.571   4.299  12.146  0.2364  0.5021  0.2044
24073SOL    HW173660   5.589   4.320  12.237 -1.0486  0.0267  0.5916
24073SOL    HW273661   5.631   4.227  12.125 -0.2555 -0.1758  1.0438
24074SOL     OW73662   0.773   5.541   1.084 -0.2449 -0.4601 -0.0464
24074SOL    HW173663   0.779   5.538   0.988 -1.8560  1.2062 -0.2537
24074SOL    HW273664   0.862   5.563   1.112 -0.0593  0.4720 -1.2668
24075SOL     OW73665   6.479   4.007   3.711 -0.3454 -0.2487  0.5105
24075SOL    HW173666   6.564   3.965   3.726 -0.3005 -0.1744  0.4672
24075SOL    HW273667   6.415   3.946   3.747 -0.2744 -0.3144  0.5260
24076SOL     OW73668   4.976   4.847   1.579  0.2713  0.0083  0.0665
24076SOL    HW173669   4.944   4.870   1.491 -0.7680 -2.1258 -0.1620
24076SOL    HW273670   4.902   4.804   1.621  0.6900  1.1480  2.1087
24077SOL     OW73671   6.070   2.342   3.870 -0.4900 -0.4157  0.8890
24077SOL    HW173672   6.120   2.260   3.878  1.0302  0.3724 -0.0565
24077SOL    HW273673   5.981   2.317   3.893 -0.0986 -2.3678  0.5356
24078SOL     OW73674   5.770   3.369  10.259 -0.2836  0.4200  0.5114
24078SOL    HW173675   5.761   3.285  10.214  1.5521  0.0856  0.6873
24078SOL    HW273676   5.749   3.349  10.351 -1.9505  0.6441  0.1988
24079SOL     OW73677   3.382   6.495   8.271  0.1711 -0.0548  0.3823
24079SOL    HW173678   3.471   6.490   8.306  0.0234 -0.3486  0.7205
24079SOL    HW273679   3.394   6.509   8.177  0.6262 -2.7051 -0.0368
24080SOL     OW73680   1.891   1.052   2.719 -0.0105 -0.4449 -0.2540
24080SOL    HW173681   1.829   0.984   2.745  2.5679 -2.6319  0.6446
24080SOL    HW273682   1.851   1.134   2.746 -3.1095 -1.5603 -1.0611
24081SOL     OW73683   3.581   6.744   5.924  0.7251  0.1081  0.2625
24081SOL    HW173684   3.655   6.686   5.908  0.5460 -0.1364  0.3179
24081SOL    HW273685   3.541   6.758   5.838 -0.8038 -1.9617  0.5579
24082SOL     OW73686   4.835   5.224   2.295  0.0150 -0.2056  0.0112
24082SOL    HW173687   4.915   5.176   2.317  0.1764  1.0363  2.5674
24082SOL    HW273688   4.860   5.281   2.222  0.9080 -1.1719 -0.4610
24083SOL     OW73689   6.649   0.324   3.565 -0.1912 -0.9004 -0.2190
24083SOL    HW173690   6.648   0.255   3.631  0.1126 -0.6355  0.0586
24083SOL    HW273691   6.585   0.388   3.596  1.7612  0.4669  1.1373
24084SOL     OW73692   1.104   4.379  11.651 -0.0502 -0.4147 -0.3775
24084SOL    HW173693   1.089   4.463  11.608 -1.1037 -0.2547  0.2698
24084SOL    HW273694   1.101   4.315  11.579  0.6065  0.0790 -0.8519
24085SOL     OW73695   0.332   5.569  10.527 -0.3296 -0.0336  0.2262
24085SOL    HW173696   0.297   5.648  10.568 -1.5972 -0.5574  0.2075
24085SOL    HW273697   0.328   5.503  10.597 -1.7335 -0.7224 -0.4589
24086SOL     OW73698   4.590   4.771   9.314 -0.0982 -0.2800 -0.2315
24086SOL    HW173699   4.539   4.805   9.240 -1.6267 -0.0219  0.8910
24086SOL    HW273700   4.584   4.676   9.306 -3.7246 -0.3994  1.6730
24087SOL     OW73701   6.840   5.267   3.674 -0.4142  0.0656 -0.5392
24087SOL    HW173702   6.802   5.222   3.750  0.8823 -0.2857 -0.0551
24087SOL    HW273703   6.919   5.215   3.654  1.3509  2.2916  0.2588
24088SOL     OW73704   7.517   6.502  11.761 -0.0023  0.3617  0.0193
24088SOL    HW173705   7.438   6.510  11.814  0.2772  0.6523  0.3974
24088SOL    HW273706   7.587   6.486  11.824 -0.0494 -2.0508 -0.4506
24089SOL     OW73707   4.020   7.259  11.037 -0.0937  0.5882  0.0925
24089SOL    HW173708   4.029   7.267  11.132  1.2054  1.2408 -0.0643
24089SOL    HW273709   4.100   7.299  11.002 -0.2481 -0.2281 -1.2575
24090SOL     OW73710   0.888   2.986   1.048  0.5294  0.0518 -0.3701
24090SOL    HW173711   0.822   2.923   1.078  0.2350  0.7723  0.5542
24090SOL    HW273712   0.957   2.932   1.010  0.4793 -0.8653  0.7916
24091SOL     OW73713   2.403   1.829   2.698  0.2387  0.8171 -0.1337
24091SOL    HW173714   2.428   1.781   2.777  0.3962 -1.0276 -1.2413
24091SOL    HW273715   2.479   1.882   2.676  1.6512 -1.4824 -1.0801
24092SOL     OW73716   7.860   3.878  11.644 -0.3227  0.3710 -0.1928
24092SOL    HW173717   7.806   3.950  11.612 -2.0804 -0.5522  0.5386
24092SOL    HW273718   7.804   3.833  11.708  1.1656 -0.9133  0.2691
24093SOL     OW73719   6.453   4.305   1.532  0.2145 -0.3886 -0.0878
24093SOL    HW173720   6.397   4.253   1.474 -3.8052  1.5699  1.6730
24093SOL    HW273721   6.501   4.362   1.472 -0.0535 -1.7414 -1.6817
24094SOL     OW73722   7.425   2.041   3.502  0.2038  0.2230  0.7678
24094SOL    HW173723   7.332   2.021   3.500  0.1679  0.2996  1.3770
24094SOL    HW273724   7.439   2.098   3.426  0.4673 -2.6387 -1.4920
24095SOL     OW73725   2.866   6.685   1.080  0.1224  0.3805 -0.4343
24095SOL    HW173726   2.770   6.687   1.071  0.0766  0.8008  0.1208
24095SOL    HW273727   2.891   6.776   1.091  0.6528  0.3292 -1.1726
24096SOL     OW73728   6.839   2.296   2.402 -0.4036 -0.7560 -0.0213
24096SOL    HW173729   6.818   2.383   2.435  1.1265  0.2629 -1.5905
24096SOL    HW273730   6.763   2.271   2.348 -0.2304  0.2421 -0.7391
24097SOL     OW73731   1.119   0.915  10.108 -0.2640  0.2799 -0.3899
24097SOL    HW173732   1.082   0.973  10.174 -2.6850 -0.3075 -1.1523
24097SOL    HW273733   1.173   0.853  10.158 -1.4285  0.3110  0.9521
24098SOL     OW73734   5.978   3.264   8.573 -0.2588 -0.0152 -0.1772
24098SOL    HW173735   5.900   3.209   8.583  1.1117 -1.7381  1.8879
24098SOL    HW273736   5.965   3.308   8.489 -2.5674 -1.6827 -0.8085
24099SOL     OW73737   1.747   7.083   3.208  0.1102 -0.2931 -0.3156
24099SOL    HW173738   1.811   7.150   3.187  0.7440  0.0786  2.4134
24099SOL    HW273739   1.662   7.126   3.194  0.5028  1.0867  1.2525
24100SOL     OW73740   2.738   0.531   8.045  0.0879 -0.0511  0.2347
24100SOL    HW173741   2.723   0.537   8.140  0.8687  1.2415  0.3073
24100SOL    HW273742   2.768   0.442   8.031 -0.9465 -0.5436  1.0650
24101SOL     OW73743   4.051   0.023   0.046 -0.1666  0.0683 -0.1672
24101SOL    HW173744   3.989   0.053  -0.020  0.1623 -1.6000 -1.3102
24101SOL    HW273745   4.000   0.019   0.127 -0.8843  1.0504 -0.5571
24102SOL     OW73746   0.524   1.928   8.371 -0.0690 -0.2374  0.0775
24102SOL    HW173747   0.492   1.854   8.319  1.8256 -1.0600  0.0043
24102SOL    HW273748   0.460   1.937   8.443 -1.8368 -0.1187 -1.4173
24103SOL     OW73749   6.481   2.866   1.903 -0.4010 -0.2143 -0.2950
24103SOL    HW173750   6.468   2.931   1.972  0.9203  0.9960 -1.1389
24103SOL    HW273751   6.496   2.784   1.949  1.4851  0.7523  0.9223
24104SOL     OW73752   5.751   4.534  12.247  0.0094  0.5032  0.9330
24104SOL    HW173753   5.674   4.587  12.229 -2.5063 -2.9417  0.4865
24104SOL    HW273754   5.742   4.509  12.339 -1.2054 -2.2834  0.1717
24105SOL     OW73755   7.726   4.656  10.796  0.3296  0.0575 -0.7680
24105SOL    HW173756   7.818   4.633  10.803 -0.2568 -2.4996 -0.6145
24105SOL    HW273757   7.685   4.616  10.873 -1.2848 -1.2293 -2.2105
24106SOL     OW73758   4.618   2.483   3.443  0.9396  0.1740 -0.6271
24106SOL    HW173759   4.522   2.481   3.445  0.9247 -2.4881  1.1696
24106SOL    HW273760   4.640   2.500   3.352 -1.2418  0.0321 -1.2414
24107SOL     OW73761   1.044   5.117   7.063 -0.6551 -0.9201  0.2461
24107SOL    HW173762   0.994   5.035   7.055 -0.5384 -1.1384  1.4666
24107SOL    HW273763   1.135   5.090   7.055 -0.6512 -0.7752 -0.2236
24108SOL     OW73764   7.455   6.247   8.185  0.1418  0.2247  0.2057
24108SOL    HW173765   7.411   6.164   8.203 -0.3037 -0.1761 -2.4025
24108SOL    HW273766   7.387   6.304   8.151  0.4819  1.6761  1.7970
24109SOL     OW73767   7.975   2.180   1.344  0.4796  0.2085 -0.1815
24109SOL    HW173768   7.888   2.142   1.357  0.7500 -1.0094 -1.6062
24109SOL    HW273769   8.028   2.107   1.311  2.1329  0.8494  0.8851
24110SOL     OW73770   3.448   5.345   9.216 -0.2563 -0.0325  0.4978
24110SOL    HW173771   3.451   5.250   9.225  0.9965  0.0516  1.1499
24110SOL    HW273772   3.539   5.373   9.227 -0.0719  1.0158 -2.7231
24111SOL     OW73773   6.469   4.020   8.584 -0.2011 -0.6705 -0.2194
24111SOL    HW173774   6.423   3.956   8.530 -0.1571 -0.4459 -0.5298
24111SOL    HW273775   6.401   4.058   8.639 -0.4147 -0.2836 -0.7316
24112SOL     OW73776   5.175   5.196   1.067  0.2822  0.1488  0.2252
24112SOL    HW173777   5.196   5.114   1.022  0.2727  0.4051 -0.2601
24112SOL    HW273778   5.168   5.172   1.159 -2.7344 -1.0247 -0.1778
24113SOL     OW73779   3.103   7.533   6.061  0.1017  0.7363 -0.1569
24113SOL    HW173780   3.197   7.553   6.064 -0.4721  4.6681 -2.0616
24113SOL    HW273781   3.085   7.521   5.968 -1.4059  0.8147  0.1138
24114SOL     OW73782   6.505   6.786  10.705 -0.3999  0.0481 -0.6058
24114SOL    HW173783   6.419   6.762  10.671 -1.0779  2.5410 -0.8421
24114SOL    HW273784   6.492   6.872  10.744  2.0110  0.5105 -0.6775
24115SOL     OW73785   2.364   4.648   3.876  0.6140  0.5397  0.0732
24115SOL    HW173786   2.446   4.684   3.910 -0.0284  1.0950  1.1117
24115SOL    HW273787   2.360   4.678   3.785  1.8455 -0.0328 -0.1908
24116SOL     OW73788   1.884   1.374   6.207 -0.3038 -0.1600 -0.2464
24116SOL    HW173789   1.973   1.408   6.207 -0.3724  0.0208 -0.4988
24116SOL    HW273790   1.851   1.394   6.120 -1.2315  1.4272  0.4476
24117SOL     OW73791   2.459   6.112  10.611 -0.0058  0.1663 -0.2941
24117SOL    HW173792   2.395   6.057  10.655  1.6796  0.4664  2.9029
24117SOL    HW273793   2.520   6.051  10.571 -0.0627 -0.2454  0.2301
24118SOL     OW73794   4.104   6.281   8.727 -0.5833 -0.4669 -0.4398
24118SOL    HW173795   4.108   6.201   8.673 -2.6058 -0.5443 -0.5875
24118SOL    HW273796   4.111   6.249   8.817 -3.7994 -1.2266 -0.3265
24119SOL     OW73797   0.987   0.395   8.026  0.5816 -0.2743  0.2413
24119SOL    HW173798   1.001   0.454   8.101 -0.4202 -0.4951  0.6273
24119SOL    HW273799   0.892   0.381   8.025  0.7494 -1.4500 -0.1788
24120SOL     OW73800   5.792   0.496   0.701  0.1904 -0.0840  0.3701
24120SOL    HW173801   5.821   0.549   0.627 -0.0582 -0.9741 -0.3843
24120SOL    HW273802   5.797   0.406   0.670 -0.5393 -0.4365  1.2194
24121SOL     OW73803   4.508   3.017  10.856 -0.1998 -0.5271  0.0850
24121SOL    HW173804   4.464   3.078  10.796  0.3265  0.1710  0.3906
24121SOL    HW273805   4.436   2.976  10.905 -0.5634 -0.1238 -0.0988
24122SOL     OW73806   3.353   0.712   3.348  0.1947  1.0188  0.1550
24122SOL    HW173807   3.377   0.761   3.427 -1.0686  2.0495 -0.0582
24122SOL    HW273808   3.393   0.762   3.276  1.7952 -0.2082  0.1264
24123SOL     OW73809   2.166   6.777   9.348  0.0525 -0.2094  0.2674
24123SOL    HW173810   2.131   6.710   9.290 -0.0990 -0.1244  0.2603
24123SOL    HW273811   2.201   6.843   9.290  0.0242 -0.1896  0.2725
24124SOL     OW73812   5.453   2.533   9.233 -0.7050  0.6316 -0.4894
24124SOL    HW173813   5.542   2.555   9.209  0.2622 -2.2611  0.0463
24124SOL    HW273814   5.406   2.526   9.150 -0.4227  1.9767 -0.7829
24125SOL     OW73815   5.763   3.417   9.345  0.0811  0.1952 -0.3713
24125SOL    HW173816   5.774   3.340   9.400  1.4987  0.3745 -0.3783
24125SOL    HW273817   5.716   3.385   9.268 -0.1876 -0.4471  0.0512
24126SOL     OW73818   7.174   0.706   9.411  0.0870  0.1318  0.1159
24126SOL    HW173819   7.222   0.628   9.439 -1.3936 -0.8328  0.0977
24126SOL    HW273820   7.217   0.733   9.330  0.8070 -0.4819  0.2808
24127SOL     OW73821   4.509   6.578   7.599  0.3876  0.0446  0.5508
24127SOL    HW173822   4.586   6.522   7.586  1.4763  1.9326 -1.9596
24127SOL    HW273823   4.438   6.533   7.554  0.4472 -0.7894  1.2583
24128SOL     OW73824   6.592   6.536   3.427  0.6646 -0.1634  0.1654
24128SOL    HW173825   6.582   6.460   3.483 -0.0127  0.5407  1.0272
24128SOL    HW273826   6.613   6.500   3.340  1.8895 -1.2534  0.8840
24129SOL     OW73827   7.001   7.573  11.617 -0.7877  0.1570 -0.1768
24129SOL    HW173828   6.928   7.630  11.642 -0.5759  0.1064  0.5813
24129SOL    HW273829   6.990   7.560  11.523 -0.8244  1.4644 -0.3692
24130SOL     OW73830   0.468   2.121   5.277  0.4058  0.2851 -0.6004
24130SOL    HW173831   0.425   2.073   5.348  0.2963  1.4708  0.1715
24130SOL    HW273832   0.561   2.114   5.297  0.3170  2.2773  0.8545
24131SOL     OW73833   6.745   2.244   5.127 -0.5273 -0.3131  0.2301
24131SOL    HW173834   6.756   2.149   5.121  0.4319 -0.3697  2.1957
24131SOL    HW273835   6.660   2.255   5.170 -0.5934 -0.2960  0.0931
24132SOL     OW73836   6.313   0.646   1.001 -0.0374  0.1349 -0.0188
24132SOL    HW173837   6.344   0.709   1.067 -0.6640  0.3120  0.1108
24132SOL    HW273838   6.261   0.583   1.051  1.5413 -1.1895  0.0515
24133SOL     OW73839   3.765   0.705  10.387 -0.7859 -0.4245 -0.1547
24133SOL    HW173840   3.831   0.710  10.318 -3.5782  2.0677 -2.9554
24133SOL    HW273841   3.792   0.769  10.452 -0.3978  0.5494 -1.2466
24134SOL     OW73842   1.275   7.314   2.509 -0.1538  0.3477 -0.2306
24134SOL    HW173843   1.344   7.249   2.501  1.6695  2.3950 -3.2692
24134SOL    HW273844   1.196   7.270   2.479  0.4369 -1.1778  0.3852
24135SOL     OW73845   5.450   5.608   7.374  0.0956  0.5238  0.2699
24135SOL    HW173846   5.521   5.666   7.348  1.7598 -1.3436  0.4271
24135SOL    HW273847   5.401   5.593   7.293  0.0971  1.4924  0.0731
24136SOL     OW73848   5.767   0.491   3.003  0.1569  0.5193 -0.1600
24136SOL    HW173849   5.821   0.560   2.964  1.3368 -1.0973 -1.5341
24136SOL    HW273850   5.778   0.503   3.097  0.1423  2.3252 -0.3451
24137SOL     OW73851   3.849   6.281   2.101  0.0414  0.1134  0.0746
24137SOL    HW173852   3.785   6.351   2.112 -0.9551 -0.8942  1.0062
24137SOL    HW273853   3.934   6.323   2.117 -0.2851  1.5969 -1.7225
24138SOL     OW73854   7.789   4.972   2.112 -0.3018  0.3591  0.0320
24138SOL    HW173855   7.822   4.886   2.087 -0.7227  0.0064  0.6561
24138SOL    HW273856   7.840   5.034   2.060 -1.2478 -0.3413 -1.7948
24139SOL     OW73857   0.750   3.594   0.337 -0.2681 -0.5999  0.2996
24139SOL    HW173858   0.693   3.664   0.304 -0.7481 -1.0079  0.2555
24139SOL    HW273859   0.822   3.640   0.379 -0.9732 -0.0669  0.9521
24140SOL     OW73860   1.338   1.094   6.213 -0.1284 -0.8141  0.9655
24140SOL    HW173861   1.304   1.113   6.301  1.3456 -0.8935  1.5854
24140SOL    HW273862   1.413   1.037   6.229  0.2142 -0.7529 -0.3629
24141SOL     OW73863   5.511   6.345   3.033 -0.1180 -0.2420 -0.1117
24141SOL    HW173864   5.465   6.426   3.051 -0.6564 -0.5287 -0.1892
24141SOL    HW273865   5.593   6.373   2.992 -1.7091  0.1992 -3.3183
24142SOL     OW73866   2.758   6.201   3.873  0.0653 -0.3387  0.1643
24142SOL    HW173867   2.770   6.186   3.967  0.3328 -0.1186  0.1684
24142SOL    HW273868   2.685   6.263   3.868  1.7048  1.7222  0.3808
24143SOL     OW73869   4.340   0.852   2.801  0.1148 -0.1646  0.3663
24143SOL    HW173870   4.250   0.883   2.819 -0.2664 -1.9793  1.9380
24143SOL    HW273871   4.330   0.787   2.732 -0.2756 -2.4720  2.4719
24144SOL     OW73872   5.880   5.979  11.731 -0.6249  0.0320 -0.1164
24144SOL    HW173873   5.924   5.950  11.651 -0.9839 -1.0563  0.0652
24144SOL    HW273874   5.950   6.019  11.783 -0.2050 -0.0828 -0.5868
24145SOL     OW73875   3.131   5.890   5.502 -0.5576 -0.7471 -0.2705
24145SOL    HW173876   3.041   5.881   5.531  0.1245 -3.9226  1.3039
24145SOL    HW273877   3.128   5.872   5.408 -1.7985  1.7543 -0.7838
24146SOL     OW73878   3.194   5.220   9.308 -0.5394 -0.3621 -0.0057
24146SOL    HW173879   3.121   5.194   9.365 -0.0482 -1.2948  0.2305
24146SOL    HW273880   3.252   5.144   9.309  1.3522  1.0243  1.2910
24147SOL     OW73881   7.674   7.983   3.931 -0.3616  0.3541 -0.2721
24147SOL    HW173882   7.585   8.001   3.961  0.0262  1.2113  0.3768
24147SOL    HW273883   7.681   8.028   3.847 -0.0147  1.7156  0.4575
24148SOL     OW73884   3.079   5.005   4.609 -0.0407  0.7529 -0.1482
24148SOL    HW173885   3.150   4.952   4.573 -0.0437  0.8972 -0.3747
24148SOL    HW273886   3.113   5.039   4.691 -0.3709 -0.3395  0.4576
24149SOL     OW73887   3.843   6.868   3.233  0.6267  0.4435  0.0676
24149SOL    HW173888   3.926   6.877   3.187  0.5510  1.4858  0.1037
24149SOL    HW273889   3.806   6.785   3.202  1.0189  0.6658 -1.0198
24150SOL     OW73890   3.613   7.763   4.077 -0.2117 -0.4682 -0.7039
24150SOL    HW173891   3.654   7.726   4.156  1.7915 -1.5570 -2.1648
24150SOL    HW273892   3.580   7.848   4.105  0.4703 -0.8121  1.3163
24151SOL     OW73893   0.557   3.706   7.795  0.3008 -0.2798  0.1746
24151SOL    HW173894   0.631   3.764   7.775 -1.3016  1.3385 -1.5373
24151SOL    HW273895   0.568   3.631   7.736  0.3000  0.2305 -0.4848
24152SOL     OW73896   6.383   1.300  11.751  0.0240 -0.1556  0.1354
24152SOL    HW173897   6.349   1.361  11.686 -0.2404 -1.5179 -1.0472
24152SOL    HW273898   6.329   1.315  11.828  0.4296  1.5802  0.1247
24153SOL     OW73899   0.552   6.616   5.884 -0.3933 -0.5281  0.0873
24153SOL    HW173900   0.583   6.539   5.836 -3.2207 -1.5539 -0.2999
24153SOL    HW273901   0.491   6.580   5.949 -1.0948  1.3365  0.5099
24154SOL     OW73902   4.066   2.220  12.402 -0.1798 -0.5140  0.1456
24154SOL    HW173903   4.074   2.159  12.475  0.5651 -0.8731 -0.2202
24154SOL    HW273904   3.986   2.195  12.357 -0.2871 -0.7195  0.4494
24155SOL     OW73905   0.526   7.490   9.171 -0.1093  0.1037 -0.0466
24155SOL    HW173906   0.525   7.580   9.203 -0.1756 -0.3739  1.3448
24155SOL    HW273907   0.618   7.466   9.169 -0.1210  0.0527  0.0191
24156SOL     OW73908   1.529   6.825   1.963 -0.3712 -0.0813 -0.5117
24156SOL    HW173909   1.619   6.857   1.969  0.1354 -1.4509 -0.3809
24156SOL    HW273910   1.502   6.844   1.873 -0.1159  0.7278 -0.4234
24157SOL     OW73911   2.294   1.768   5.193  0.2734 -0.2495 -0.2736
24157SOL    HW173912   2.288   1.863   5.205 -0.3192 -0.5568  2.5081
24157SOL    HW273913   2.216   1.745   5.144  0.4205  0.6736 -0.9744
24158SOL     OW73914   5.933   1.679   0.418 -0.7086  0.2236 -0.3667
24158SOL    HW173915   5.995   1.719   0.357 -0.7307 -0.4251 -0.8181
24158SOL    HW273916   5.902   1.753   0.472  1.1562  0.4273  0.5227
24159SOL     OW73917   1.446   2.156   9.997 -0.1720 -0.5641 -0.0140
24159SOL    HW173918   1.520   2.193   9.948  0.7735  0.3594  1.9823
24159SOL    HW273919   1.485   2.086  10.050 -1.1867 -1.6168 -0.6158
24160SOL     OW73920   2.997   3.927  10.608 -0.2397 -0.6767 -0.1316
24160SOL    HW173921   3.054   3.899  10.537 -0.7872 -1.9766 -0.0832
24160SOL    HW273922   2.991   3.851  10.666 -1.0832 -0.1791  0.4637
24161SOL     OW73923   4.075   0.469   6.431  0.3542 -0.7431 -0.3917
24161SOL    HW173924   4.142   0.402   6.420  2.5047  0.7720  2.1861
24161SOL    HW273925   4.098   0.513   6.513 -0.4971  3.5395 -2.1628
24162SOL     OW73926   5.645   6.472  10.862 -0.3976  0.5058 -0.0902
24162SOL    HW173927   5.663   6.378  10.860 -2.1307  0.1286  0.2174
24162SOL    HW273928   5.710   6.511  10.803  0.2026 -0.8997 -0.3933
24163SOL     OW73929   4.953   2.678   6.151  0.2344  0.1954 -0.0590
24163SOL    HW173930   4.901   2.601   6.170 -0.1917  0.8588  1.6616
24163SOL    HW273931   4.913   2.715   6.073 -1.3312  0.1792  0.6938
24164SOL     OW73932   4.368   7.697   4.612 -0.3254 -0.3420 -0.1636
24164SOL    HW173933   4.338   7.607   4.605 -0.3494 -0.3750  0.3318
24164SOL    HW273934   4.290   7.746   4.638 -0.8667  0.1896 -2.5460
24165SOL     OW73935   7.652   2.126   6.044  0.8243 -0.1448 -0.4835
24165SOL    HW173936   7.601   2.053   6.011  1.7192 -2.6627  3.1194
24165SOL    HW273937   7.736   2.120   5.997  0.4320 -0.6047 -1.1335
24166SOL     OW73938   0.669   5.840   7.537 -0.2426 -0.5102 -0.3311
24166SOL    HW173939   0.761   5.868   7.533  0.0273 -1.1773  0.6336
24166SOL    HW273940   0.649   5.836   7.630 -1.5355  0.4488 -0.5447
24167SOL     OW73941   6.647   7.749   7.920 -0.2238 -0.1465  0.2832
24167SOL    HW173942   6.658   7.654   7.932 -2.2162 -0.5063 -0.3610
24167SOL    HW273943   6.614   7.758   7.831 -1.0794  1.0508  0.6979
24168SOL     OW73944   6.028   5.420   8.712 -0.0830 -0.1638  0.4221
24168SOL    HW173945   5.970   5.345   8.701 -1.1274  0.8164 -1.1442
24168SOL    HW273946   6.110   5.382   8.743 -0.9691 -1.7945  0.8941
24169SOL     OW73947   7.644   1.107   2.550  0.4901 -0.6931 -0.6697
24169SOL    HW173948   7.693   1.083   2.628  1.4194  0.4250 -0.8922
24169SOL    HW273949   7.706   1.095   2.478  0.6614  1.2486 -0.9012
24170SOL     OW73950   4.295   7.031  11.531 -0.4955  0.4247  0.9963
24170SOL    HW173951   4.247   6.948  11.525  1.5892 -0.7678 -0.4090
24170SOL    HW273952   4.263   7.081  11.456  0.1096 -0.1967  0.3063
24171SOL     OW73953   4.323   0.954   3.420  0.5534 -0.1635 -0.1625
24171SOL    HW173954   4.393   0.999   3.372  1.3582 -2.1277 -0.9525
24171SOL    HW273955   4.360   0.868   3.440 -0.9507 -0.5372  1.1887
24172SOL     OW73956   1.923   5.156   1.851 -0.0077 -0.4344 -0.5163
24172SOL    HW173957   1.832   5.132   1.868 -0.0141  0.7413  1.4095
24172SOL    HW273958   1.963   5.075   1.818 -1.1743 -1.6958  0.9844
24173SOL     OW73959   1.802   0.602   2.152  0.3923  0.4929 -0.2908
24173SOL    HW173960   1.810   0.569   2.063  0.1211  0.5095 -0.3218
24173SOL    HW273961   1.716   0.572   2.181  2.1174 -3.2764  1.5546
24174SOL     OW73962   7.583   1.140  11.156  0.0586  0.1156 -0.2855
24174SOL    HW173963   7.605   1.205  11.089  2.3126  0.0099  0.2561
24174SOL    HW273964   7.606   1.056  11.116  2.0905  0.0985  0.7741
24175SOL     OW73965   2.265   4.016   3.316  0.3001 -0.2707 -0.6099
24175SOL    HW173966   2.292   3.924   3.327 -0.6281 -0.4890 -0.0080
24175SOL    HW273967   2.172   4.016   3.339  0.4710  0.9580  0.1418
24176SOL     OW73968   5.145   3.261   7.360 -0.1748  0.0753 -0.3039
24176SOL    HW173969   5.134   3.270   7.455 -1.5196  0.9441 -0.5109
24176SOL    HW273970   5.148   3.352   7.328  0.1291 -0.2100 -1.1118
24177SOL     OW73971   7.453   1.717   6.584 -0.0313  0.5281 -0.0328
24177SOL    HW173972   7.422   1.628   6.568 -0.6749  0.3550  1.9208
24177SOL    HW273973   7.373   1.770   6.585  0.1765  0.8364  0.5295
24178SOL     OW73974   0.564   7.335   3.246  0.6241  0.4972 -0.0445
24178SOL    HW173975   0.534   7.302   3.330  0.0513  0.3955 -0.2855
24178SOL    HW273976   0.528   7.424   3.241 -1.2894 -0.3024 -1.1737
24179SOL     OW73977   7.154   1.874   4.173  0.3084  0.1253  0.0188
24179SOL    HW173978   7.192   1.871   4.086 -0.2683 -1.3991 -0.2051
24179SOL    HW273979   7.221   1.838   4.230  1.1404  2.1746  0.4299
24180SOL     OW73980   4.032   5.877   7.861 -0.8074  0.6019  0.1332
24180SOL    HW173981   4.121   5.911   7.848 -0.2967 -0.6450  0.1784
24180SOL    HW273982   4.002   5.919   7.942 -0.9475  2.3558 -0.7887
24181SOL     OW73983   1.491   2.657   7.954 -0.4778  0.4526  0.1810
24181SOL    HW173984   1.504   2.726   8.019  1.5508 -0.1914  0.5485
24181SOL    HW273985   1.475   2.703   7.872  1.3934  1.4099  0.3026
24182SOL     OW73986   0.787   3.371  10.393 -0.2690  0.9404  0.0636
24182SOL    HW173987   0.749   3.454  10.365 -1.3161 -0.3671 -2.7963
24182SOL    HW273988   0.720   3.305  10.373  1.9193 -1.0200 -1.5918
24183SOL     OW73989   3.826   1.496   1.497 -0.1742 -0.1670  0.0773
24183SOL    HW173990   3.774   1.511   1.418  0.5485  0.0423 -0.3716
24183SOL    HW273991   3.763   1.466   1.562 -1.0726  1.2665 -0.0743
24184SOL     OW73992   2.128   3.472   2.229 -0.3193 -0.6215  0.0407
24184SOL    HW173993   2.087   3.397   2.272  0.8657 -0.1208  2.1737
24184SOL    HW273994   2.097   3.548   2.278  1.2730 -0.0456  0.2352
24185SOL     OW73995   5.391   6.788   7.242 -0.1368  0.3331 -0.0631
24185SOL    HW173996   5.468   6.766   7.295 -0.2865  0.1404  0.0758
24185SOL    HW273997   5.355   6.865   7.286 -2.2516 -1.7906  2.2360
24186SOL     OW73998   5.546   2.085   3.689 -0.6842 -0.1039  0.2205
24186SOL    HW173999   5.507   2.167   3.658 -1.4555 -0.2652  0.7441
24186SOL    HW274000   5.480   2.018   3.669 -0.2439 -0.5373  0.2009
24187SOL     OW74001   4.035   3.226   8.048  0.0420  0.7319  0.3955
24187SOL    HW174002   4.096   3.289   8.010  1.3165 -0.7392 -0.1272
24187SOL    HW274003   4.069   3.209   8.136  0.8132 -0.5656 -0.1217
24188SOL     OW74004   0.813   2.254   5.922 -0.6008 -0.7260 -0.3508
24188SOL    HW174005   0.834   2.284   5.834 -0.4722  2.6852  0.7233
24188SOL    HW274006   0.893   2.212   5.953  0.8729  1.8058 -0.4489
24189SOL     OW74007   5.523   6.573  12.015  0.0890 -0.6816  0.0432
24189SOL    HW174008   5.527   6.576  12.111  0.6581  2.0106  0.0165
24189SOL    HW274009   5.431   6.590  11.994  0.3394  0.8853  0.1266
24190SOL     OW74010   6.923   1.268   2.803  0.2029 -0.2510 -0.1250
24190SOL    HW174011   6.955   1.179   2.813  0.5619 -0.1872 -0.6822
24190SOL    HW274012   7.001   1.323   2.809 -0.0442  0.0502  0.4526
24191SOL     OW74013   1.818   6.401   7.810  0.1350  0.2077  0.5645
24191SOL    HW174014   1.758   6.419   7.883 -0.8655  0.5929 -0.3216
24191SOL    HW274015   1.903   6.435   7.840 -0.2466  0.3236  1.5588
24192SOL     OW74016   0.491   7.914   4.216  0.3021  0.4966 -0.1868
24192SOL    HW174017   0.422   7.962   4.261  0.1834 -1.1444  1.4824
24192SOL    HW274018   0.546   7.982   4.177 -0.9141  1.9014  0.4720
24193SOL     OW74019   5.299   5.417   8.816 -0.1424  0.1991  0.6030
24193SOL    HW174020   5.350   5.362   8.757  0.0793  0.1884  0.8047
24193SOL    HW274021   5.305   5.374   8.901 -0.6247  0.1102  0.5925
24194SOL     OW74022   4.047   4.423   3.001 -0.5293 -0.4491 -0.4770
24194SOL    HW174023   3.995   4.346   3.024 -2.2767  0.7382 -0.1304
24194SOL    HW274024   4.118   4.390   2.946 -0.8149 -2.3657  0.2248
24195SOL     OW74025   7.951   5.881   2.176  0.0729 -0.5287 -0.3365
24195SOL    HW174026   7.877   5.889   2.116  0.3830 -0.0086 -0.6494
24195SOL    HW274027   7.964   5.786   2.185  0.1959 -0.6091 -1.3034
24196SOL     OW74028   5.463   3.143   6.817 -0.4111 -0.3127  0.1103
24196SOL    HW174029   5.452   3.172   6.907 -1.2461 -0.7886  0.1691
24196SOL    HW274030   5.388   3.180   6.771  1.2669  2.0578 -0.9676
24197SOL     OW74031   7.905   0.556   0.431  0.7203  0.4657  0.5956
24197SOL    HW174032   7.949   0.614   0.370  0.5123 -0.9939 -1.0071
24197SOL    HW274033   7.822   0.600   0.450 -0.5345 -0.3225 -2.5007
24198SOL     OW74034   0.478   1.106   5.201  0.1944  0.1917  0.9200
24198SOL    HW174035   0.477   1.122   5.295 -1.5140 -1.5466  1.2465
24198SOL    HW274036   0.471   1.011   5.192 -1.2841  0.4095 -0.9327
24199SOL     OW74037   5.035   0.385   0.253 -0.6088 -0.5381  0.0847
24199SOL    HW174038   5.088   0.315   0.213 -0.9234 -0.8056  0.1287
24199SOL    HW274039   5.043   0.459   0.192  1.6280  0.1970  1.1870
24200SOL     OW74040   4.076   4.977   3.477 -0.0587 -0.0548  0.3307
24200SOL    HW174041   4.105   4.946   3.563 -0.4685  1.5650  1.0907
24200SOL    HW274042   4.143   4.946   3.416  0.1973 -1.2962  1.2191
24201SOL     OW74043   0.843   3.438   9.449  0.5760 -0.2176 -0.3782
24201SOL    HW174044   0.921   3.441   9.394  0.6226  2.3923 -0.2929
24201SOL    HW274045   0.877   3.441   9.538  0.4098 -0.2976 -0.3119
24202SOL     OW74046   5.384   6.773  10.355 -0.0313  0.1358  0.0940
24202SOL    HW174047   5.311   6.834  10.355 -0.5563 -0.4785  0.4421
24202SOL    HW274048   5.344   6.687  10.342  0.8459  0.0109 -2.1793
24203SOL     OW74049   6.108   7.005   2.985  0.5239 -0.1940  0.4862
24203SOL    HW174050   6.064   6.985   2.902 -1.4367 -0.8306  1.5891
24203SOL    HW274051   6.134   6.919   3.019  0.2402 -0.0524  1.0673
24204SOL     OW74052   1.492   3.791   2.398  0.2357  0.3542 -0.5223
24204SOL    HW174053   1.452   3.710   2.366  0.2386  0.4661 -0.8145
24204SOL    HW274054   1.577   3.795   2.354  0.0981  0.6792 -0.7603
24205SOL     OW74055   0.705   7.392   8.901 -0.1287 -0.0074 -0.8445
24205SOL    HW174056   0.717   7.487   8.904 -0.4550  0.0149  0.0921
24205SOL    HW274057   0.696   7.372   8.808  0.0750  0.8620 -1.0615
24206SOL     OW74058   4.287   0.160   9.524  0.8189 -0.1156  0.0888
24206SOL    HW174059   4.245   0.143   9.608  2.9289 -0.7651  1.0849
24206SOL    HW274060   4.353   0.226   9.543  0.2656  0.9376 -1.4295
24207SOL     OW74061   6.390   6.924   4.935 -0.3477 -0.1075  0.3328
24207SOL    HW174062   6.349   6.921   4.848 -0.3380 -0.8936  0.3469
24207SOL    HW274063   6.438   7.007   4.936  1.5446 -1.0868 -1.3126
24208SOL     OW74064   6.004   5.534   3.519  0.2838 -0.9480  0.6032
24208SOL    HW174065   6.097   5.511   3.527  0.5178 -1.3280 -2.2253
24208SOL    HW274066   6.003   5.607   3.458 -1.2489 -0.2282  1.4390
24209SOL     OW74067   0.556   0.233   2.055 -0.3135 -0.0362 -0.1781
24209SOL    HW174068   0.573   0.139   2.066 -0.6705  0.1023  2.0318
24209SOL    HW274069   0.473   0.248   2.099 -0.3505  1.3097 -0.6532
24210SOL     OW74070   2.892   0.763  12.292  0.2983  0.2694  0.3938
24210SOL    HW174071   2.902   0.770  12.197 -0.6771  0.5961  0.3067
24210SOL    HW274072   2.982   0.771  12.326  0.7084 -0.2854 -0.5146
24211SOL     OW74073   4.279   4.552   1.325  0.2802 -0.2335 -0.0777
24211SOL    HW174074   4.197   4.506   1.342  0.8285 -1.5046 -0.6866
24211SOL    HW274075   4.339   4.520   1.393  0.7094 -0.5721 -0.5981
24212SOL     OW74076   5.867   5.818   7.056  0.1502 -0.0142 -0.3834
24212SOL    HW174077   5.850   5.870   6.977 -2.2105 -0.2526 -0.0970
24212SOL    HW274078   5.961   5.827   7.070  0.2832  1.8477 -1.9603
24213SOL     OW74079   5.467   5.916   7.156  0.0000  0.2575  0.0993
24213SOL    HW174080   5.400   5.859   7.116  0.1273 -0.1063  0.3998
24213SOL    HW274081   5.500   5.968   7.083 -0.1605 -0.0135 -0.1727
24214SOL     OW74082   2.370   7.219   9.525  0.0593 -0.2287  0.0842
24214SOL    HW174083   2.307   7.261   9.465  1.1744 -0.4987 -1.3414
24214SOL    HW274084   2.384   7.132   9.487  1.9612  0.1511 -0.1630
24215SOL     OW74085   0.395   3.420  12.083  0.2781 -0.0318  0.0211
24215SOL    HW174086   0.431   3.504  12.112 -0.8130  0.4549  0.0235
24215SOL    HW274087   0.393   3.366  12.162 -1.5808  0.8936  0.6653
24216SOL     OW74088   5.615   0.369   0.191  0.2240 -0.2895  0.4449
24216SOL    HW174089   5.710   0.373   0.199  0.4896 -1.8362 -1.0831
24216SOL    HW274090   5.583   0.449   0.232  2.2927  1.1012 -0.4728
24217SOL     OW74091   2.111   6.002   1.290  0.2387  0.2068  0.0420
24217SOL    HW174092   2.119   6.096   1.303 -0.8233  0.3166  0.0374
24217SOL    HW274093   2.196   5.966   1.314  0.3915  1.0840  0.8456
24218SOL     OW74094   5.873   2.415   5.346 -0.5445  0.0580 -0.5385
24218SOL    HW174095   5.932   2.352   5.388 -1.2486 -0.7392 -0.7347
24218SOL    HW274096   5.920   2.442   5.267 -0.5786 -0.8307 -0.8696
24219SOL     OW74097   4.086   2.095   0.991 -0.8916 -0.3829 -0.4908
24219SOL    HW174098   4.170   2.139   0.974 -0.7039 -1.0315 -1.3262
24219SOL    HW274099   4.020   2.159   0.964 -0.6110 -0.7557 -2.2434
24220SOL     OW74100   6.393   6.301   3.027 -0.6481  0.2768  0.0916
24220SOL    HW174101   6.438   6.371   2.981 -1.0082  0.1970 -0.3927
24220SOL    HW274102   6.327   6.269   2.964  0.0316 -1.0209  0.0048
24221SOL     OW74103   7.457   3.900   6.604 -0.1334  0.0737 -0.3708
24221SOL    HW174104   7.535   3.950   6.583  0.8271 -0.6959  1.2022
24221SOL    HW274105   7.415   3.884   6.520  0.9073  1.2840 -1.1453
24222SOL     OW74106   0.375   7.195   8.345  0.0834 -0.3326 -0.2033
24222SOL    HW174107   0.455   7.147   8.366  0.5250  0.7836  0.7282
24222SOL    HW274108   0.358   7.249   8.421 -1.5097 -0.4544 -0.4329
24223SOL     OW74109   1.192   4.393   3.734 -0.2788  0.2414  0.0670
24223SOL    HW174110   1.231   4.309   3.759 -0.5650 -0.0587 -0.4649
24223SOL    HW274111   1.148   4.375   3.650 -3.4680 -0.0509  1.6425
24224SOL     OW74112   7.298   1.931   7.679  0.2549 -0.4154 -0.0738
24224SOL    HW174113   7.324   2.010   7.726 -1.5499 -0.9759  2.0414
24224SOL    HW274114   7.293   1.957   7.588 -2.4378  2.6015  0.7774
24225SOL     OW74115   4.254   3.709  11.332  0.6236  0.5564 -0.3575
24225SOL    HW174116   4.310   3.710  11.409  0.9923 -0.0214 -0.6095
24225SOL    HW274117   4.171   3.746  11.362  0.5258 -0.3148  0.5057
24226SOL     OW74118   0.543   3.169   2.442 -0.4847  0.5909  0.5632
24226SOL    HW174119   0.501   3.129   2.365 -0.4697  1.3686  0.1413
24226SOL    HW274120   0.616   3.109   2.462 -1.6617 -0.6777  1.2002
24227SOL     OW74121   2.010   4.215  11.604  0.2030  0.4772  0.2028
24227SOL    HW174122   2.068   4.166  11.663  1.3806  0.7553 -0.6848
24227SOL    HW274123   1.935   4.157  11.591  1.2016 -0.7835 -0.1773
24228SOL     OW74124   3.499   5.600   0.121 -0.1806  0.2999  0.3514
24228SOL    HW174125   3.580   5.579   0.074 -1.7117 -1.5055 -1.7270
24228SOL    HW274126   3.487   5.694   0.107  2.5999  1.1275  2.6373
24229SOL     OW74127   7.461   2.394   7.265 -0.2610 -0.0061 -0.1008
24229SOL    HW174128   7.485   2.301   7.266 -0.2286 -0.0124 -0.6938
24229SOL    HW274129   7.541   2.439   7.292  0.5424 -0.0164 -2.2160
24230SOL     OW74130   1.607   3.403   8.690  0.0517  0.3066  0.1477
24230SOL    HW174131   1.690   3.359   8.710 -0.6421 -0.5734  1.1993
24230SOL    HW274132   1.570   3.424   8.776 -1.1595  0.0184 -0.2871
24231SOL     OW74133   5.913   0.853   6.693 -0.2217  0.4821  0.4196
24231SOL    HW174134   5.990   0.905   6.715 -0.3666  1.5608 -1.4422
24231SOL    HW274135   5.859   0.911   6.639 -0.6445 -1.3888 -1.2959
24232SOL     OW74136   0.066   4.247   4.004 -0.0390 -0.4591  0.6038
24232SOL    HW174137  -0.020   4.205   4.001  0.4338 -1.4206 -0.7064
24232SOL    HW274138   0.048   4.339   3.985 -0.8543 -0.4992  1.1347
24233SOL     OW74139   6.283   0.996   1.261 -0.2469  0.1189  0.5261
24233SOL    HW174140   6.250   1.083   1.237  0.4155 -0.2549 -1.9947
24233SOL    HW274141   6.206   0.949   1.291 -0.9656  1.0047  0.1371
24234SOL     OW74142   6.523   6.909   7.914  0.1649  0.0229  0.4121
24234SOL    HW174143   6.441   6.938   7.873 -0.0391 -1.0357  0.0389
24234SOL    HW274144   6.505   6.912   8.008 -0.7128 -1.3100  0.3098
24235SOL     OW74145   4.633   4.996   1.461  0.4404  0.2912 -0.1574
24235SOL    HW174146   4.680   5.079   1.452  2.0449 -0.6493 -0.8373
24235SOL    HW274147   4.690   4.941   1.515  0.0974 -0.8335 -0.8906
24236SOL     OW74148   4.295   1.283  11.971 -0.3903 -0.1104 -0.2697
24236SOL    HW174149   4.324   1.249  11.886  2.4214  1.4751 -0.0691
24236SOL    HW274150   4.202   1.261  11.975 -0.3161 -1.4230 -3.1494
24237SOL     OW74151   1.198   5.667   7.161 -0.2057 -0.4399  0.2986
24237SOL    HW174152   1.294   5.674   7.163 -0.2452  0.0577  1.1423
24237SOL    HW274153   1.181   5.574   7.147  0.4042 -0.5585  0.3045
24238SOL     OW74154   3.034   3.077   0.604  0.2578  0.0402 -0.2484
24238SOL    HW174155   2.995   3.120   0.528 -1.4836  0.3556  0.7650
24238SOL    HW274156   3.104   3.135   0.632 -2.4813  2.8083  1.5417
24239SOL     OW74157   7.841   0.916   8.095 -0.2612  0.5909 -0.2559
24239SOL    HW174158   7.924   0.872   8.112  1.1115  2.4111 -1.8745
24239SOL    HW274159   7.855   0.964   8.014 -3.2018  0.2770 -1.0914
24240SOL     OW74160   5.787   5.308   1.921  0.0776  0.2724  0.1317
24240SOL    HW174161   5.759   5.238   1.861  0.7074 -0.2545  0.4405
24240SOL    HW274162   5.838   5.368   1.867 -1.8459  1.4137 -0.5132
24241SOL     OW74163   4.080   7.725   9.874 -0.7340 -0.3816 -0.2256
24241SOL    HW174164   4.133   7.783   9.819 -0.3262 -0.1464  0.3904
24241SOL    HW274165   4.003   7.704   9.821  0.2775 -1.2685 -1.3964
24242SOL     OW74166   1.902   2.530   3.431  0.7702 -1.0513  0.3552
24242SOL    HW174167   1.981   2.532   3.484  0.3189 -1.0725  1.0436
24242SOL    HW274168   1.845   2.467   3.476 -0.1535 -0.0527  0.6239
24243SOL     OW74169   0.862   1.425   7.850  0.7693  0.1002  0.6254
24243SOL    HW174170   0.889   1.483   7.921 -1.3918 -0.6972  2.2190
24243SOL    HW274171   0.903   1.341   7.870 -0.1080 -0.2163  1.1884
24244SOL     OW74172   2.811   5.084   1.089 -0.6206  0.1235  0.3883
24244SOL    HW174173   2.756   5.138   1.146  0.4989  0.4243  1.2170
24244SOL    HW274174   2.889   5.137   1.072  1.0446 -1.5687  2.1481
24245SOL     OW74175   1.441   3.241  10.054  0.0599  0.1926 -0.2073
24245SOL    HW174176   1.358   3.208  10.087  0.0700  1.0720  0.7408
24245SOL    HW274177   1.507   3.204  10.113  0.3656 -0.5943 -1.0221
24246SOL     OW74178   1.354   6.114   8.499  0.3707  0.4869 -0.1642
24246SOL    HW174179   1.359   6.035   8.553 -2.3622  0.0974 -0.3498
24246SOL    HW274180   1.369   6.186   8.561  1.5031 -0.0730  0.2523
24247SOL     OW74181   1.588   4.924   8.466 -0.3174  0.6432  0.4505
24247SOL    HW174182   1.672   4.905   8.424  0.5002  2.0526  1.3659
24247SOL    HW274183   1.527   4.861   8.428  1.1534 -0.4182 -0.2312
24248SOL     OW74184   1.849   1.341  11.636 -0.1988  0.4335 -0.8349
24248SOL    HW174185   1.836   1.320  11.543 -0.5767 -0.0186 -0.6819
24248SOL    HW274186   1.858   1.436  11.638  1.8477  0.3037 -1.5755
24249SOL     OW74187   7.470   5.925   7.502 -0.1757  0.9265  0.5993
24249SOL    HW174188   7.425   5.881   7.574  0.8501 -1.2480  0.0060
24249SOL    HW274189   7.400   5.957   7.445 -1.0795 -2.3222 -0.2900
24250SOL     OW74190   5.460   5.375  11.479 -0.0053  0.4909  0.1462
24250SOL    HW174191   5.388   5.418  11.525  1.0822  0.6672  1.7797
24250SOL    HW274192   5.538   5.403  11.527  1.1028 -0.1322 -1.2395
24251SOL     OW74193   7.611   4.549   5.644 -0.2369 -0.0778 -0.4212
24251SOL    HW174194   7.676   4.614   5.672 -0.1710 -0.3217  0.0021
24251SOL    HW274195   7.528   4.582   5.680  0.0625 -1.1405  1.3680
24252SOL     OW74196   6.723   3.694  12.070  0.2822 -0.1699 -0.7477
24252SOL    HW174197   6.689   3.754  12.136 -1.2318 -1.1316 -0.5857
24252SOL    HW274198   6.724   3.609  12.114  0.4594 -0.6014 -1.5709
24253SOL     OW74199   1.897   3.841   0.129 -0.0733 -0.1925 -0.1263
24253SOL    HW174200   1.924   3.753   0.104  2.8036  0.8860 -1.2532
24253SOL    HW274201   1.837   3.868   0.060  1.2787 -0.2940 -1.3992
24254SOL     OW74202   7.331   7.564   0.787 -0.1273  0.1499 -0.2404
24254SOL    HW174203   7.308   7.506   0.714  2.2040 -0.5012 -0.5577
24254SOL    HW274204   7.412   7.606   0.759 -0.0909  1.1946  1.3011
24255SOL     OW74205   5.933   3.350   9.603  0.3370 -0.9910 -0.5116
24255SOL    HW174206   5.988   3.284   9.560 -0.5619 -3.2597  1.5637
24255SOL    HW274207   5.929   3.322   9.694 -0.2606  1.9187  0.4704
24256SOL     OW74208   0.526   0.734   8.749  0.2289 -0.5484 -0.3336
24256SOL    HW174209   0.431   0.727   8.760  0.1301  1.7018  0.8328
24256SOL    HW274210   0.561   0.738   8.838  1.1847  0.7108 -0.7211
24257SOL     OW74211   3.555   0.740   0.766 -1.0048 -0.6164  0.1469
24257SOL    HW174212   3.513   0.745   0.680 -1.5911  0.7349  0.4898
24257SOL    HW274213   3.646   0.716   0.747 -0.7458  1.0995 -0.9877
24258SOL     OW74214   5.623   5.805   8.069  1.0539  0.3250  0.1846
24258SOL    HW174215   5.620   5.884   8.124  2.5760 -0.0941  0.9301
24258SOL    HW274216   5.559   5.746   8.109  1.3606  0.4358  0.8505
24259SOL     OW74217   7.946   2.352   3.070 -0.0089  0.0514  0.0744
24259SOL    HW174218   8.020   2.395   3.112 -0.5095  1.7010 -0.6679
24259SOL    HW274219   7.965   2.360   2.976 -1.4703  1.1473 -0.1440
24260SOL     OW74220   1.724   5.971  12.168  0.5995  0.5826 -0.2933
24260SOL    HW174221   1.808   5.963  12.213  0.5497 -1.0065 -0.4418
24260SOL    HW274222   1.715   5.890  12.118 -1.6560  0.1007  0.7973
24261SOL     OW74223   3.382   7.614   3.789  0.1661 -0.2339 -0.0960
24261SOL    HW174224   3.324   7.681   3.826 -0.8976 -0.8822 -0.5282
24261SOL    HW274225   3.446   7.598   3.858 -1.4185 -0.9856  1.3071
24262SOL     OW74226   6.489   3.621  10.840 -0.2704 -0.0996 -0.3002
24262SOL    HW174227   6.404   3.663  10.834 -0.6205 -0.3312  2.0922
24262SOL    HW274228   6.478   3.536  10.797 -0.8050  0.4521 -1.2746
24263SOL     OW74229   1.335   1.114   5.935  0.2923 -0.4832  0.4357
24263SOL    HW174230   1.251   1.078   5.906  1.9755 -4.2517 -0.3496
24263SOL    HW274231   1.331   1.108   6.030 -0.0801 -1.3397  0.3801
24264SOL     OW74232   5.742   5.692   6.076  0.1913  0.6981  0.2746
24264SOL    HW174233   5.772   5.746   6.003 -1.2608  0.4148 -0.5645
24264SOL    HW274234   5.686   5.750   6.127  1.1666  0.8837  1.1694
24265SOL     OW74235   2.787   4.410   1.063  0.2481  0.5169  0.3929
24265SOL    HW174236   2.760   4.421   0.972  1.2982  0.3586  0.0495
24265SOL    HW274237   2.705   4.410   1.112 -0.3682  0.0862 -0.5988
24266SOL     OW74238   5.074   2.471   2.228 -0.0160  0.2743  0.9347
24266SOL    HW174239   5.095   2.400   2.288  0.6529 -0.3215  0.0340
24266SOL    HW274240   4.979   2.466   2.218  0.1255 -1.3318 -0.0560
24267SOL     OW74241   7.019   7.917   7.146  0.0903 -0.1196 -0.2133
24267SOL    HW174242   6.958   7.990   7.143 -0.9030 -0.9603 -1.6073
24267SOL    HW274243   7.078   7.938   7.219 -0.1252  2.0694 -0.5902
24268SOL     OW74244   6.674   1.011   1.339  0.0529 -0.1680 -0.4402
24268SOL    HW174245   6.714   0.942   1.392 -0.6205 -0.6686 -0.5648
24268SOL    HW274246   6.738   1.082   1.339  1.2339 -1.1918 -1.2116
24269SOL     OW74247   1.637   6.973   8.481  0.1459 -0.6007  0.2467
24269SOL    HW174248   1.662   7.064   8.498 -0.7492 -0.3993  0.5433
24269SOL    HW274249   1.542   6.976   8.475  0.0796 -1.5969  0.7228
24270SOL     OW74250   3.182   1.324   5.185  0.1461  0.0916  0.2718
24270SOL    HW174251   3.275   1.305   5.185 -0.0491 -0.8973  0.6061
24270SOL    HW274252   3.177   1.420   5.190  1.1740  0.5414 -3.9184
24271SOL     OW74253   7.789   2.781   8.026 -0.0552  0.1293 -0.0209
24271SOL    HW174254   7.718   2.738   8.074  1.1585 -2.9115 -0.7260
24271SOL    HW274255   7.753   2.797   7.939 -0.0261 -1.1725 -0.2988
24272SOL     OW74256   6.632   2.633   6.813  0.2450  0.1031 -0.9741
24272SOL    HW174257   6.549   2.585   6.820  0.8821 -1.2382 -2.0704
24272SOL    HW274258   6.695   2.577   6.858  0.7141  0.7302 -0.8386
24273SOL     OW74259   2.515   1.957  11.427  0.3671  0.3273  0.4102
24273SOL    HW174260   2.543   2.049  11.430  2.2335 -0.2029  0.2636
24273SOL    HW274261   2.446   1.951  11.493  2.1227  1.2327  2.4264
24274SOL     OW74262   2.557   2.073   7.288  0.7290  0.0895 -0.1259
24274SOL    HW174263   2.580   2.071   7.195 -0.7255  1.4366 -0.5618
24274SOL    HW274264   2.605   2.000   7.326  3.8590  1.3211 -1.3243
24275SOL     OW74265   5.472   1.573   7.396 -0.4406  0.0037 -0.7946
24275SOL    HW174266   5.443   1.658   7.363 -1.5216 -0.3065 -0.6635
24275SOL    HW274267   5.421   1.509   7.347  0.4251 -0.5941 -0.9497
24276SOL     OW74268   7.682   4.500   9.012 -0.3667 -0.2676  0.1153
24276SOL    HW174269   7.690   4.589   9.046 -0.0165 -0.0480 -0.5117
24276SOL    HW274270   7.592   4.475   9.030 -0.3498  0.0630  0.6629
24277SOL     OW74271   5.353   6.939   3.207 -0.0552  0.1165  0.4303
24277SOL    HW174272   5.340   6.853   3.247 -1.6701  0.2253  0.1847
24277SOL    HW274273   5.436   6.971   3.245  0.0716 -1.1288  1.2436
24278SOL     OW74274   4.952   3.256   3.772 -0.4076 -0.0223  0.0911
24278SOL    HW174275   4.935   3.212   3.688 -1.0655  1.2760 -0.4984
24278SOL    HW274276   4.989   3.341   3.747  2.4749 -0.8206  1.2300
24279SOL     OW74277   4.843   0.815  10.950 -0.3429 -0.2884 -0.1182
24279SOL    HW174278   4.911   0.795  10.885  0.0416  0.3914  0.0684
24279SOL    HW274279   4.786   0.878  10.907  2.0338  3.1977  1.4070
24280SOL     OW74280   5.118   4.055   2.264 -0.2466  0.3742 -0.0188
24280SOL    HW174281   5.043   4.093   2.219 -1.7829 -0.4612  1.6761
24280SOL    HW274282   5.091   3.965   2.282  0.5135  0.4978  1.9489
24281SOL     OW74283   0.010   6.830   5.904 -0.3074 -0.5118  0.3263
24281SOL    HW174284  -0.016   6.900   5.964  1.1535  0.1013  0.2903
24281SOL    HW274285   0.009   6.751   5.958  0.2488 -0.0910  0.9753
24282SOL     OW74286   2.838   4.925  11.049  0.2988 -0.5841  0.3324
24282SOL    HW174287   2.933   4.940  11.040 -0.2750  3.0076 -1.4317
24282SOL    HW274288   2.816   4.867  10.976  0.9844 -0.4639  0.0182
24283SOL     OW74289   5.670   3.842   6.276 -0.2175  0.4688  0.5975
24283SOL    HW174290   5.704   3.870   6.191 -2.1749  0.2523 -0.3027
24283SOL    HW274291   5.648   3.750   6.264 -0.1323  0.3226  1.4847
24284SOL     OW74292   1.433   6.121   6.814  0.2034 -0.2760  0.6067
24284SOL    HW174293   1.477   6.173   6.747 -1.8092  0.2794 -0.3514
24284SOL    HW274294   1.451   6.167   6.896  0.5425  0.4984  0.1024
24285SOL     OW74295   1.745   7.237   9.169 -0.5606 -0.4053  0.3351
24285SOL    HW174296   1.834   7.267   9.149 -0.5855  0.3048  1.1682
24285SOL    HW274297   1.725   7.280   9.252 -0.7358 -2.5452  1.4632
24286SOL     OW74298   2.218   5.976   7.141 -0.0061 -0.5755 -0.0427
24286SOL    HW174299   2.240   6.016   7.225 -2.2273 -0.5280  0.5882
24286SOL    HW274300   2.278   5.902   7.133  0.6417 -0.2278  1.2938
24287SOL     OW74301   0.550   6.043   6.362  0.5264  0.2177  0.5353
24287SOL    HW174302   0.575   6.029   6.270  1.1389  0.4381  0.6698
24287SOL    HW274303   0.510   5.960   6.388  0.2301  0.1924  0.0360
24288SOL     OW74304   3.127   1.075  12.013  0.1163  0.8128 -0.0443
24288SOL    HW174305   3.223   1.068  12.008  0.2683  1.8148  0.8998
24288SOL    HW274306   3.103   1.132  11.940  0.2250  0.3994 -0.4007
24289SOL     OW74307   6.091   5.249   3.981  0.3892 -0.1931 -0.4979
24289SOL    HW174308   6.068   5.197   3.904  2.5232 -0.4327 -1.0336
24289SOL    HW274309   6.079   5.340   3.952  0.0094 -0.3004 -0.6970
24290SOL     OW74310   7.499   1.222   0.533 -0.2695 -1.4091 -0.5264
24290SOL    HW174311   7.590   1.214   0.561  0.3126  1.8918 -1.0695
24290SOL    HW274312   7.500   1.198   0.440  0.2688 -0.6223 -0.7398
24291SOL     OW74313   5.802   7.221   5.410 -0.2590  0.0394 -0.4417
24291SOL    HW174314   5.829   7.164   5.482  1.5381  1.1863 -0.1325
24291SOL    HW274315   5.879   7.225   5.353  0.3770  3.4171  0.4255
24292SOL     OW74316   0.901   3.432   4.930  0.0483  0.3765 -0.1184
24292SOL    HW174317   0.956   3.386   4.993  0.9756  1.1530 -0.3363
24292SOL    HW274318   0.858   3.500   4.981  1.7810  1.8396 -0.4974
24293SOL     OW74319   4.850   7.762   4.989  0.2311  0.2204  0.0626
24293SOL    HW174320   4.846   7.855   4.965 -0.3716  0.2611  0.3055
24293SOL    HW274321   4.879   7.718   4.910  1.5364  0.7279  0.2291
24294SOL     OW74322   3.893   0.366   9.342 -0.4108 -1.0701 -0.4113
24294SOL    HW174323   3.963   0.384   9.405  0.2207 -0.0848 -1.3573
24294SOL    HW274324   3.934   0.313   9.274 -0.1658  0.6920 -1.6970
24295SOL     OW74325   2.331   4.644   6.892  0.6091  0.3290 -0.1203
24295SOL    HW174326   2.259   4.588   6.862  0.2977  0.2423  0.7644
24295SOL    HW274327   2.410   4.595   6.868  0.4475  1.0112 -2.2708
24296SOL     OW74328   7.103   2.269  12.089  0.4641 -0.6485 -0.4025
24296SOL    HW174329   7.043   2.250  12.160  0.9072 -2.5467 -0.4661
24296SOL    HW274330   7.131   2.183  12.058  1.3564  0.1494 -1.9526
24297SOL     OW74331   6.150   4.850   3.026 -0.2770 -0.0679  0.0166
24297SOL    HW174332   6.159   4.802   3.108 -0.3857  0.7241  0.5004
24297SOL    HW274333   6.073   4.812   2.984 -0.6164 -0.0242  0.5954
24298SOL     OW74334   7.168   6.278   7.433  0.4630 -0.0158 -0.8056
24298SOL    HW174335   7.243   6.335   7.414  0.8743 -0.4992 -0.6615
24298SOL    HW274336   7.118   6.324   7.499  1.0531 -0.0365 -0.3380
24299SOL     OW74337   0.459   4.832   7.096 -0.1457 -0.2972  0.1349
24299SOL    HW174338   0.535   4.810   7.151  1.4941 -0.4371 -2.0313
24299SOL    HW274339   0.397   4.761   7.110  1.7742 -2.2758 -0.8538
24300SOL     OW74340   0.246   7.150   3.253 -0.3066 -0.3119 -0.2792
24300SOL    HW174341   0.280   7.177   3.168 -0.6901  2.8601  0.4322
24300SOL    HW274342   0.153   7.173   3.250 -0.4306 -0.6038  0.8336
24301SOL     OW74343   1.773   6.656   2.085 -0.1588  0.2430 -0.3329
24301SOL    HW174344   1.692   6.608   2.066  0.1565 -0.5174  0.1821
24301SOL    HW274345   1.767   6.676   2.179  0.3642 -0.0564 -0.2311
24302SOL     OW74346   6.026   3.281   9.009 -0.0791  1.1956  0.7301
24302SOL    HW174347   6.055   3.240   9.091 -0.0354  2.3633  1.3215
24302SOL    HW274348   6.018   3.373   9.030 -1.4581  1.3229 -0.2179
24303SOL     OW74349   1.730   5.023   4.097  0.1093 -0.3874 -0.2992
24303SOL    HW174350   1.782   5.096   4.130 -0.7569  0.1236 -0.0637
24303SOL    HW274351   1.641   5.057   4.089 -0.0285 -0.9743 -1.6019
24304SOL     OW74352   3.269   2.761   2.373  0.4028  0.0576  0.1227
24304SOL    HW174353   3.331   2.795   2.308 -0.8891  0.1713 -1.1060
24304SOL    HW274354   3.223   2.839   2.404  0.2519 -0.1239  0.3511
24305SOL     OW74355   3.476   7.768   6.134  0.2215 -0.3491  0.3872
24305SOL    HW174356   3.570   7.753   6.150  0.0935 -1.1158  0.4388
24305SOL    HW274357   3.432   7.719   6.203 -0.1980  1.1678  1.2307
24306SOL     OW74358   3.474   7.638  10.905 -0.1154 -0.1870  0.2368
24306SOL    HW174359   3.457   7.726  10.940  0.2183  0.2398 -0.6243
24306SOL    HW274360   3.569   7.636  10.891 -0.2938 -0.1014 -1.1886
24307SOL     OW74361   5.318   7.857   6.923 -0.3339  0.0812 -0.5867
24307SOL    HW174362   5.262   7.811   6.984  0.4153 -0.6710 -0.4430
24307SOL    HW274363   5.297   7.819   6.837  0.8400 -1.1319 -0.3679
24308SOL     OW74364   5.368   6.877  12.177  0.5978  0.1388  0.3004
24308SOL    HW174365   5.437   6.867  12.113  0.2697  0.2183 -0.0697
24308SOL    HW274366   5.370   6.970  12.200 -1.5192  0.8987 -2.1787
24309SOL     OW74367   5.630   3.236   4.354 -1.0757  0.0474  0.5507
24309SOL    HW174368   5.624   3.293   4.431 -1.6584 -0.1276  0.6390
24309SOL    HW274369   5.553   3.259   4.302 -1.9258 -1.4155  1.1059
24310SOL     OW74370   2.356   7.338  11.205 -0.0435 -0.7244  0.2187
24310SOL    HW174371   2.403   7.298  11.131 -0.7371 -0.8675 -0.1573
24310SOL    HW274372   2.397   7.423  11.216  0.5962 -1.0190  0.1842
24311SOL     OW74373   4.173   4.303  12.087 -0.5556  0.6577 -0.4446
24311SOL    HW174374   4.261   4.339  12.078 -0.8716  1.9832  1.2347
24311SOL    HW274375   4.121   4.374  12.126 -1.5722 -1.0823  1.6033
24312SOL     OW74376   4.971   7.872   1.052  0.3656 -0.2862  0.1179
24312SOL    HW174377   5.045   7.928   1.073  0.9420 -1.4593  1.2874
24312SOL    HW274378   5.008   7.785   1.039 -0.3260 -0.2583 -2.9880
24313SOL     OW74379   0.446   3.426   5.357  0.7930  0.3086  0.4539
24313SOL    HW174380   0.423   3.481   5.432 -0.6318 -0.1655  0.3897
24313SOL    HW274381   0.443   3.337   5.390 -1.8920 -0.0688 -0.5878
24314SOL     OW74382   1.940   3.219  11.664 -0.2133  0.0274 -0.1712
24314SOL    HW174383   1.950   3.244  11.572  2.0554 -0.1703 -0.0313
24314SOL    HW274384   1.869   3.274  11.696  1.7270  3.3241 -0.9856
24315SOL     OW74385   6.295   5.388   2.646  0.0651  0.3439  0.2357
24315SOL    HW174386   6.234   5.422   2.712 -0.9989 -2.3083  0.7176
24315SOL    HW274387   6.377   5.378   2.694  0.3427  1.8579  0.1460
24316SOL     OW74388   4.569   6.996   5.458  0.2743 -0.1901 -0.6343
24316SOL    HW174389   4.553   7.008   5.552  1.3075 -1.2169 -0.3104
24316SOL    HW274390   4.567   7.085   5.423 -1.1002  0.1370  0.1768
24317SOL     OW74391   5.843   2.484   9.633  0.5253 -0.2740  0.0863
24317SOL    HW174392   5.777   2.434   9.585  0.4877  0.1536 -0.3231
24317SOL    HW274393   5.872   2.426   9.703 -1.3057  0.0270  1.1552
24318SOL     OW74394   1.120   5.661  10.937  0.0014 -0.4810  0.4079
24318SOL    HW174395   1.106   5.604  10.860 -0.4688  0.1958 -0.0153
24318SOL    HW274396   1.204   5.632  10.972  0.5411 -0.3716 -0.7499
24319SOL     OW74397   3.723   5.377   2.221  0.1791 -0.1382  0.1134
24319SOL    HW174398   3.662   5.413   2.156  0.1282  0.9085  0.7128
24319SOL    HW274399   3.809   5.389   2.182  0.0797 -0.5473 -0.2391
24320SOL     OW74400   4.196   0.488   3.386  0.3332  0.0955  0.1119
24320SOL    HW174401   4.176   0.429   3.459  1.0062  0.6461  0.7676
24320SOL    HW274402   4.292   0.492   3.385  0.3788 -0.6564 -1.4403
24321SOL     OW74403   0.179   6.348   8.521  0.1489  0.2520  0.4654
24321SOL    HW174404   0.221   6.395   8.593  2.8907 -2.9449  1.1777
24321SOL    HW274405   0.192   6.255   8.542 -1.0096 -0.8494 -3.0299
24322SOL     OW74406   2.200   7.253   8.883  0.3196  0.0846  0.4229
24322SOL    HW174407   2.127   7.313   8.872  0.5885  0.2430 -0.5595
24322SOL    HW274408   2.162   7.176   8.926 -0.0202  0.9433  1.6786
24323SOL     OW74409   6.825   7.600   8.403  0.6049 -0.7886  0.0851
24323SOL    HW174410   6.887   7.594   8.476 -1.0955  0.2576  1.6901
24323SOL    HW274411   6.859   7.672   8.349  0.3704  0.3573  1.4128
24324SOL     OW74412   6.203   1.332   8.724 -0.6527 -0.2179  0.3995
24324SOL    HW174413   6.250   1.268   8.670  1.3929  1.4855  0.0060
24324SOL    HW274414   6.193   1.289   8.809  1.4328 -0.7983  0.4115
24325SOL     OW74415   1.737   6.278   7.181 -0.3801  0.0675  0.0963
24325SOL    HW174416   1.641   6.271   7.174 -0.3731  0.7842 -0.8919
24325SOL    HW274417   1.764   6.194   7.219 -1.3803 -0.2490  0.1456
24326SOL     OW74418   0.157   3.517   4.539  0.3996  0.2897 -0.1506
24326SOL    HW174419   0.223   3.473   4.486  0.3015  0.6270 -0.5637
24326SOL    HW274420   0.164   3.609   4.513 -2.4863 -0.0693 -2.7004
24327SOL     OW74421   1.381   7.812  10.694 -0.7477  0.2995 -0.0390
24327SOL    HW174422   1.313   7.820  10.627  0.2008  1.7424 -0.8712
24327SOL    HW274423   1.437   7.888  10.681  0.8998 -0.7226  0.7822
24328SOL     OW74424   0.734   5.407   7.351 -0.3640 -0.6360 -0.8498
24328SOL    HW174425   0.777   5.403   7.266  0.4506  2.6687 -0.6892
24328SOL    HW274426   0.749   5.496   7.382 -1.9596 -1.2737  2.0876
24329SOL     OW74427   1.857   5.984   1.393 -0.6478  0.1662 -0.1971
24329SOL    HW174428   1.949   5.966   1.372 -0.4544  0.2417  0.5628
24329SOL    HW274429   1.831   5.912   1.451 -1.0354  0.2013 -0.3247
24330SOL     OW74430   5.333   6.708   1.132  0.0351 -0.4188  0.4247
24330SOL    HW174431   5.402   6.644   1.150  1.3247  0.5109 -0.9184
24330SOL    HW274432   5.324   6.757   1.214  1.3114 -0.2704  0.4933
24331SOL     OW74433   5.287   2.420   4.629 -0.2788  0.0033 -0.0067
24331SOL    HW174434   5.221   2.431   4.561 -1.3086 -1.9343  0.5760
24331SOL    HW274435   5.237   2.427   4.711  0.5546  0.2281  0.4897
24332SOL     OW74436   7.060   7.757   5.748 -0.0140 -0.5928 -0.2896
24332SOL    HW174437   7.112   7.729   5.824  0.3834  0.1472 -0.2836
24332SOL    HW274438   7.123   7.758   5.676 -0.2416 -0.6233 -0.4905
24333SOL     OW74439   3.869   2.977  11.520  0.3515 -0.1014 -0.3706
24333SOL    HW174440   3.784   2.959  11.480 -0.0720 -0.3126  0.6131
24333SOL    HW274441   3.886   2.901  11.576  0.4746  0.6449  0.6193
24334SOL     OW74442   5.769   5.660   1.852  0.1186  0.3310 -0.0386
24334SOL    HW174443   5.807   5.615   1.776 -0.5703 -1.1515  0.4529
24334SOL    HW274444   5.832   5.644   1.923  1.0017  2.1202 -0.3673
24335SOL     OW74445   1.084   7.491   4.180  0.3348  0.2773  0.0125
24335SOL    HW174446   1.038   7.575   4.184  0.9858  0.6449 -0.0429
24335SOL    HW274447   1.134   7.494   4.099 -0.9906 -0.8992 -0.8897
24336SOL     OW74448   1.463   3.538   4.992 -0.0974  0.6885  0.0505
24336SOL    HW174449   1.429   3.607   4.934 -0.6106  1.8153  1.6127
24336SOL    HW274450   1.387   3.484   5.011  0.0738  0.3143 -0.3034
24337SOL     OW74451   1.621   2.560  11.762  0.4700  0.2245 -0.1093
24337SOL    HW174452   1.543   2.615  11.747 -0.5408 -0.8328  1.0806
24337SOL    HW274453   1.657   2.547  11.675 -1.8883 -0.9481 -1.0143
24338SOL     OW74454   5.053   2.495   3.034  0.4078  0.1147  0.1191
24338SOL    HW174455   5.035   2.467   3.124  2.8205  0.6428  0.8425
24338SOL    HW274456   5.148   2.485   3.024  0.4668  1.8304 -1.7543
24339SOL     OW74457   5.331   2.022   2.427  0.0643 -0.5946 -0.2096
24339SOL    HW174458   5.407   2.050   2.478 -0.5642  1.1014 -0.1368
24339SOL    HW274459   5.368   1.973   2.354  1.3663  1.3113 -0.9085
24340SOL     OW74460   4.050   5.555   9.296  0.1339  0.1613 -0.4288
24340SOL    HW174461   4.113   5.483   9.302 -0.1843 -0.4065 -2.7345
24340SOL    HW274462   4.068   5.609   9.372 -0.6531 -3.1081  2.3431
24341SOL     OW74463   6.662   1.754   3.624 -0.3252  0.0476 -0.2750
24341SOL    HW174464   6.644   1.848   3.627 -1.9928 -0.2813  1.9478
24341SOL    HW274465   6.723   1.739   3.697 -2.5570 -0.9980  1.4806
24342SOL     OW74466   2.886   0.698  10.426  0.7110 -0.1148  0.2878
24342SOL    HW174467   2.887   0.756  10.350  1.8721 -1.4796 -0.7985
24342SOL    HW274468   2.829   0.626  10.400  2.4102 -1.4206 -0.0012
24343SOL     OW74469   2.039   7.796   2.018  0.1810 -0.1975 -0.0270
24343SOL    HW174470   2.050   7.708   1.982  0.3678 -0.6726  1.1476
24343SOL    HW274471   2.062   7.854   1.946 -0.2967 -1.1056 -0.9257
24344SOL     OW74472   3.523   6.401  11.764 -0.0094  0.1212  0.0253
24344SOL    HW174473   3.523   6.493  11.790 -3.6479  0.5144 -0.7916
24344SOL    HW274474   3.610   6.368  11.788  1.0439  3.4752  1.2575
24345SOL     OW74475   7.243   0.704   2.991 -0.1197 -0.3080  0.1174
24345SOL    HW174476   7.284   0.786   3.017 -0.4140  0.5490 -1.9687
24345SOL    HW274477   7.151   0.713   3.018 -0.5770  0.8490 -1.6619
24346SOL     OW74478   2.137   0.948   4.878 -0.1843  0.7649 -0.4781
24346SOL    HW174479   2.226   0.919   4.896  0.4705  2.4393 -0.8718
24346SOL    HW274480   2.082   0.872   4.899  1.3417 -0.3788 -0.4784
24347SOL     OW74481   5.778   6.421  11.134  0.5640 -0.4425  0.4674
24347SOL    HW174482   5.750   6.439  11.045  0.5001 -0.1810  0.5391
24347SOL    HW274483   5.817   6.503  11.164  3.1232 -1.2768 -0.2711
24348SOL     OW74484   5.888   4.954   7.134  0.1458  0.0477 -0.0535
24348SOL    HW174485   5.980   4.932   7.118  0.6176  1.2642  0.7803
24348SOL    HW274486   5.873   5.032   7.081  0.3337  1.2656  1.5818
24349SOL     OW74487   7.280   3.318   4.044  0.0401  0.3437  0.4272
24349SOL    HW174488   7.332   3.251   3.998 -2.5459 -1.3391 -0.2340
24349SOL    HW274489   7.298   3.302   4.137 -0.7818 -1.5989  0.3102
24350SOL     OW74490   4.921   0.999   8.620  0.0549 -0.1095 -0.5178
24350SOL    HW174491   4.971   0.919   8.639 -1.8593 -0.6442  2.9375
24350SOL    HW274492   4.849   0.969   8.564  0.5295 -0.3340 -1.0261
24351SOL     OW74493   6.136   3.007   6.325 -0.0663 -0.0822 -0.1095
24351SOL    HW174494   6.138   3.100   6.350  1.4361 -0.1085 -0.0385
24351SOL    HW274495   6.211   2.969   6.370  0.3072 -0.9838 -1.4374
24352SOL     OW74496   7.136   4.835   4.548 -0.0959 -1.0562  0.5464
24352SOL    HW174497   7.227   4.846   4.521 -0.1803 -3.3472 -0.8964
24352SOL    HW274498   7.141   4.802   4.637  0.6557 -3.3876 -0.2907
24353SOL     OW74499   5.588   2.801   0.930  0.0401  0.0159  0.1355
24353SOL    HW174500   5.665   2.795   0.987 -0.1720 -0.3276  0.3918
24353SOL    HW274501   5.606   2.876   0.874  0.9135 -0.5145 -0.3263
24354SOL     OW74502   4.517   3.428   5.297  0.1058 -0.1074 -0.1747
24354SOL    HW174503   4.437   3.400   5.341 -0.4222 -1.0662 -1.6823
24354SOL    HW274504   4.502   3.520   5.277 -1.0397 -0.4989 -1.2547
24355SOL     OW74505   4.690   5.556   1.949  0.1792 -0.2279  0.6117
24355SOL    HW174506   4.688   5.601   2.034  0.4627 -0.6492  0.8411
24355SOL    HW274507   4.654   5.620   1.888 -3.3338 -1.0611  1.5782
24356SOL     OW74508   7.936   6.521   9.353 -0.4247  0.2710 -0.2496
24356SOL    HW174509   7.961   6.610   9.328  1.2187 -0.3709 -0.9966
24356SOL    HW274510   7.840   6.524   9.357 -0.4677  1.7828 -1.4223
24357SOL     OW74511   1.901   2.234   9.869 -0.2770  0.0479  0.0474
24357SOL    HW174512   1.878   2.149   9.831 -0.6005 -0.1516  0.6698
24357SOL    HW274513   1.935   2.213   9.956 -1.6371  0.6275  0.7551
24358SOL     OW74514   0.226   7.029   2.816 -0.7581  0.2091 -0.2881
24358SOL    HW174515   0.214   7.078   2.734 -1.1747  1.2418  0.3767
24358SOL    HW274516   0.318   7.002   2.814 -0.5060  1.0611 -0.6435
24359SOL     OW74517   4.539   7.240   7.501 -0.2283 -0.4237  0.2018
24359SOL    HW174518   4.529   7.281   7.586 -1.6989  0.9294 -0.5492
24359SOL    HW274519   4.469   7.174   7.498 -0.8937  0.2762 -0.3185
24360SOL     OW74520   3.642   7.232   5.541  0.4391  0.1261 -0.2786
24360SOL    HW174521   3.550   7.230   5.512  0.6088  0.3382 -0.8448
24360SOL    HW274522   3.637   7.264   5.631 -0.1521 -1.2274  0.1890
24361SOL     OW74523   4.563   4.830   1.930 -0.8466  0.2323  0.3347
24361SOL    HW174524   4.528   4.918   1.941 -2.5812  0.2453 -3.6019
24361SOL    HW274525   4.488   4.773   1.943 -0.3744 -0.4382  0.1736
24362SOL     OW74526   7.264   5.825   5.253 -0.0574  0.1395  0.2855
24362SOL    HW174527   7.212   5.874   5.317  1.1030  1.5511  0.1841
24362SOL    HW274528   7.354   5.856   5.265  0.4143 -0.6055 -1.0766
24363SOL     OW74529   5.741   6.155  12.198  0.4631  0.0713 -0.2923
24363SOL    HW174530   5.697   6.096  12.136 -0.5173 -0.0385  0.4861
24363SOL    HW274531   5.672   6.184  12.256  1.6131 -1.1426  1.8198
24364SOL     OW74532   3.892   6.442   5.546 -0.3576 -0.1405  0.7483
24364SOL    HW174533   3.855   6.358   5.521  0.5292 -0.4327  0.3800
24364SOL    HW274534   3.948   6.423   5.622 -0.6624  0.2266  1.0683
24365SOL     OW74535   2.320   0.477   1.205  0.0131 -0.3484 -0.0507
24365SOL    HW174536   2.262   0.539   1.251  0.5785 -0.3500  0.6943
24365SOL    HW274537   2.408   0.508   1.225  0.2856  0.0622 -1.7436
24366SOL     OW74538   1.898   6.082   1.756  0.4105  0.3000 -0.2863
24366SOL    HW174539   1.890   6.177   1.742 -0.7905  0.4470  1.2734
24366SOL    HW274540   1.985   6.071   1.794  1.9110  0.3612 -3.3597
24367SOL     OW74541   6.799   7.286   7.427 -0.0552  0.1189  0.3817
24367SOL    HW174542   6.809   7.197   7.461 -0.8972 -0.5674 -1.0826
24367SOL    HW274543   6.884   7.307   7.389  0.2007  0.0186  0.8906
24368SOL     OW74544   2.542   3.769  10.720  0.1163 -0.1672 -0.3164
24368SOL    HW174545   2.496   3.707  10.663 -2.2683  0.3558  0.9206
24368SOL    HW274546   2.610   3.716  10.763 -0.3666 -1.3754 -0.9725
24369SOL     OW74547   3.067   7.783   3.528 -0.4798 -0.3227 -0.0242
24369SOL    HW174548   3.060   7.757   3.620  1.2588 -0.4624  0.0968
24369SOL    HW274549   3.006   7.857   3.520  0.1811  0.4495  1.5383
24370SOL     OW74550   7.963   3.797   6.296 -0.2609  0.0535  0.4646
24370SOL    HW174551   7.895   3.729   6.295 -0.1398 -0.0650 -0.1165
24370SOL    HW274552   7.924   3.871   6.251  0.2312 -0.2591 -0.5011
24371SOL     OW74553   0.152   1.601  12.068  0.1412  0.1642  0.1712
24371SOL    HW174554   0.199   1.652  12.134 -0.6861 -0.4037  1.2197
24371SOL    HW274555   0.119   1.666  12.006  0.9109  0.7007  0.3098
24372SOL     OW74556   6.154   5.913   8.541 -0.7169  0.0793 -0.0739
24372SOL    HW174557   6.060   5.935   8.543 -0.9897 -0.6716 -2.1396
24372SOL    HW274558   6.157   5.823   8.511  0.6927  0.1531 -0.2123
24373SOL     OW74559   7.693   6.397   3.219  0.3665  0.0790 -0.0416
24373SOL    HW174560   7.695   6.302   3.208  0.8060  0.0296  0.4171
24373SOL    HW274561   7.615   6.426   3.172 -0.6821 -0.6930  1.1705
24374SOL     OW74562   2.724   7.111   5.657  0.5090  0.2372  0.7406
24374SOL    HW174563   2.639   7.074   5.682 -0.3994 -1.5077 -3.8178
24374SOL    HW274564   2.788   7.049   5.690 -0.7630 -3.5522 -2.9262
24375SOL     OW74565   0.277   5.972   5.574 -0.0576  0.5640 -0.1249
24375SOL    HW174566   0.199   6.025   5.558 -0.1519  0.5861  0.3905
24375SOL    HW274567   0.243   5.888   5.604  0.1188  0.5621  0.0687
24376SOL     OW74568   0.544   7.055   7.940 -0.3005 -0.5442 -0.4211
24376SOL    HW174569   0.480   7.120   7.967 -1.2424 -1.2861 -0.8160
24376SOL    HW274570   0.514   6.973   7.980 -0.6331 -1.2706 -2.0912
24377SOL     OW74571   2.710   7.261  10.419 -0.3055 -0.0635 -0.0769
24377SOL    HW174572   2.709   7.318  10.496  0.0956  1.7892 -1.3726
24377SOL    HW274573   2.801   7.261  10.391 -0.3995 -0.9428 -0.4076
24378SOL     OW74574   7.464   7.331   6.795  0.4874 -0.3786 -0.3429
24378SOL    HW174575   7.445   7.423   6.774 -0.6530 -0.5915 -0.3115
24378SOL    HW274576   7.510   7.298   6.718  1.0979  0.2694 -0.2682
24379SOL     OW74577   6.143   1.795  11.497  0.4254  0.1562 -0.3156
24379SOL    HW174578   6.051   1.776  11.516  0.5881 -1.2828 -0.8656
24379SOL    HW274579   6.141   1.878  11.449 -0.6570 -0.2987 -1.0870
24380SOL     OW74580   1.581   3.219   0.072  1.0084  0.0523 -0.1496
24380SOL    HW174581   1.517   3.278   0.032  1.2138 -0.1382 -0.7685
24380SOL    HW274582   1.529   3.150   0.113  0.8274 -0.6904 -1.5609
24381SOL     OW74583   5.528   7.691   6.901 -0.9801 -0.4603  0.8762
24381SOL    HW174584   5.564   7.748   6.833  0.7989 -0.5952  1.6515
24381SOL    HW274585   5.452   7.738   6.934  0.0990  1.2177  1.0943
24382SOL     OW74586   0.399   2.540  11.923 -0.4708  0.0745 -0.2026
24382SOL    HW174587   0.384   2.498  12.008 -0.9042  1.8607  0.6536
24382SOL    HW274588   0.494   2.551  11.919 -0.4628  0.1685  0.1604
24383SOL     OW74589   2.673   4.194   0.230  0.1591  0.7332 -0.3480
24383SOL    HW174590   2.758   4.235   0.246  1.0352 -0.7914 -0.8729
24383SOL    HW274591   2.678   4.161   0.140 -0.2826 -0.9262  0.1879
24384SOL     OW74592   4.156   6.761   3.242  0.4222 -0.4397  1.3064
24384SOL    HW174593   4.117   6.845   3.215 -0.1838 -0.4211  2.1846
24384SOL    HW274594   4.217   6.739   3.172 -2.0280 -1.0682 -0.7701
24385SOL     OW74595   3.208   7.668   0.662  0.4347 -0.0238 -0.3314
24385SOL    HW174596   3.289   7.649   0.709  0.2196  0.8353  0.4138
24385SOL    HW274597   3.233   7.667   0.569  1.0462 -0.8987 -0.1704
24386SOL     OW74598   1.545   5.064   6.233 -0.3693  1.0563 -0.2277
24386SOL    HW174599   1.484   5.137   6.240  0.0512  1.3037  1.2486
24386SOL    HW274600   1.571   5.045   6.324  0.2585 -0.3045 -0.6535
24387SOL     OW74601   4.025   7.819  10.537 -0.7601 -0.1289 -0.4068
24387SOL    HW174602   3.950   7.853  10.587 -1.6425 -1.8787 -0.4700
24387SOL    HW274603   4.001   7.834  10.445  0.3380  2.0074 -0.4097
24388SOL     OW74604   6.523   7.742  10.295 -0.8551 -0.1019  0.0893
24388SOL    HW174605   6.544   7.722  10.204  0.9583  1.6683  0.0509
24388SOL    HW274606   6.599   7.712  10.344 -1.0975  0.4498  0.8152
24389SOL     OW74607   7.959   4.003   8.298  0.5731 -0.2930  0.0000
24389SOL    HW174608   7.929   4.087   8.333  0.5785  0.5096 -1.8466
24389SOL    HW274609   7.891   3.941   8.325 -0.0075  0.5010  0.4299
24390SOL     OW74610   3.057   6.391   7.219 -0.0544  0.1898  0.1057
24390SOL    HW174611   3.042   6.432   7.134 -0.4774  1.2819  0.6846
24390SOL    HW274612   3.085   6.302   7.199  0.7975  0.7312 -1.1978
24391SOL     OW74613   0.649   1.239   6.135 -0.3270 -0.7190 -0.1735
24391SOL    HW174614   0.623   1.330   6.152  2.9965  0.3658 -0.1227
24391SOL    HW274615   0.669   1.204   6.222 -0.1935 -1.0039 -0.3193
24392SOL     OW74616   7.975   7.168   3.198 -0.2824 -0.3625  0.4517
24392SOL    HW174617   7.906   7.115   3.237  0.7945 -1.5940  0.7703
24392SOL    HW274618   7.972   7.146   3.104  0.4253 -1.3401  0.6435
24393SOL     OW74619   7.490   5.986   5.274  0.1427  0.2678  0.5743
24393SOL    HW174620   7.495   6.056   5.339  0.0567  1.5975 -0.7838
24393SOL    HW274621   7.473   6.032   5.191  3.8029 -0.9596 -1.0679
24394SOL     OW74622   1.549   4.844  11.263  0.1787  0.2430  0.0476
24394SOL    HW174623   1.552   4.803  11.350 -0.7163  0.1615  0.0479
24394SOL    HW274624   1.638   4.835  11.229  0.1386 -1.2158  0.2770
24395SOL     OW74625   2.851   7.797  11.791  0.5519  0.5246  0.9404
24395SOL    HW174626   2.945   7.794  11.776  0.4502  0.8287  0.2323
24395SOL    HW274627   2.826   7.887  11.769 -0.1037  0.1065 -0.0533
24396SOL     OW74628   7.376   3.893  11.591  0.1187  0.4408 -0.6607
24396SOL    HW174629   7.390   3.799  11.586 -1.5823  0.1503 -0.6195
24396SOL    HW274630   7.441   3.924  11.654  0.7918 -0.6741 -0.7900
24397SOL     OW74631   0.027   7.314   0.834  0.3132 -0.3324 -0.0789
24397SOL    HW174632  -0.019   7.332   0.752  0.0841 -1.5469 -0.2313
24397SOL    HW274633   0.008   7.390   0.889 -1.5037 -0.5786 -0.3037
24398SOL     OW74634   6.168   4.882   9.719 -0.5183  0.2376  0.0915
24398SOL    HW174635   6.213   4.941   9.659  0.8948 -0.1980  0.6751
24398SOL    HW274636   6.211   4.798   9.707 -1.0037 -0.1325  0.8715
24399SOL     OW74637   6.224   7.796   2.573  0.4161 -0.4613  0.4089
24399SOL    HW174638   6.251   7.714   2.532  0.5748 -0.0214 -0.3722
24399SOL    HW274639   6.303   7.849   2.576  0.5630 -0.7068  1.8639
24400SOL     OW74640   4.036   3.033   1.104  0.2559 -0.0720  0.3338
24400SOL    HW174641   3.999   2.981   1.176  0.2858 -0.9801 -0.2885
24400SOL    HW274642   3.959   3.069   1.059  0.2287  0.2758  0.6518
24401SOL     OW74643   2.066   6.306   3.130  0.2310  0.0382 -0.0337
24401SOL    HW174644   2.116   6.371   3.079 -1.2645  1.1382 -0.1553
24401SOL    HW274645   2.089   6.222   3.090  2.0952  0.4638  0.0257
24402SOL     OW74646   2.592   6.907   5.306  0.2485  1.0201  0.2625
24402SOL    HW174647   2.685   6.926   5.295  0.2878  0.5931 -0.1892
24402SOL    HW274648   2.563   6.966   5.375  1.2623 -0.0912  1.6955
24403SOL     OW74649   0.190   5.112   0.526 -0.0954 -0.4408  0.7244
24403SOL    HW174650   0.257   5.053   0.561  1.1060  1.2428  1.4393
24403SOL    HW274651   0.215   5.126   0.435  0.8379  0.4998  1.0930
24404SOL     OW74652   5.301   7.132   0.991 -0.5732  0.0033 -0.0617
24404SOL    HW174653   5.274   7.044   0.965  0.4768 -0.2310 -0.3931
24404SOL    HW274654   5.329   7.173   0.909 -0.3818  0.4067  0.2050
24405SOL     OW74655   6.393   1.716   9.993 -0.5948  0.2099 -0.6155
24405SOL    HW174656   6.451   1.652  10.036 -0.0571  1.1201  0.0462
24405SOL    HW274657   6.405   1.700   9.899  0.8321  0.4601 -0.4970
24406SOL     OW74658   6.234   6.012   9.119  0.1953 -0.0921  0.0379
24406SOL    HW174659   6.229   5.957   9.041 -1.8633  0.6348 -0.4185
24406SOL    HW274660   6.160   5.985   9.173 -0.1903  1.4265  0.3333
24407SOL     OW74661   3.485   1.293   3.692  0.5933 -0.2394  0.4853
24407SOL    HW174662   3.444   1.379   3.682 -0.0328 -0.6681 -0.9298
24407SOL    HW274663   3.411   1.233   3.706  0.8641 -0.7956 -0.4330
24408SOL     OW74664   4.149   2.116   6.398 -0.4384  0.1753 -0.6444
24408SOL    HW174665   4.082   2.077   6.342 -0.4938 -0.0547 -0.4180
24408SOL    HW274666   4.147   2.209   6.376 -0.5153  0.1007 -0.9674
24409SOL     OW74667   2.344   7.182   7.236  0.4149 -0.5426 -0.0718
24409SOL    HW174668   2.281   7.184   7.309  1.5106  1.2114  0.8843
24409SOL    HW274669   2.428   7.163   7.277  1.1192  0.8553 -0.7949
24410SOL     OW74670   3.568   3.913   7.491 -0.6004 -0.1158 -0.6075
24410SOL    HW174671   3.559   3.961   7.573  0.6785 -2.4159  1.0032
24410SOL    HW274672   3.479   3.906   7.457 -0.9825  2.1335 -0.2551
24411SOL     OW74673   1.648   7.373   9.977  0.3533  0.1021  0.1211
24411SOL    HW174674   1.626   7.312  10.047 -1.9164  0.2323 -0.3991
24411SOL    HW274675   1.708   7.324   9.920  0.5264 -0.7402  1.0096
24412SOL     OW74676   6.110   1.126   4.310 -0.8906 -0.4064 -0.2667
24412SOL    HW174677   6.179   1.075   4.353 -1.0358  0.5558  1.1583
24412SOL    HW274678   6.100   1.084   4.224  0.4717 -1.4366  0.0389
24413SOL     OW74679   2.391   5.289   6.755  0.1860  0.2459 -0.6667
24413SOL    HW174680   2.336   5.332   6.821  0.4305 -0.5480  0.0732
24413SOL    HW274681   2.447   5.230   6.806  1.1904  0.4787 -1.4861
24414SOL     OW74682   6.380   3.717  11.431 -0.3063 -0.5191 -0.4880
24414SOL    HW174683   6.464   3.671  11.422  0.5236  0.7869  0.2162
24414SOL    HW274684   6.404   3.809  11.436 -1.7657 -0.1428  0.1134
24415SOL     OW74685   7.420   7.679  11.386  0.0173  0.9162  0.7623
24415SOL    HW174686   7.416   7.654  11.294 -2.4808  0.8573  0.8268
24415SOL    HW274687   7.451   7.600  11.431  0.5810  0.7273  0.0515
24416SOL     OW74688   0.934   3.653   8.064  0.2594 -0.4474 -0.4792
24416SOL    HW174689   0.983   3.617   7.990  0.0077 -0.5549 -0.5949
24416SOL    HW274690   0.848   3.610   8.060  0.0884 -0.1231 -0.3910
24417SOL     OW74691   2.571   7.003   2.507 -0.1866 -0.4243  0.1045
24417SOL    HW174692   2.592   6.917   2.543  2.1382 -0.4436 -1.0801
24417SOL    HW274693   2.642   7.060   2.537 -1.8139  1.1857  1.0736
24418SOL     OW74694   7.190   3.723  11.951 -0.0349 -0.2955  0.2038
24418SOL    HW174695   7.181   3.816  11.972  0.1953  0.3921 -2.3734
24418SOL    HW274696   7.116   3.705  11.893  0.3693 -1.5383  0.0510
24419SOL     OW74697   3.958   7.126   2.354 -0.5837 -0.0177  0.4419
24419SOL    HW174698   3.985   7.095   2.440  1.1916 -0.3923 -0.2052
24419SOL    HW274699   3.959   7.222   2.361 -2.2670 -0.0359  1.3327
24420SOL     OW74700   1.020   3.813   0.846 -0.1539  0.0311 -0.0767
24420SOL    HW174701   1.092   3.827   0.785  0.1505 -0.8563  0.0702
24420SOL    HW274702   1.061   3.772   0.922 -0.6502  0.4654  0.4352
24421SOL     OW74703   7.955   0.885  11.548  0.2308 -0.0399  0.1494
24421SOL    HW174704   7.990   0.957  11.496 -0.1477  0.2502  0.2958
24421SOL    HW274705   7.861   0.902  11.554  0.3153  0.1396  1.2465
24422SOL     OW74706   3.382   2.888   5.529 -0.1128  0.1799  0.2166
24422SOL    HW174707   3.365   2.911   5.438  0.0303 -0.7096 -0.0449
24422SOL    HW274708   3.402   2.794   5.527  1.8968  0.5434  0.8849
24423SOL     OW74709   4.455   5.880   6.576  0.2521  0.0711 -0.3885
24423SOL    HW174710   4.394   5.952   6.562  1.1083  0.5304 -2.1498
24423SOL    HW274711   4.415   5.806   6.531 -0.9210 -0.8027  1.9304
24424SOL     OW74712   7.155   3.087   2.906 -0.4312 -0.2343 -0.1030
24424SOL    HW174713   7.066   3.061   2.880 -0.3096 -1.2497  0.4332
24424SOL    HW274714   7.180   3.155   2.844 -1.6705  0.2204 -0.1239
24425SOL     OW74715   4.200   2.339   2.576 -0.1007 -0.2319  0.5334
24425SOL    HW174716   4.273   2.288   2.611  0.0086  0.0983  0.7946
24425SOL    HW274717   4.153   2.278   2.520  0.0850 -0.5895  0.7632
24426SOL     OW74718   2.029   7.654   9.037  0.2296 -0.4006  0.0302
24426SOL    HW174719   2.046   7.747   9.048 -0.2386 -0.3291  0.2210
24426SOL    HW274720   2.094   7.611   9.092 -0.0967 -0.1487  0.6239
24427SOL     OW74721   3.342   5.343   3.445  0.2548  0.1840 -0.4092
24427SOL    HW174722   3.422   5.301   3.476  0.9007  1.4505 -0.3047
24427SOL    HW274723   3.361   5.363   3.353  0.1699  0.7365 -0.3078
24428SOL     OW74724   7.409   0.234  11.860  0.0408 -0.1271 -0.4673
24428SOL    HW174725   7.392   0.181  11.782  0.2199  0.5716 -0.9893
24428SOL    HW274726   7.337   0.213  11.919 -0.9247  0.4466 -1.4088
24429SOL     OW74727   0.620   4.699   0.895 -0.4350  0.0349  0.7708
24429SOL    HW174728   0.525   4.697   0.904 -0.5427  1.9535  0.4499
24429SOL    HW274729   0.636   4.743   0.812  0.7394 -0.0695  0.9204
24430SOL     OW74730   2.439   1.201   0.273 -0.5831 -0.6185 -0.2481
24430SOL    HW174731   2.399   1.142   0.209 -0.8922  1.8013 -2.4823
24430SOL    HW274732   2.389   1.283   0.264  0.7034  0.4527  1.6576
24431SOL     OW74733   1.363   7.376   3.019 -0.1041  0.1411  0.0156
24431SOL    HW174734   1.272   7.382   3.046 -0.2439  1.3238 -0.6829
24431SOL    HW274735   1.360   7.338   2.931 -0.0763  1.9042 -0.7792
24432SOL     OW74736   3.854   5.482   7.786 -0.3802  1.0754 -0.3642
24432SOL    HW174737   3.804   5.409   7.749 -0.4126  0.1908  1.3192
24432SOL    HW274738   3.866   5.542   7.713  0.7315 -1.1654 -2.1634
24433SOL     OW74739   1.850   3.897   8.911 -0.8310  0.6623  0.5779
24433SOL    HW174740   1.923   3.953   8.886 -0.3697 -0.1109  0.1574
24433SOL    HW274741   1.865   3.878   9.004  0.8045 -1.3265 -0.0056
24434SOL     OW74742   7.770   1.201   7.633  1.1100  0.0609  0.2669
24434SOL    HW174743   7.760   1.284   7.586  1.0187  1.1687  2.1373
24434SOL    HW274744   7.804   1.140   7.567  0.1574  1.2727 -1.4263
24435SOL     OW74745   3.228   3.461   7.587 -0.3134 -0.0330  0.5828
24435SOL    HW174746   3.244   3.527   7.655 -0.5188  1.0713 -0.4024
24435SOL    HW274747   3.137   3.476   7.561  0.1524  0.4929 -0.8668
24436SOL     OW74748   1.991   3.288   9.871  0.1866  0.0492  0.7404
24436SOL    HW174749   1.971   3.256   9.959 -1.1517 -1.3763 -0.0323
24436SOL    HW274750   1.911   3.271   9.821  0.9796  0.6745 -0.8016
24437SOL     OW74751   7.021   6.299   0.222  0.0078  0.2782 -0.3042
24437SOL    HW174752   7.007   6.313   0.316 -0.7285  0.7273 -0.4719
24437SOL    HW274753   6.961   6.361   0.179  0.8279  0.5603 -1.0726
24438SOL     OW74754   4.928   6.286   1.557  0.2125  0.4078 -0.1040
24438SOL    HW174755   5.005   6.249   1.601  1.2615  0.8490 -1.5232
24438SOL    HW274756   4.869   6.211   1.545  0.4859  0.0281  0.7930
24439SOL     OW74757   3.057   3.737   8.501 -0.5184 -0.3316 -0.1254
24439SOL    HW174758   3.058   3.643   8.521 -2.0709 -0.2103  0.6834
24439SOL    HW274759   3.063   3.741   8.406  0.4983 -1.2089 -0.1166
24440SOL     OW74760   6.824   1.342   9.359  0.7797 -0.0591 -0.0563
24440SOL    HW174761   6.821   1.247   9.369  0.0180 -0.0999 -0.5140
24440SOL    HW274762   6.823   1.376   9.448 -0.6412 -0.4626  0.1101
24441SOL     OW74763   5.535   4.101   3.884 -0.2537 -0.6859 -0.4352
24441SOL    HW174764   5.518   4.080   3.976 -1.0613 -1.3813 -0.7251
24441SOL    HW274765   5.580   4.185   3.886 -0.0324 -0.8127  0.6076
24442SOL     OW74766   5.992   6.374   9.496  0.3052 -0.1543 -0.2199
24442SOL    HW174767   5.985   6.453   9.549 -0.6347 -0.2884 -0.1278
24442SOL    HW274768   5.910   6.371   9.447  1.4432  0.3995 -2.2939
24443SOL     OW74769   2.943   1.507   7.005 -0.1994 -0.0180 -0.3308
24443SOL    HW174770   2.944   1.486   7.098 -1.5321 -0.8214 -0.4707
24443SOL    HW274771   3.034   1.494   6.976  0.4616  1.2637  1.0381
24444SOL     OW74772   3.389   4.831   3.953 -0.2087  0.0592  0.5920
24444SOL    HW174773   3.344   4.912   3.976 -0.6546  0.4794 -1.5344
24444SOL    HW274774   3.482   4.851   3.969 -0.0138  1.9460 -2.1252
24445SOL     OW74775   3.322   3.221  10.179 -0.5167 -0.3575  0.0116
24445SOL    HW174776   3.339   3.218  10.085 -3.7495 -0.7574 -0.6603
24445SOL    HW274777   3.293   3.310  10.195 -1.3738 -0.6840  0.3213
24446SOL     OW74778   0.320   1.406   6.339 -0.5722  0.2296 -0.3862
24446SOL    HW174779   0.245   1.400   6.280 -1.3090 -0.6892  0.6145
24446SOL    HW274780   0.354   1.317   6.345 -0.5705  0.2790  0.6198
24447SOL     OW74781   7.468   6.701   2.798 -0.4644 -0.0103  0.1406
24447SOL    HW174782   7.470   6.657   2.713  0.2347 -1.0554  0.6872
24447SOL    HW274783   7.560   6.721   2.817 -0.5573 -0.2880  0.9093
24448SOL     OW74784   2.705   7.707   0.736 -0.7346 -0.4991  0.2955
24448SOL    HW174785   2.618   7.723   0.699 -0.8495 -0.5333  0.5465
24448SOL    HW274786   2.726   7.788   0.782 -0.2667 -0.1700 -0.4715
24449SOL     OW74787   7.552   0.377   5.484  0.7734 -0.2179 -0.5115
24449SOL    HW174788   7.466   0.410   5.511 -0.2990 -0.3514 -3.3997
24449SOL    HW274789   7.614   0.418   5.545 -1.1221  1.7054  0.2435
24450SOL     OW74790   0.990   3.251   2.034  0.3393 -0.2455 -0.2738
24450SOL    HW174791   0.976   3.211   2.120  0.8390  0.6362  0.2378
24450SOL    HW274792   0.995   3.177   1.973 -1.9189 -0.8085  0.1395
24451SOL     OW74793   3.476   1.234   3.984 -0.2812 -0.7563  0.1242
24451SOL    HW174794   3.431   1.219   4.067 -1.6244 -1.1141 -0.6406
24451SOL    HW274795   3.409   1.267   3.925  0.9081  0.6812 -0.5131
24452SOL     OW74796   1.653   2.070   7.866 -0.2896  0.0750  0.3421
24452SOL    HW174797   1.683   2.160   7.857 -0.5241  0.0123 -1.3444
24452SOL    HW274798   1.734   2.018   7.864 -0.1563  0.2365  1.2990
24453SOL     OW74799   3.465   3.284   1.319 -0.9184  0.5464 -0.1828
24453SOL    HW174800   3.394   3.324   1.369 -1.3969  0.3678 -0.7067
24453SOL    HW274801   3.506   3.222   1.380 -2.7001 -1.0878 -0.5375
24454SOL     OW74802   2.497   6.819  11.295 -0.4482  0.3821 -0.1394
24454SOL    HW174803   2.450   6.900  11.317  0.0590  0.6952 -0.1929
24454SOL    HW274804   2.553   6.843  11.221  0.7637  0.3611  0.7436
24455SOL     OW74805   1.556   0.599   0.691  0.0481 -0.1301 -0.4838
24455SOL    HW174806   1.648   0.581   0.673  0.0486  0.1673 -0.7966
24455SOL    HW274807   1.558   0.659   0.766 -0.0310 -3.6380  2.6407
24456SOL     OW74808   5.689   7.438  12.169  0.2376 -0.2694  0.3578
24456SOL    HW174809   5.686   7.406  12.259 -0.5378  1.6043  1.0417
24456SOL    HW274810   5.780   7.466  12.157  0.0902  0.5077  0.9617
24457SOL     OW74811   4.066   2.873   6.341 -0.3995 -0.3153  0.1543
24457SOL    HW174812   4.015   2.808   6.388 -0.7808 -0.6816 -0.7402
24457SOL    HW274813   4.052   2.955   6.389 -2.1620 -0.3126 -0.2850
24458SOL     OW74814   5.232   7.506  12.042 -0.1253 -0.0309 -0.1624
24458SOL    HW174815   5.247   7.590  12.085 -0.4502 -0.2741  0.4350
24458SOL    HW274816   5.311   7.456  12.059  0.2787  0.3281 -0.9478
24459SOL     OW74817   7.701   0.179   6.853  0.2107 -0.2027  0.2249
24459SOL    HW174818   7.644   0.234   6.906 -2.4760 -1.4359 -1.2026
24459SOL    HW274819   7.746   0.123   6.916 -1.1513 -0.0713  1.3563
24460SOL     OW74820   5.920   3.847   8.918 -0.0636 -0.6004  0.0220
24460SOL    HW174821   5.837   3.805   8.896 -0.7461 -0.2008  1.6629
24460SOL    HW274822   5.943   3.810   9.003  1.6849 -1.0187 -0.5947
24461SOL     OW74823   5.075   3.669   3.867  0.2922  0.1197 -0.1651
24461SOL    HW174824   5.039   3.686   3.780  1.7368 -2.1117 -1.3043
24461SOL    HW274825   4.999   3.652   3.922 -0.5811 -0.6334 -1.5501
24462SOL     OW74826   2.666   5.296   8.544  0.3307 -0.5204  0.5358
24462SOL    HW174827   2.707   5.305   8.458 -0.7436 -0.3072  0.0216
24462SOL    HW274828   2.606   5.222   8.534 -0.0782 -0.2565  0.9858
24463SOL     OW74829   4.264   7.578   6.210  0.2851  0.2095 -0.4742
24463SOL    HW174830   4.187   7.555   6.263  0.3829  0.0891 -0.3834
24463SOL    HW274831   4.331   7.599   6.275  0.7049 -0.9098 -0.5341
24464SOL     OW74832   4.726   4.109   1.051 -0.1316 -0.2453  0.2485
24464SOL    HW174833   4.637   4.123   1.084 -0.6471 -0.6845 -0.8800
24464SOL    HW274834   4.770   4.193   1.061 -1.3016  0.5472 -0.9834
24465SOL     OW74835   2.685   1.411   5.446 -0.2106  0.8684 -0.1339
24465SOL    HW174836   2.753   1.473   5.421 -0.0148  0.3746 -0.8540
24465SOL    HW274837   2.673   1.425   5.540  0.8124  1.0259 -0.0165
24466SOL     OW74838   5.489   3.090   5.963 -0.4211  0.2974 -0.6369
24466SOL    HW174839   5.458   3.056   5.879 -0.0651  1.7626 -1.4028
24466SOL    HW274840   5.463   3.025   6.027 -0.5311 -0.9499 -1.9138
24467SOL     OW74841   4.482   4.234   1.104  0.4198 -0.3795 -0.0939
24467SOL    HW174842   4.506   4.317   1.064  0.8567 -1.1814 -1.5341
24467SOL    HW274843   4.386   4.236   1.108  0.4371  0.2952  0.1498
24468SOL     OW74844   7.263   0.153   1.287  0.3788  0.2109 -0.2564
24468SOL    HW174845   7.318   0.132   1.363 -3.3441 -1.5593  2.2261
24468SOL    HW274846   7.249   0.069   1.244 -1.4363  0.3394  0.0172
24469SOL     OW74847   0.466   3.479   0.837  0.8327 -0.3623  0.3235
24469SOL    HW174848   0.501   3.550   0.890  1.0251 -1.8707  2.3350
24469SOL    HW274849   0.462   3.404   0.897 -0.9247 -1.6158 -1.2521
24470SOL     OW74850   4.027   4.654   3.774 -0.0902 -0.0027 -0.9364
24470SOL    HW174851   3.933   4.660   3.792 -0.0868 -0.5940 -0.6939
24470SOL    HW274852   4.055   4.745   3.761 -0.4230  0.3221  0.4021
24471SOL     OW74853   5.644   2.705   8.108 -0.3979  0.6613  0.5864
24471SOL    HW174854   5.582   2.732   8.040 -0.8080 -0.7334  0.3743
24471SOL    HW274855   5.598   2.635   8.155  0.9161 -0.2172  0.5964
24472SOL     OW74856   4.331   6.208   4.118  0.0410 -0.0327  0.2309
24472SOL    HW174857   4.272   6.273   4.156  0.0061 -0.6978  1.3700
24472SOL    HW274858   4.332   6.227   4.025 -0.0781  1.5129  0.5177
24473SOL     OW74859   1.905   3.127   9.257  0.3589  0.2386  0.5017
24473SOL    HW174860   1.883   3.045   9.301 -0.9602  0.2759 -0.0372
24473SOL    HW274861   1.982   3.105   9.203 -0.0507 -0.6836  0.2620
24474SOL     OW74862   6.699   3.840   3.888  0.3868 -0.0015  0.2792
24474SOL    HW174863   6.777   3.889   3.915  0.9383 -0.1439 -0.9825
24474SOL    HW274864   6.734   3.763   3.843 -0.4776  0.3955 -1.1191
24475SOL     OW74865   6.112   1.983   1.428  0.1269 -0.0200 -0.0160
24475SOL    HW174866   6.158   1.980   1.512  2.0018 -1.5973 -1.0208
24475SOL    HW274867   6.064   1.899   1.424 -0.2039  0.1843 -0.4046
24476SOL     OW74868   2.918   4.974   2.564  0.1124  0.3949  0.4991
24476SOL    HW174869   2.963   5.052   2.597 -1.1925  1.1371  0.6029
24476SOL    HW274870   2.897   4.995   2.474  0.5512 -0.2200  0.2457
24477SOL     OW74871   2.423   1.800  11.222 -0.1311 -0.4181 -0.5130
24477SOL    HW174872   2.438   1.866  11.155 -1.2193  2.2957  1.7395
24477SOL    HW274873   2.479   1.825  11.294 -0.1515 -2.3397  0.2294
24478SOL     OW74874   7.037   7.448   6.898 -0.3518  0.0544 -0.1216
24478SOL    HW174875   6.969   7.451   6.966 -0.7456 -0.1044 -0.4991
24478SOL    HW274876   7.115   7.485   6.940 -0.9880  1.3694 -0.0393
24479SOL     OW74877   6.417   0.431  11.769  0.5143 -0.1486 -0.2370
24479SOL    HW174878   6.394   0.463  11.857  1.5834  1.1385 -0.3872
24479SOL    HW274879   6.512   0.435  11.766  0.5259 -0.8559 -1.2254
24480SOL     OW74880   7.368   5.469   1.647 -0.0584 -0.0752 -0.0316
24480SOL    HW174881   7.282   5.435   1.621 -0.6290  1.9724 -1.0446
24480SOL    HW274882   7.422   5.459   1.569  0.7715 -1.6750  0.7110
24481SOL     OW74883   2.656   7.085   4.962  0.5563  0.1066  0.1311
24481SOL    HW174884   2.682   7.042   4.881 -0.6186  2.3657 -1.5346
24481SOL    HW274885   2.731   7.138   4.987 -1.0300  4.5777 -3.2553
24482SOL     OW74886   5.588   3.143  11.461  0.0548 -0.8926  0.8277
24482SOL    HW174887   5.589   3.201  11.536 -0.3422 -2.3189  1.9877
24482SOL    HW274888   5.511   3.087  11.475 -0.9057 -0.2621 -1.3903
24483SOL     OW74889   7.108   5.921   1.142  0.1939 -0.4001  0.0349
24483SOL    HW174890   7.146   5.900   1.227 -0.7001  1.2449  0.8812
24483SOL    HW274891   7.035   5.860   1.133  1.5677 -2.0588 -0.6005
24484SOL     OW74892   5.332   0.718   0.012 -0.5445 -0.5804  0.0145
24484SOL    HW174893   5.383   0.642  -0.016  0.2077  0.1228 -0.5687
24484SOL    HW274894   5.321   0.770  -0.068 -1.2887 -0.2103  0.3508
24485SOL     OW74895   7.917   4.652   4.156  0.6287 -0.2525 -0.0012
24485SOL    HW174896   7.841   4.611   4.116  0.1272  0.0574  0.6140
24485SOL    HW274897   7.898   4.651   4.250  1.7192 -0.8609  0.2280
24486SOL     OW74898   2.220   3.189   2.679 -0.0874 -0.6017  0.2289
24486SOL    HW174899   2.197   3.122   2.615 -0.2820 -1.2238  0.9412
24486SOL    HW274900   2.314   3.203   2.666  0.6994 -3.2807  2.1203
24487SOL     OW74901   2.735   2.576   3.776 -0.0469 -0.1901 -0.1343
24487SOL    HW174902   2.646   2.563   3.807 -0.3333  1.8453  0.0292
24487SOL    HW274903   2.780   2.620   3.848  0.7609 -0.1483 -0.6429
24488SOL     OW74904   3.715   7.448   5.284 -0.3299  0.4256  0.3209
24488SOL    HW174905   3.644   7.480   5.340  0.0043 -0.8428  1.5059
24488SOL    HW274906   3.684   7.363   5.252  1.0559 -0.6563  1.7173
24489SOL     OW74907   7.066   2.146   7.746  0.6091  0.2256 -0.3300
24489SOL    HW174908   7.156   2.141   7.779  0.8253 -0.2379 -0.9699
24489SOL    HW274909   7.067   2.092   7.666 -0.1094  0.6304 -0.6174
24490SOL     OW74910   0.708   0.067   6.478  0.4671  0.0806 -0.4006
24490SOL    HW174911   0.688   0.145   6.427  0.4087 -0.8410 -1.8419
24490SOL    HW274912   0.678  -0.006   6.424  0.8213 -0.9676  0.7600
24491SOL     OW74913   4.130   2.374   6.383  0.3711  0.5733  0.2962
24491SOL    HW174914   4.115   2.418   6.467 -1.9725  1.2698 -0.4090
24491SOL    HW274915   4.161   2.443   6.324  0.1597  0.5104  0.1094
24492SOL     OW74916   0.776   0.895  10.265 -0.1259 -0.0783  0.0088
24492SOL    HW174917   0.829   0.821  10.235 -0.0921 -0.8335  1.8254
24492SOL    HW274918   0.741   0.867  10.349  0.5573  2.2865  1.1787
24493SOL     OW74919   6.239   7.731   6.220 -0.2151 -0.2865  0.0476
24493SOL    HW174920   6.266   7.654   6.269 -1.8796  0.5648  2.5289
24493SOL    HW274921   6.145   7.719   6.205 -0.3039  0.7955 -0.4247
24494SOL     OW74922   4.059   6.923   8.546 -0.1735  0.3866  0.4905
24494SOL    HW174923   4.107   6.954   8.469  0.7915  1.2833  1.4333
24494SOL    HW274924   4.063   6.827   8.539  1.1262  0.4497  0.1536
24495SOL     OW74925   3.357   4.107  10.626  0.1177 -0.1519 -0.3984
24495SOL    HW174926   3.272   4.151  10.618  0.5291  0.6747 -0.2594
24495SOL    HW274927   3.370   4.068  10.539 -0.5886 -0.6399 -0.2981
24496SOL     OW74928   2.608   4.882  11.687  0.4790 -0.4921  0.1560
24496SOL    HW174929   2.626   4.931  11.607  2.1246 -0.1415  0.7006
24496SOL    HW274930   2.525   4.918  11.720  0.8882  0.8809 -0.2512
24497SOL     OW74931   4.402   1.796  11.914 -0.0592  0.0596 -0.5449
24497SOL    HW174932   4.378   1.728  11.978  0.8179  0.0987 -0.1482
24497SOL    HW274933   4.414   1.875  11.967  0.0655  0.2410 -0.8442
24498SOL     OW74934   5.301   2.372   9.400  0.3123 -0.5152  0.2991
24498SOL    HW174935   5.353   2.295   9.422 -0.2419 -1.4305 -1.4456
24498SOL    HW274936   5.358   2.425   9.345 -0.4413 -1.3932 -1.3962
24499SOL     OW74937   4.392   1.277  11.366  0.2645  0.4487  0.1672
24499SOL    HW174938   4.308   1.240  11.339  0.8240  0.0892 -1.1671
24499SOL    HW274939   4.372   1.330  11.443 -1.6983  2.5970 -1.6963
24500SOL     OW74940   6.425   0.515   1.246  0.4503  0.4428 -0.2043
24500SOL    HW174941   6.461   0.427   1.245 -1.2340 -0.2977 -0.5293
24500SOL    HW274942   6.495   0.571   1.212  1.5387 -0.7605 -0.0000
24501SOL     OW74943   3.672   2.818   5.776 -0.1781 -0.0101 -0.1688
24501SOL    HW174944   3.751   2.873   5.780  0.4752  0.0232 -5.5900
24501SOL    HW274945   3.601   2.877   5.800  1.0761  1.0429  1.2002
24502SOL     OW74946   4.137   6.231   9.027 -0.4494  0.8391  0.5715
24502SOL    HW174947   4.068   6.266   9.083  1.1927  1.4709  2.3173
24502SOL    HW274948   4.218   6.252   9.073  0.8958 -0.4895 -1.0487
24503SOL     OW74949   7.220   6.857   0.768 -0.2437 -0.2364  0.2166
24503SOL    HW174950   7.198   6.882   0.858  1.6573  0.3574  0.5649
24503SOL    HW274951   7.311   6.828   0.773  0.0392  0.2004 -1.5912
24504SOL     OW74952   7.348   2.945   5.007 -0.0103 -0.4852 -0.0587
24504SOL    HW174953   7.342   2.921   4.915  1.6143 -1.7753  0.1195
24504SOL    HW274954   7.403   2.877   5.046 -0.9525 -0.1714  1.9539
24505SOL     OW74955   0.781   0.255   7.327  0.6103  0.4458 -0.9287
24505SOL    HW174956   0.820   0.338   7.298 -0.0418  1.2413  0.4005
24505SOL    HW274957   0.709   0.240   7.266 -0.7581  2.1111  0.1942
24506SOL     OW74958   1.595   2.806   8.751 -0.1691  0.8643  0.4249
24506SOL    HW174959   1.587   2.847   8.837  0.1399  1.4090  0.2003
24506SOL    HW274960   1.527   2.738   8.749  2.1404 -1.7615  2.5393
24507SOL     OW74961   6.790   1.785   9.071  0.0061  0.0034  0.3763
24507SOL    HW174962   6.695   1.779   9.069  0.0579 -0.9446  0.4617
24507SOL    HW274963   6.820   1.695   9.087  0.8925  0.3952  1.0077
24508SOL     OW74964   4.673   1.343   1.073 -0.5778 -0.0083 -0.0467
24508SOL    HW174965   4.610   1.414   1.058 -0.8460 -0.4903 -1.2697
24508SOL    HW274966   4.626   1.263   1.051  0.7224 -0.3161 -1.9789
24509SOL     OW74967   7.032   5.920   3.424  0.1359  0.5484 -0.0076
24509SOL    HW174968   7.059   5.872   3.345  0.0059 -0.9104  0.7993
24509SOL    HW274969   7.087   5.884   3.494 -1.1652  0.3544  0.9374
24510SOL     OW74970   6.787   0.321   1.601  0.1514 -0.1336  0.3574
24510SOL    HW174971   6.723   0.269   1.552 -1.2821  1.7368  0.0983
24510SOL    HW274972   6.828   0.377   1.534 -1.4950  2.1227  1.1143
24511SOL     OW74973   1.307   1.643   2.860 -0.1171  0.1310 -0.4813
24511SOL    HW174974   1.226   1.600   2.834  0.2083 -0.1270 -1.0989
24511SOL    HW274975   1.282   1.734   2.875 -1.3753 -0.6887  3.4516
24512SOL     OW74976   3.443   1.434   5.418  0.0382  0.2238  0.4283
24512SOL    HW174977   3.524   1.446   5.468 -0.2127 -0.7710  1.0907
24512SOL    HW274978   3.409   1.523   5.409  1.0678  0.6336  0.3542
24513SOL     OW74979   3.246   0.673   0.738  0.2545 -0.1899  0.1593
24513SOL    HW174980   3.190   0.612   0.786  0.5293  0.0027  0.7327
24513SOL    HW274981   3.208   0.676   0.650 -0.8649  0.2316  0.6457
24514SOL     OW74982   6.930   0.234   1.988 -0.3062 -0.3568 -0.1632
24514SOL    HW174983   7.002   0.223   2.050  1.0829 -0.6370 -1.7712
24514SOL    HW274984   6.953   0.179   1.913 -1.4723  0.6600 -1.3324
24515SOL     OW74985   4.407   4.831   1.647 -0.1165  0.0155  0.3039
24515SOL    HW174986   4.451   4.834   1.732  0.1858 -0.7151  0.1791
24515SOL    HW274987   4.432   4.746   1.610  1.1533  1.0344 -1.2651
24516SOL     OW74988   0.458   7.517   2.968 -0.5706  0.1338  0.1431
24516SOL    HW174989   0.515   7.587   2.999 -0.1663 -0.2290  0.2340
24516SOL    HW274990   0.444   7.536   2.875 -0.3574  0.2613  0.1380
24517SOL     OW74991   0.609   7.387   3.931  0.0726 -0.3226 -0.3270
24517SOL    HW174992   0.659   7.405   4.011  0.0445 -1.2672 -0.0843
24517SOL    HW274993   0.632   7.297   3.908 -2.0598 -1.0597  0.2104
24518SOL     OW74994   2.937   7.426  11.654  0.1548 -0.0217  0.1936
24518SOL    HW174995   2.915   7.352  11.709  1.3264 -1.2128 -0.8716
24518SOL    HW274996   2.853   7.464  11.630 -0.4458 -0.7692  1.0730
24519SOL     OW74997   7.862   3.470  11.949 -0.2899 -0.0977  0.0857
24519SOL    HW174998   7.823   3.387  11.921  0.1142  0.2012 -1.4674
24519SOL    HW274999   7.952   3.448  11.974 -0.0068 -0.0697 -0.8557
24520SOL     OW75000   1.559   5.856   5.369  0.1846  0.0010 -0.5855
24520SOL    HW175001   1.506   5.779   5.349 -0.3577  0.4114 -0.7595
24520SOL    HW275002   1.553   5.910   5.290  1.0329 -0.0395 -0.6830
24521SOL     OW75003   1.774   3.766   2.386 -0.0247  0.0157 -0.2123
24521SOL    HW175004   1.840   3.735   2.323  2.5926  1.0326  1.8470
24521SOL    HW275005   1.821   3.828   2.441 -2.4246 -0.1536  2.2205
24522SOL     OW75006   4.061   7.763   5.025  0.8081  0.4344  0.3202
24522SOL    HW175007   4.003   7.690   5.046 -1.8000  2.5829  1.1665
24522SOL    HW275008   4.129   7.759   5.091 -0.8729  0.3388  2.1463
24523SOL     OW75009   7.696   6.391   8.128 -0.0961 -0.0513  0.7522
24523SOL    HW175010   7.611   6.347   8.126 -0.2639  0.2458  1.1372
24523SOL    HW275011   7.695   6.441   8.210  0.4328 -0.0117  0.7377
24524SOL     OW75012   0.749   3.922  12.004 -0.4037 -0.3155  0.5923
24524SOL    HW175013   0.757   3.836  12.044 -1.4041 -0.7529 -0.1045
24524SOL    HW275014   0.828   3.969  12.031 -0.2774 -1.1387  1.7125
24525SOL     OW75015   2.285   2.877   5.010 -0.5536  0.3050  0.3888
24525SOL    HW175016   2.275   2.937   4.936 -0.0336  3.0241  2.3723
24525SOL    HW275017   2.197   2.868   5.046 -0.4394  0.9502  0.8447
24526SOL     OW75018   2.906   1.430  12.475 -0.3803 -0.3905  0.7786
24526SOL    HW175019   2.849   1.389  12.540 -1.2943  0.3526  0.4703
24526SOL    HW275020   2.979   1.369  12.464 -1.8887 -2.1518  0.0202
24527SOL     OW75021   4.012   7.634  10.962 -0.4208  0.0248  0.0481
24527SOL    HW175022   4.088   7.661  10.910  0.4386  1.6128  1.9920
24527SOL    HW275023   4.019   7.539  10.967 -0.9048 -0.2766 -3.1708
24528SOL     OW75024   4.753   3.110   0.757  0.1196  0.1697  0.6037
24528SOL    HW175025   4.692   3.105   0.684 -0.9351  0.2827  1.4367
24528SOL    HW275026   4.698   3.135   0.832  1.3283  1.1463  1.2151
24529SOL     OW75027   3.546   7.874   1.854  0.0029  0.0169 -0.2591
24529SOL    HW175028   3.614   7.911   1.797 -0.2241  1.2489  0.2308
24529SOL    HW275029   3.508   7.950   1.898 -0.6172 -0.8039  0.6679
24530SOL     OW75030   0.586   7.320  11.028  0.2763  0.1007  0.1280
24530SOL    HW175031   0.647   7.280  10.966  0.9423  0.7217  0.3769
24530SOL    HW275032   0.591   7.266  11.106 -0.9395 -0.9865 -0.5046
24531SOL     OW75033   4.133   6.297   3.303  0.7440  0.2367 -0.1640
24531SOL    HW175034   4.054   6.335   3.342 -1.3213  0.5860 -4.0929
24531SOL    HW275035   4.129   6.204   3.327  0.1407  0.5753  1.1363
24532SOL     OW75036   5.613   6.118  11.766  0.3855 -0.1474 -0.1377
24532SOL    HW175037   5.689   6.112  11.707  2.1280  4.7711  1.0652
24532SOL    HW275038   5.643   6.076  11.846  0.9851 -0.2213 -0.3881
24533SOL     OW75039   5.213   2.529   7.447  0.2325 -0.2091 -0.1559
24533SOL    HW175040   5.184   2.608   7.492  1.5293 -0.8172  1.9300
24533SOL    HW275041   5.178   2.457   7.499 -0.4027 -1.0226 -1.6557
24534SOL     OW75042   4.635   2.363   5.636  0.1036  0.3502  0.2897
24534SOL    HW175043   4.627   2.270   5.655  1.1942  0.2124  0.1080
24534SOL    HW275044   4.574   2.378   5.563  0.3284 -0.3270 -0.0428
24535SOL     OW75045   1.759   2.736   7.686 -0.4873 -0.2798 -0.7549
24535SOL    HW175046   1.768   2.751   7.592  1.4665  1.6711 -0.3519
24535SOL    HW275047   1.835   2.780   7.725 -1.0393 -1.3155  1.7247
24536SOL     OW75048   5.139   7.649   0.996  0.2055  0.6652 -0.1132
24536SOL    HW175049   5.222   7.647   0.949  0.3009  0.8426  0.0464
24536SOL    HW275050   5.115   7.557   1.006  0.9054  0.5642  0.7548
24537SOL     OW75051   2.240   4.600   5.440 -0.4143 -0.6232  0.0328
24537SOL    HW175052   2.195   4.650   5.372 -1.7967 -1.4046  0.3452
24537SOL    HW275053   2.171   4.574   5.501  1.0142  2.3485  3.2988
24538SOL     OW75054   6.277   2.586   5.118 -0.3072 -0.0080 -0.4180
24538SOL    HW175055   6.289   2.543   5.034 -0.9488 -2.2120  0.5673
24538SOL    HW275056   6.309   2.675   5.104 -1.6524  0.1100 -3.3619
24539SOL     OW75057   1.482   4.122   5.042 -0.0189  0.0204  0.1777
24539SOL    HW175058   1.434   4.172   5.108 -1.3430 -0.7775 -0.1528
24539SOL    HW275059   1.451   4.156   4.959  0.1249 -0.3830 -0.0448
24540SOL     OW75060   6.298   1.948  10.138  0.4431 -0.5369  0.3267
24540SOL    HW175061   6.273   1.982  10.052 -1.3506  0.6336  1.2502
24540SOL    HW275062   6.373   1.892  10.121  0.2898 -0.1246 -1.9645
24541SOL     OW75063   5.818   4.170  12.163  0.1506 -0.3033  0.2364
24541SOL    HW175064   5.879   4.206  12.098 -0.6815  1.2974  0.2967
24541SOL    HW275065   5.875   4.136  12.232  0.9988  0.0857 -0.2475
24542SOL     OW75066   0.554   5.577   4.761  0.4041 -0.0284 -0.3235
24542SOL    HW175067   0.600   5.651   4.721  1.6240  0.3456  1.6004
24542SOL    HW275068   0.464   5.607   4.770  1.0241  1.5957  1.0847
24543SOL     OW75069   3.981   7.937   0.326  0.0762 -0.2232 -0.3199
24543SOL    HW175070   4.038   7.999   0.372  0.8709 -0.4841 -0.9227
24543SOL    HW275071   3.922   7.904   0.393  1.6250 -1.0810  0.6881
24544SOL     OW75072   7.543   2.888   7.229 -0.0768 -0.5878  0.7354
24544SOL    HW175073   7.498   2.971   7.213  0.0323 -0.6423  0.1211
24544SOL    HW275074   7.539   2.842   7.145  2.5204  0.0709  0.1617
24545SOL     OW75075   7.409   7.814   7.057  0.2010  0.0486 -0.1285
24545SOL    HW175076   7.356   7.878   7.011  0.8993 -0.3526 -1.5419
24545SOL    HW275077   7.430   7.856   7.141 -0.0978  1.2940 -0.6555
24546SOL     OW75078   1.474   2.711   4.981 -0.1026  0.7056 -0.2318
24546SOL    HW175079   1.408   2.773   5.012 -0.5753 -1.5961  4.2152
24546SOL    HW275080   1.552   2.732   5.032  1.3602  0.7010 -2.3566
24547SOL     OW75081   3.072   6.492   6.714 -0.2217 -0.2177  0.0117
24547SOL    HW175082   2.996   6.510   6.658 -0.3589 -1.5261 -0.2633
24547SOL    HW275083   3.046   6.416   6.766  1.2180 -1.2728 -0.7387
24548SOL     OW75084   6.315   2.896   0.838  0.2928  0.0480  0.0471
24548SOL    HW175085   6.385   2.937   0.787  1.5500 -0.2373  1.4889
24548SOL    HW275086   6.294   2.960   0.906  1.2242 -1.0317  1.3964
24549SOL     OW75087   0.911   7.681   1.599  0.0227 -0.0562  0.2296
24549SOL    HW175088   0.851   7.753   1.620 -1.6828 -1.8672  2.1009
24549SOL    HW275089   0.865   7.631   1.531 -1.6086 -2.3791  2.8079
24550SOL     OW75090   3.760   7.402   4.569  0.3545 -0.3976 -0.6351
24550SOL    HW175091   3.797   7.375   4.486  1.0938  0.7188 -0.6946
24550SOL    HW275092   3.758   7.498   4.565  0.0332 -0.3350  0.4668
24551SOL     OW75093   4.869   0.703   3.676  0.2296  0.4167 -0.2150
24551SOL    HW175094   4.781   0.727   3.646 -0.3608 -1.3649  0.0070
24551SOL    HW275095   4.916   0.786   3.678 -1.1702  1.2942 -1.2271
24552SOL     OW75096   4.664   5.652   2.194  0.2068  0.2678  0.1582
24552SOL    HW175097   4.597   5.666   2.261 -2.6853 -0.5032 -2.3500
24552SOL    HW275098   4.747   5.673   2.238 -1.5042  0.2078  3.7884
24553SOL     OW75099   7.495   2.579   7.811 -0.2865  0.3576  0.2742
24553SOL    HW175100   7.557   2.508   7.829 -1.2689 -0.4289  0.7077
24553SOL    HW275101   7.411   2.534   7.803 -1.0503  1.5586  1.2625
24554SOL     OW75102   1.931   4.300   3.307  0.1981 -0.1579  0.1975
24554SOL    HW175103   1.916   4.338   3.394 -0.2553 -1.0863  0.5351
24554SOL    HW275104   1.846   4.306   3.264  0.0327 -1.0874  0.3795
24555SOL     OW75105   4.719   0.566  11.727 -0.6942 -0.8647  0.5943
24555SOL    HW175106   4.747   0.479  11.756 -0.8421 -1.0017  0.3245
24555SOL    HW275107   4.627   0.554  11.704 -0.2038 -1.1208 -1.4162
24556SOL     OW75108   0.016   1.210   6.070 -0.1401 -0.0742  0.6240
24556SOL    HW175109   0.060   1.127   6.086 -1.3720 -0.5290  1.8552
24556SOL    HW275110  -0.067   1.185   6.028  0.6213  0.7475 -1.5128
24557SOL     OW75111   6.071   2.343   0.887 -0.5936  0.2262 -0.5599
24557SOL    HW175112   6.050   2.432   0.916 -0.6502  0.1700 -0.4284
24557SOL    HW275113   5.989   2.295   0.898 -1.0363  0.5519 -2.1953
24558SOL     OW75114   4.205   4.282  12.423  0.0770 -0.6424  0.3025
24558SOL    HW175115   4.139   4.253  12.486 -0.2072 -0.4225  0.1108
24558SOL    HW275116   4.156   4.293  12.341  0.4460 -0.9468  0.0372
24559SOL     OW75117   2.877   7.225   5.099 -0.7039 -0.1139  0.1066
24559SOL    HW175118   2.868   7.318   5.115 -1.2612 -0.1904  0.2529
24559SOL    HW275119   2.915   7.219   5.011 -1.6306  0.2339 -0.3250
24560SOL     OW75120   7.423   5.488   7.724 -0.5708 -0.1578 -0.4644
24560SOL    HW175121   7.411   5.460   7.815  0.0819 -1.4404 -0.7499
24560SOL    HW275122   7.502   5.542   7.725 -0.8266  0.2148 -0.1990
24561SOL     OW75123   4.490   5.655   2.442 -0.4555 -0.7008 -0.3137
24561SOL    HW175124   4.424   5.680   2.377 -0.4304 -0.3944 -0.2234
24561SOL    HW275125   4.466   5.566   2.468 -1.3552 -0.2765  0.3685
24562SOL     OW75126   0.586   4.761  10.486 -0.4150  0.3691 -0.1404
24562SOL    HW175127   0.632   4.693  10.536 -0.5120 -0.5342 -1.2233
24562SOL    HW275128   0.611   4.843  10.528  0.8378 -0.2340  0.3622
24563SOL     OW75129   6.922   0.561   0.687 -0.3427 -0.4529 -0.1348
24563SOL    HW175130   6.937   0.644   0.731 -1.1799 -0.6729  0.5951
24563SOL    HW275131   6.999   0.508   0.709 -1.5858 -1.2571  2.8296
24564SOL     OW75132   0.034   7.882   7.648 -0.3325 -0.3701  0.0408
24564SOL    HW175133   0.118   7.916   7.678 -0.8618  1.5143 -0.4807
24564SOL    HW275134  -0.022   7.882   7.725 -0.4225  0.3112 -0.0159
24565SOL     OW75135   1.321   5.090   7.075  0.7092  0.1382  0.2536
24565SOL    HW175136   1.402   5.141   7.071  1.0450 -0.4502 -1.4741
24565SOL    HW275137   1.325   5.045   7.159  2.7728 -0.7812 -0.2670
24566SOL     OW75138   7.388   1.286   4.400  0.1968  0.4960 -0.2043
24566SOL    HW175139   7.484   1.278   4.401  0.1325 -0.4092 -0.4101
24566SOL    HW275140   7.357   1.199   4.375 -0.7065  0.6277  0.4056
24567SOL     OW75141   0.854   5.370   5.108  0.1531 -0.2679 -0.3160
24567SOL    HW175142   0.891   5.397   5.024  2.1040  1.1558  0.9176
24567SOL    HW275143   0.761   5.392   5.101  0.3468  0.1837 -1.9487
24568SOL     OW75144   6.105   5.419   2.969  0.3080 -0.0209  0.1424
24568SOL    HW175145   6.051   5.395   3.045  1.2616  1.1325  1.2238
24568SOL    HW275146   6.195   5.404   2.998  0.6460 -1.3299 -1.4277
24569SOL     OW75147   0.276   5.356   3.664  0.1977  0.6211 -0.2760
24569SOL    HW175148   0.340   5.308   3.612  0.7413 -0.4517  1.2878
24569SOL    HW275149   0.192   5.335   3.624  0.5142 -0.9165 -0.2091
24570SOL     OW75150   3.536   2.716  11.103 -0.2233  0.2719 -0.3845
24570SOL    HW175151   3.446   2.740  11.078  0.2650  1.0536 -1.4482
24570SOL    HW275152   3.525   2.642  11.163 -1.6993  1.8851  1.4473
24571SOL     OW75153   1.409   7.515  11.585 -0.6198 -0.5519 -0.0667
24571SOL    HW175154   1.450   7.589  11.539 -0.8952  1.6519  2.9241
24571SOL    HW275155   1.414   7.443  11.522  1.1393  1.5312 -2.5884
24572SOL     OW75156   6.393   4.828   6.260  0.1690 -0.1083  0.7795
24572SOL    HW175157   6.393   4.896   6.192 -3.0544 -1.0249 -0.3250
24572SOL    HW275158   6.345   4.867   6.333  0.6341 -0.3171  1.2048
24573SOL     OW75159   0.082   7.123  11.707  0.2001 -0.2118 -0.2853
24573SOL    HW175160   0.047   7.080  11.629 -1.1301  0.1770  0.0749
24573SOL    HW275161   0.055   7.214  11.699 -0.2538 -0.2326  0.7824
24574SOL     OW75162   5.729   3.792   9.607 -0.1223  0.7892 -0.2447
24574SOL    HW175163   5.676   3.770   9.530  0.7682 -0.9599 -0.3930
24574SOL    HW275164   5.804   3.734   9.601 -0.4781 -0.0627  2.4586
24575SOL     OW75165   4.812   0.490   1.007 -0.1120 -0.0309  0.8452
24575SOL    HW175166   4.747   0.556   1.033  0.6392  1.6353 -1.1106
24575SOL    HW275167   4.884   0.542   0.970  1.9586 -1.8557  2.1207
24576SOL     OW75168   2.156   0.948   9.033  0.1862 -0.2819  0.2985
24576SOL    HW175169   2.246   0.981   9.028 -0.0182  0.2265 -0.0906
24576SOL    HW275170   2.112   0.988   8.959  0.1112 -2.0230 -0.6518
24577SOL     OW75171   0.822   4.485   4.472 -0.0177 -0.4192 -0.3961
24577SOL    HW175172   0.752   4.508   4.411 -0.2645  0.6019  0.2432
24577SOL    HW275173   0.776   4.459   4.552  0.3292  0.6161  0.1473
24578SOL     OW75174   6.811   0.243  10.774  0.1372  0.2028  0.0017
24578SOL    HW175175   6.866   0.226  10.698 -1.5412 -1.4156 -0.9413
24578SOL    HW275176   6.872   0.262  10.845  2.0093 -2.8704 -0.6415
24579SOL     OW75177   6.670   1.282  11.563 -0.2770  0.2026  0.1203
24579SOL    HW175178   6.753   1.308  11.603 -0.8492  1.3318  0.6050
24579SOL    HW275179   6.639   1.209  11.616 -1.0688  1.7309  1.8473
24580SOL     OW75180   1.259   2.301   1.515 -0.4828  0.2325 -0.2280
24580SOL    HW175181   1.284   2.239   1.584  2.1173  1.3307 -0.0580
24580SOL    HW275182   1.186   2.258   1.470  1.6482 -3.3934 -0.6361
24581SOL     OW75183   3.065   3.372   1.477 -0.5355 -0.1166  0.4419
24581SOL    HW175184   3.089   3.360   1.569  0.0634  0.9006  0.4321
24581SOL    HW275185   3.054   3.466   1.467 -0.6399 -0.2248 -0.5225
24582SOL     OW75186   7.399   2.519   3.163 -0.4079  0.6049 -0.3933
24582SOL    HW175187   7.357   2.504   3.078 -0.7472  0.2054 -0.1603
24582SOL    HW275188   7.471   2.456   3.166 -0.8274  0.1279 -0.0980
24583SOL     OW75189   0.643   2.616   2.221 -0.2679 -0.1120 -0.0216
24583SOL    HW175190   0.648   2.634   2.315 -1.3578 -0.6357  0.1483
24583SOL    HW275191   0.708   2.675   2.182  1.2817 -0.9192  1.1895
24584SOL     OW75192   5.856   0.635   7.635  0.0093 -0.4008 -0.4784
24584SOL    HW175193   5.896   0.719   7.611  2.8736 -0.9841  1.7691
24584SOL    HW275194   5.865   0.581   7.557 -1.5934  1.1847 -1.8576
24585SOL     OW75195   3.292   6.261  12.337  0.6845 -0.0237 -0.6006
24585SOL    HW175196   3.275   6.169  12.357 -0.7750  0.8793  3.1373
24585SOL    HW275197   3.210   6.306  12.359  1.5834  2.2562 -1.6501
24586SOL     OW75198   3.555   5.249  12.440 -0.0296  0.8746  0.0139
24586SOL    HW175199   3.541   5.261  12.534 -0.7382  0.0316  0.0321
24586SOL    HW275200   3.636   5.296  12.422  1.3313 -0.7521  1.4742
24587SOL     OW75201   3.243   5.242   6.484 -0.0116 -0.0930  0.1050
24587SOL    HW175202   3.299   5.213   6.412 -0.8921  0.1203 -0.6997
24587SOL    HW275203   3.250   5.337   6.483  0.2070 -0.1013  0.5097
24588SOL     OW75204   3.732   0.408   7.268  0.2494  0.1342 -0.1179
24588SOL    HW175205   3.651   0.395   7.220 -0.2531 -3.2453  1.4216
24588SOL    HW275206   3.800   0.374   7.210 -0.0142 -1.1871  0.3134
24589SOL     OW75207   6.761   2.593  10.077 -0.6418  0.1104  0.4658
24589SOL    HW175208   6.823   2.646  10.027 -0.3571 -0.1167  0.5730
24589SOL    HW275209   6.680   2.596  10.026 -0.7276  0.9174  0.6369
24590SOL     OW75210   0.217   3.931  12.120  0.6678  0.4255 -0.0225
24590SOL    HW175211   0.208   4.018  12.158  2.3484  0.7137 -0.2154
24590SOL    HW275212   0.135   3.916  12.074  0.5964  2.1857 -0.5308
24591SOL     OW75213   5.164   0.978   4.558 -0.4607  0.0723  0.1024
24591SOL    HW175214   5.149   1.009   4.469 -0.2961 -0.9217 -0.2752
24591SOL    HW275215   5.199   1.055   4.604  0.4626  0.3207 -0.9687
24592SOL     OW75216   3.954   6.351   9.217 -0.2928  0.8389 -0.1503
24592SOL    HW175217   4.018   6.365   9.286 -2.0282  1.6289  1.3977
24592SOL    HW275218   3.911   6.268   9.240 -0.3426  0.6985 -0.7350
24593SOL     OW75219   2.271   7.037   4.671 -0.4698  0.1628  0.8479
24593SOL    HW175220   2.353   7.061   4.629  0.1087 -0.7149  1.4426
24593SOL    HW275221   2.206   7.095   4.632  0.3725  0.6428  0.1296
24594SOL     OW75222   0.010   5.824  10.757  0.6155  0.1176 -0.2896
24594SOL    HW175223   0.093   5.871  10.765  1.5267 -1.4381 -0.2554
24594SOL    HW275224  -0.036   5.842  10.839  0.7713  1.2280 -0.4282
24595SOL     OW75225   7.330   7.750   2.335 -0.0646 -0.2794 -0.3327
24595SOL    HW175226   7.413   7.738   2.289  1.3814  0.7724  1.8287
24595SOL    HW275227   7.302   7.838   2.310 -0.8796 -0.8370 -1.4944
24596SOL     OW75228   1.026   1.407   2.149 -0.0630 -0.1543  0.8092
24596SOL    HW175229   1.111   1.373   2.177  0.4474  0.1190 -0.3575
24596SOL    HW275230   1.028   1.500   2.172  1.2819  0.6268 -2.0426
24597SOL     OW75231   0.227   1.447   3.610  0.8980 -0.4395 -0.2097
24597SOL    HW175232   0.198   1.371   3.559 -1.5702  0.9074 -0.9838
24597SOL    HW275233   0.306   1.478   3.565  0.6593 -1.2337 -1.2100
24598SOL     OW75234   1.951   4.045   2.144  0.2757  0.1947 -0.5567
24598SOL    HW175235   1.872   4.072   2.190  0.1490 -1.8021  0.5055
24598SOL    HW275236   1.987   4.126   2.109 -1.1799  1.4099  0.6172
24599SOL     OW75237   2.124   2.436  10.187  0.3991  0.3852 -0.4470
24599SOL    HW175238   2.151   2.449  10.095  2.3999  2.4471  0.3207
24599SOL    HW275239   2.188   2.373  10.221 -0.3662 -0.4072 -0.4646
24600SOL     OW75240   4.178   0.035   1.948 -0.4832  0.4303  0.4074
24600SOL    HW175241   4.248  -0.011   1.995 -0.1129 -1.0009 -1.4132
24600SOL    HW275242   4.150   0.104   2.008 -1.5880 -2.5612  3.6347
24601SOL     OW75243   7.263   6.704   8.961  0.4660 -0.3439 -0.7509
24601SOL    HW175244   7.192   6.768   8.954 -0.0806 -0.8838 -0.2543
24601SOL    HW275245   7.335   6.743   8.912 -0.1582  0.2346 -1.2259
24602SOL     OW75246   0.745   5.359   4.737  0.0597  0.1556 -0.6101
24602SOL    HW175247   0.684   5.429   4.760 -1.1052 -0.1050 -2.6391
24602SOL    HW275248   0.694   5.279   4.745  0.9276 -0.3507  0.1548
24603SOL     OW75249   7.322   6.808   3.496  0.5850  0.6073  0.9396
24603SOL    HW175250   7.403   6.769   3.528  1.5545 -0.0613 -2.0274
24603SOL    HW275251   7.261   6.734   3.488  0.8741  0.4744 -0.1820
24604SOL     OW75252   1.989   1.499   4.468 -0.6686 -0.6348 -0.6737
24604SOL    HW175253   1.940   1.527   4.391 -1.1760  0.2287 -0.0512
24604SOL    HW275254   2.080   1.498   4.438 -0.8243 -0.0204 -1.2141
24605SOL     OW75255   6.739   7.184   0.823 -0.1734 -0.4016 -0.8803
24605SOL    HW175256   6.746   7.245   0.896 -0.0321 -0.5293 -0.7864
24605SOL    HW275257   6.655   7.139   0.837  0.2976 -1.0995 -0.2736
24606SOL     OW75258   4.884   2.406   2.479 -0.1293  0.4972 -0.1193
24606SOL    HW175259   4.939   2.477   2.513  0.5280 -0.5518  1.1664
24606SOL    HW275260   4.854   2.436   2.394  1.6195  1.5621 -0.4149
24607SOL     OW75261   5.609   1.015  11.385  0.2276  0.2122  0.2904
24607SOL    HW175262   5.530   0.996  11.436 -0.8861 -1.7194 -1.9371
24607SOL    HW275263   5.657   0.932  11.383  0.5760  0.4199 -1.1449
24608SOL     OW75264   0.381   6.248   7.658 -0.1775 -0.6859 -0.1587
24608SOL    HW175265   0.416   6.312   7.596  0.9351 -1.2989 -0.1989
24608SOL    HW275266   0.407   6.163   7.621 -0.7098 -1.1165  0.4318
24609SOL     OW75267   2.694   2.988  10.053 -0.2911 -0.2380  0.3336
24609SOL    HW175268   2.716   2.950  10.139  0.1091 -1.1230 -0.1508
24609SOL    HW275269   2.720   3.080  10.061 -1.9453  0.1690  1.7737
24610SOL     OW75270   2.162   5.829   0.242 -0.1431 -0.2681 -0.1756
24610SOL    HW175271   2.179   5.896   0.308 -0.8144 -1.5425  1.3626
24610SOL    HW275272   2.240   5.830   0.186  0.2132  1.2000  0.3017
24611SOL     OW75273   7.553   5.146   8.212  0.2484 -0.5183 -0.0743
24611SOL    HW175274   7.613   5.202   8.261 -0.6388 -0.3412  0.8456
24611SOL    HW275275   7.478   5.133   8.271  0.0709 -2.0177 -0.5822
24612SOL     OW75276   5.728   1.047   1.283  0.0671  0.1172 -0.1197
24612SOL    HW175277   5.636   1.074   1.286  0.0175 -0.1081  0.5119
24612SOL    HW275278   5.743   1.003   1.366  0.6451 -0.1978 -0.3841
24613SOL     OW75279   1.637   0.342  10.312 -0.2988 -0.1343  0.1229
24613SOL    HW175280   1.719   0.331  10.266 -0.7016 -1.6317 -0.2782
24613SOL    HW275281   1.606   0.429  10.286 -0.3136 -0.7653 -2.1102
24614SOL     OW75282   2.479   1.939   0.862  0.7161  0.0516 -0.1986
24614SOL    HW175283   2.472   1.972   0.772  1.1042  1.7444  0.3568
24614SOL    HW275284   2.494   1.845   0.851  0.0743  0.0983 -1.8804
24615SOL     OW75285   6.403   6.240   6.063  0.0995  0.2344  0.1686
24615SOL    HW175286   6.414   6.251   5.969 -0.3860  0.7872  0.1721
24615SOL    HW275287   6.334   6.174   6.072  1.3042 -1.0862  0.1513
24616SOL     OW75288   7.337   5.407  10.182 -0.0184 -0.4110 -0.1048
24616SOL    HW175289   7.320   5.342  10.115 -0.4144 -1.3905  0.9227
24616SOL    HW275290   7.255   5.454  10.192 -0.3652 -1.1407  0.6003
24617SOL     OW75291   7.672   0.099   1.819 -0.0751 -0.4538 -0.1224
24617SOL    HW175292   7.666   0.004   1.811 -0.3501 -0.3505 -1.2929
24617SOL    HW275293   7.595   0.124   1.870 -0.5860 -0.7590 -0.7407
24618SOL     OW75294   2.007   5.029   7.995 -0.4262 -0.0516 -0.3611
24618SOL    HW175295   2.025   5.076   7.913  3.8814 -2.3808 -1.0365
24618SOL    HW275296   2.048   5.083   8.063 -0.7418  0.0387 -0.2383
24619SOL     OW75297   7.317   2.037   6.699 -0.0045 -0.0288  0.1785
24619SOL    HW175298   7.255   1.985   6.648  1.0698 -0.5143 -0.6737
24619SOL    HW275299   7.398   2.033   6.648  0.4880  1.3103  0.8177
24620SOL     OW75300   0.675   1.029   1.710 -0.1809  0.2360 -0.4491
24620SOL    HW175301   0.670   0.969   1.784  0.9799  2.1530  1.2990
24620SOL    HW275302   0.584   1.054   1.693 -0.3431  1.5024  1.9082
24621SOL     OW75303   0.066   6.767   2.819 -0.4129 -0.8154  0.3570
24621SOL    HW175304   0.137   6.804   2.767  0.5097 -1.0879  1.3724
24621SOL    HW275305   0.024   6.703   2.761  1.5073 -2.1878  0.3617
24622SOL     OW75306   6.667   3.485   7.200 -0.3046  0.1999  0.1655
24622SOL    HW175307   6.582   3.480   7.155  0.2825  1.7496 -1.2255
24622SOL    HW275308   6.680   3.578   7.217  1.7249  0.1703 -0.9203
24623SOL     OW75309   7.958   2.226   2.208 -0.0729 -0.4003 -0.2573
24623SOL    HW175310   8.014   2.303   2.207 -0.9096  0.2295 -0.8565
24623SOL    HW275311   7.901   2.238   2.284  0.3723 -0.8701  0.1563
24624SOL     OW75312   2.971   0.482   3.760 -0.4878 -0.0673 -0.4453
24624SOL    HW175313   2.909   0.554   3.751  0.0315  0.3741 -0.5681
24624SOL    HW275314   2.975   0.443   3.673 -0.1322  0.2910 -0.5899
24625SOL     OW75315   3.247   2.136   5.020 -0.0373 -0.0031  0.5542
24625SOL    HW175316   3.161   2.121   4.982  0.3854 -0.6924 -0.1800
24625SOL    HW275317   3.262   2.230   5.011 -0.1930 -0.0635 -0.4876
24626SOL     OW75318   2.303   1.470   2.992 -0.0634  0.1248  0.4015
24626SOL    HW175319   2.319   1.445   2.900  0.3256  0.1660  0.4543
24626SOL    HW275320   2.250   1.399   3.027 -0.3206  0.1693  0.1107
24627SOL     OW75321   4.178   6.722   7.325 -0.2011 -0.1110 -0.1508
24627SOL    HW175322   4.185   6.712   7.420 -0.1293 -1.0719 -0.2540
24627SOL    HW275323   4.147   6.812   7.313 -0.5739 -0.1022  0.7959
24628SOL     OW75324   5.123   5.345   1.637  0.4943 -0.1734  1.0342
24628SOL    HW175325   5.170   5.426   1.655 -0.3314  0.5696 -0.0653
24628SOL    HW275326   5.040   5.373   1.598  0.3871 -1.5588  0.2094
24629SOL     OW75327   0.351   7.545   6.625 -0.0859  0.0026 -0.5035
24629SOL    HW175328   0.387   7.509   6.706  2.2380  0.4594 -1.2473
24629SOL    HW275329   0.283   7.483   6.599 -1.5427  0.3055  2.1950
24630SOL     OW75330   4.772   1.080  10.182  0.8639  0.2151  0.2661
24630SOL    HW175331   4.751   1.119  10.267 -2.2756  3.1052 -1.5518
24630SOL    HW275332   4.797   1.155  10.127  0.4203 -1.1634 -1.9455
24631SOL     OW75333   0.936   1.471   4.574 -0.2429 -0.4509  0.0738
24631SOL    HW175334   0.963   1.562   4.590  1.1255 -0.8248  0.0043
24631SOL    HW275335   0.842   1.477   4.553 -0.7718  0.6751  2.4627
24632SOL     OW75336   7.570   1.414   0.922  0.1993  0.1285  0.6585
24632SOL    HW175337   7.510   1.361   0.975 -0.7078 -1.7429 -2.0053
24632SOL    HW275338   7.653   1.368   0.927  0.2404  0.2175  0.8084
24633SOL     OW75339   3.299   5.431   8.236 -0.3000 -0.4256  0.0925
24633SOL    HW175340   3.223   5.404   8.184  0.7310 -2.0396 -0.6363
24633SOL    HW275341   3.359   5.471   8.173 -0.5729  1.0151  0.6962
24634SOL     OW75342   2.722   0.040   9.793  0.6368 -0.3474  0.6032
24634SOL    HW175343   2.783  -0.013   9.741 -0.7722 -1.0951 -0.3283
24634SOL    HW275344   2.742   0.016   9.884  2.1257 -0.1350  0.3527
24635SOL     OW75345   6.763   6.764   9.073  0.0442 -0.1147  0.8203
24635SOL    HW175346   6.855   6.782   9.054  0.6488 -0.8524  2.8183
24635SOL    HW275347   6.719   6.847   9.059  1.0133  0.2645 -0.1229
24636SOL     OW75348   6.757   2.629   1.425  0.2348 -0.6408  0.5110
24636SOL    HW175349   6.788   2.588   1.344 -0.0030 -0.5115  0.3557
24636SOL    HW275350   6.819   2.699   1.442 -1.3923  1.3471 -1.2149
24637SOL     OW75351   7.665   6.543  11.997 -0.0434  0.9726 -0.3390
24637SOL    HW175352   7.600   6.560  12.066  0.8798 -0.1008  0.8347
24637SOL    HW275353   7.734   6.607  12.013  1.3643 -0.8556  1.3648
24638SOL     OW75354   4.740   2.655   4.238  0.1297  0.4068 -0.2152
24638SOL    HW175355   4.765   2.667   4.146  0.1263  0.9978 -0.1369
24638SOL    HW275356   4.685   2.730   4.258 -0.2879  0.0162  0.1277
24639SOL     OW75357   7.184   4.884   7.311 -0.0889 -0.4499 -0.6030
24639SOL    HW175358   7.217   4.963   7.267  1.2626 -0.1805  0.8291
24639SOL    HW275359   7.209   4.812   7.253  1.4893 -0.0835 -0.4266
24640SOL     OW75360   4.003   0.138   2.549 -0.4275 -0.3416 -0.3719
24640SOL    HW175361   3.920   0.145   2.598 -1.0278 -0.9497 -1.2724
24640SOL    HW275362   4.009   0.222   2.502  0.7832  0.7837  1.6352
24641SOL     OW75363   7.596   7.071   3.400 -0.1132  0.0652  0.1240
24641SOL    HW175364   7.656   7.016   3.350 -0.5781 -1.1338  0.8467
24641SOL    HW275365   7.515   7.071   3.348  0.2329  1.0376 -0.4517
24642SOL     OW75366   4.822   0.832   3.363  0.4920 -0.1262 -0.0411
24642SOL    HW175367   4.917   0.821   3.369  0.4484 -2.0266 -1.7954
24642SOL    HW275368   4.809   0.893   3.291  0.3620  1.1396  1.0105
24643SOL     OW75369   6.344   0.911   9.934  0.2792  0.0795 -0.3538
24643SOL    HW175370   6.304   0.944  10.015  0.8259 -0.0814 -0.0068
24643SOL    HW275371   6.357   0.817   9.951  0.8715  0.1440 -0.4179
24644SOL     OW75372   7.619   3.964   0.768 -0.0748  0.2213  0.0166
24644SOL    HW175373   7.696   3.957   0.712 -0.1094 -1.0710  0.0914
24644SOL    HW275374   7.606   4.058   0.780  1.3588  0.4657 -0.1635
24645SOL     OW75375   2.658   5.053  10.581  0.4545 -0.4117  0.6996
24645SOL    HW175376   2.631   4.965  10.553  0.5121 -0.3218  0.3507
24645SOL    HW275377   2.753   5.048  10.589  0.3557 -0.7149  1.8829
24646SOL     OW75378   7.601   3.441   5.910  0.2145  0.0149 -0.3109
24646SOL    HW175379   7.581   3.509   5.846  1.2154  1.7617  1.1736
24646SOL    HW275380   7.529   3.445   5.973  0.7390  0.3520  0.2777
24647SOL     OW75381   4.535   2.716   5.310  0.2844 -0.6103  0.3686
24647SOL    HW175382   4.514   2.702   5.402  1.0378 -1.9367  0.3640
24647SOL    HW275383   4.566   2.806   5.306  1.0602 -0.8013  1.5786
24648SOL     OW75384   6.890   7.828   1.038 -0.1506  0.1976  0.5744
24648SOL    HW175385   6.928   7.740   1.048  1.7185  0.9545  0.6218
24648SOL    HW275386   6.958   7.878   0.994 -1.6852  1.3233 -0.5982
24649SOL     OW75387   3.650   1.246   8.802  0.5764 -0.3651 -0.0338
24649SOL    HW175388   3.612   1.161   8.827  1.6514 -0.5731  0.9672
24649SOL    HW275389   3.689   1.230   8.716  2.5946 -1.5126  1.0184
24650SOL     OW75390   0.490   7.759   9.197  0.0247  0.5919  0.0642
24650SOL    HW175391   0.534   7.819   9.137  0.9652 -1.1205 -1.0435
24650SOL    HW275392   0.527   7.780   9.283 -0.1586  2.0101 -0.1838
24651SOL     OW75393   3.789   0.257  11.113 -0.5924  0.6635  0.0341
24651SOL    HW175394   3.767   0.350  11.122 -0.8418  0.5885  0.2319
24651SOL    HW275395   3.706   0.215  11.090  0.0579  0.8694 -3.0289
24652SOL     OW75396   1.938   6.685   5.563  0.2253 -0.2889 -0.2262
24652SOL    HW175397   1.893   6.720   5.486 -0.7109  0.1625  0.5067
24652SOL    HW275398   2.009   6.632   5.527 -1.3998 -1.7478 -1.4438
24653SOL     OW75399   6.625   3.657   8.334 -0.2436  0.2122 -0.1391
24653SOL    HW175400   6.644   3.602   8.258  1.5364 -0.1873  0.5377
24653SOL    HW275401   6.533   3.640   8.353 -0.2606 -0.9964 -1.1593
24654SOL     OW75402   3.892   6.455   4.953  0.4193 -0.1701  0.5213
24654SOL    HW175403   3.818   6.427   5.006 -1.9661  0.9485 -1.9979
24654SOL    HW275404   3.911   6.380   4.897  2.6279 -1.1804  2.4553
24655SOL     OW75405   5.990   0.882   3.272 -0.1239 -0.3659  0.6322
24655SOL    HW175406   5.921   0.902   3.209  0.0014 -1.9379 -0.0448
24655SOL    HW275407   6.065   0.858   3.218  1.3348  2.2470  1.3214
24656SOL     OW75408   3.788   0.902   5.126 -0.5039 -0.2816  0.4167
24656SOL    HW175409   3.729   0.974   5.145  0.9291  2.1743 -3.4141
24656SOL    HW275410   3.738   0.843   5.070 -1.2768 -1.8020  2.5645
24657SOL     OW75411   5.553   6.998   8.788 -0.4150 -0.2701 -0.1057
24657SOL    HW175412   5.639   7.004   8.829 -0.2593  3.3206 -0.6771
24657SOL    HW275413   5.571   6.981   8.696 -0.2130  1.4725 -0.4101
24658SOL     OW75414   4.501   3.432  10.777  0.1972 -0.2037 -0.2015
24658SOL    HW175415   4.544   3.459  10.696 -1.5423  1.8156 -0.5428
24658SOL    HW275416   4.417   3.477  10.776 -0.2868 -0.8793  2.2973
24659SOL     OW75417   6.161   4.513  12.258  0.0389 -0.0519  0.0325
24659SOL    HW175418   6.098   4.464  12.204  0.4391 -0.7374  0.1828
24659SOL    HW275419   6.233   4.533  12.198  0.3708 -0.5975  0.2496
24660SOL     OW75420   5.007   6.943   0.675 -0.4972 -0.7721 -0.1186
24660SOL    HW175421   5.073   6.949   0.607 -0.3955  1.3002  0.0872
24660SOL    HW275422   5.055   6.918   0.754 -0.5725 -2.8860 -0.6965
24661SOL     OW75423   2.017   3.606  11.665  0.2902 -0.7138 -0.1336
24661SOL    HW175424   2.021   3.627  11.758  1.3227 -1.1063 -0.0701
24661SOL    HW275425   2.025   3.690  11.620  0.1479 -0.5589  0.1357
24662SOL     OW75426   2.191   6.313  10.773  0.5004  0.7387  0.3114
24662SOL    HW175427   2.278   6.302  10.812 -0.0096  1.9204  1.9241
24662SOL    HW275428   2.175   6.408  10.778 -1.6501  0.3732  1.9522
24663SOL     OW75429   4.227   1.380   5.333  0.1562  0.5664  0.2308
24663SOL    HW175430   4.226   1.435   5.254  0.6344 -0.0601 -0.2191
24663SOL    HW275431   4.281   1.428   5.395  0.0973  0.8788  0.0439
24664SOL     OW75432   7.757   6.246   4.974 -0.0089  0.0096  0.0154
24664SOL    HW175433   7.756   6.294   4.892 -0.0543 -0.9728 -0.5718
24664SOL    HW275434   7.837   6.193   4.970  0.5761  0.7693  1.0906
24665SOL     OW75435   7.027   6.717   0.636 -0.6609  0.0176 -0.2149
24665SOL    HW175436   7.080   6.773   0.692 -2.0334  1.4623 -0.2972
24665SOL    HW275437   7.090   6.665   0.587  0.6525  1.1631  0.2099
24666SOL     OW75438   7.908   1.667  10.740 -0.5927  0.2261 -0.0600
24666SOL    HW175439   7.817   1.694  10.726 -1.1488 -0.7603  1.3657
24666SOL    HW275440   7.917   1.661  10.835  0.6102 -0.8559 -0.2113
24667SOL     OW75441   0.499   0.979  12.364 -0.2338 -0.2094  0.6189
24667SOL    HW175442   0.507   0.956  12.457 -0.5756 -2.5459  0.1223
24667SOL    HW275443   0.583   0.953  12.327 -0.0056  0.9554  0.2960
24668SOL     OW75444   0.918   2.052   3.948 -0.0932 -0.1878 -0.6824
24668SOL    HW175445   0.965   2.127   3.912  2.1016 -0.8134  0.6920
24668SOL    HW275446   0.951   1.977   3.898 -0.8310 -0.4823 -0.7438
24669SOL     OW75447   3.304   0.884   5.018  0.4182 -0.2216 -0.0679
24669SOL    HW175448   3.371   0.944   4.984 -0.3674  0.1725 -0.9327
24669SOL    HW275449   3.221   0.925   4.995 -0.1570 -0.4142  1.4988
24670SOL     OW75450   5.362   6.921   1.594 -0.1393 -0.3912 -0.0048
24670SOL    HW175451   5.391   6.993   1.539  1.8953 -1.6897 -0.7541
24670SOL    HW275452   5.293   6.958   1.649 -0.6950  1.5160 -1.8772
24671SOL     OW75453   2.531   1.663   5.529  0.0283  0.4870  0.4260
24671SOL    HW175454   2.567   1.601   5.593  2.7738  1.2919 -0.2117
24671SOL    HW275455   2.438   1.639   5.522  0.3604 -1.6921  2.2825
24672SOL     OW75456   7.251   4.109   5.623  0.3307  1.0231 -0.0818
24672SOL    HW175457   7.241   4.025   5.578 -0.5437  1.0036  0.1228
24672SOL    HW275458   7.214   4.173   5.562  2.1941  1.4709 -0.8197
24673SOL     OW75459   1.237   2.767   4.787 -0.4242 -0.4141 -0.5848
24673SOL    HW175460   1.325   2.746   4.818 -0.2061  0.1757 -0.7910
24673SOL    HW275461   1.181   2.751   4.863  0.0980  0.9684  0.1231
24674SOL     OW75462   6.502   6.249   9.391  0.3045  0.0682  0.5266
24674SOL    HW175463   6.482   6.164   9.354 -0.9601  0.5479  0.0681
24674SOL    HW275464   6.442   6.258   9.465 -0.7137  1.2067 -0.3956
24675SOL     OW75465   4.058   3.671   1.775  0.0357 -0.1272 -0.0206
24675SOL    HW175466   4.112   3.651   1.699 -0.3914  0.4622 -0.4893
24675SOL    HW275467   4.119   3.713   1.837 -0.2189  2.3534 -1.3104
24676SOL     OW75468   7.042   0.359   5.315  0.0351 -0.0678  0.1244
24676SOL    HW175469   6.971   0.374   5.254  0.3371 -1.0335 -0.4878
24676SOL    HW275470   6.999   0.334   5.397 -0.4096  2.1544  0.6551
24677SOL     OW75471   1.703   0.915   3.928  0.2746  0.1774  0.2856
24677SOL    HW175472   1.626   0.905   3.984 -0.3410 -1.5727 -0.7690
24677SOL    HW275473   1.676   0.877   3.844  2.2549 -0.4149 -0.1304
24678SOL     OW75474   4.331   7.329   8.725 -0.4690 -0.1057  0.1130
24678SOL    HW175475   4.401   7.332   8.789  0.5366 -0.6067 -0.9259
24678SOL    HW275476   4.365   7.378   8.650 -1.6163  0.4709 -0.0515
24679SOL     OW75477   1.300   0.552  10.618  0.1188 -0.0271 -0.2023
24679SOL    HW175478   1.243   0.484  10.654  1.6983 -2.0790 -1.3549
24679SOL    HW275479   1.318   0.523  10.528  1.5168  1.5005 -0.4696
24680SOL     OW75480   6.008   6.488   0.411 -0.0937  0.1483  0.1247
24680SOL    HW175481   6.079   6.456   0.467 -0.2570  0.9699  0.8024
24680SOL    HW275482   5.938   6.424   0.422  0.6796 -0.9301 -0.9066
24681SOL     OW75483   4.433   1.801   2.815  0.3268  0.3704 -0.1025
24681SOL    HW175484   4.526   1.802   2.836  0.4028 -3.2354  0.2423
24681SOL    HW275485   4.429   1.782   2.721 -0.1254  1.4075 -0.3198
24682SOL     OW75486   1.624   1.762   3.197 -0.3537  0.1887 -0.2717
24682SOL    HW175487   1.624   1.744   3.291 -0.1379 -0.2606 -0.3517
24682SOL    HW275488   1.663   1.684   3.158  0.0830  0.6082 -0.6893
24683SOL     OW75489   1.331   2.139   7.222 -0.2690  0.4105 -0.5676
24683SOL    HW175490   1.237   2.121   7.226  0.2063 -2.5350 -0.4563
24683SOL    HW275491   1.357   2.150   7.313 -0.3523  0.3005 -0.5304
24684SOL     OW75492   4.868   4.319   1.101  0.3563 -0.0628  0.2297
24684SOL    HW175493   4.888   4.378   1.173 -1.1957  1.8269 -0.7888
24684SOL    HW275494   4.923   4.349   1.029  0.7304 -0.9299  0.1331
24685SOL     OW75495   3.607   2.690  11.546  0.0426 -0.1964 -0.1904
24685SOL    HW175496   3.606   2.770  11.494 -0.5739  0.1758  0.3730
24685SOL    HW275497   3.516   2.679  11.573  0.1039 -1.1443 -0.3363
24686SOL     OW75498   2.687   7.767   8.838 -0.0995  0.0230  0.0162
24686SOL    HW175499   2.778   7.796   8.829 -0.4060  1.4969  1.2168
24686SOL    HW275500   2.645   7.791   8.755  0.7556 -1.4788 -0.9119
24687SOL     OW75501   5.312   4.789   1.152  0.2028  0.4180 -0.0055
24687SOL    HW175502   5.250   4.797   1.079  0.5639  0.3298 -0.3232
24687SOL    HW275503   5.312   4.695   1.172 -1.4207  0.6723  1.4481
24688SOL     OW75504   1.178   4.272   1.358 -0.1919 -0.3005 -0.2448
24688SOL    HW175505   1.166   4.219   1.280 -0.7269 -0.1436 -0.2738
24688SOL    HW275506   1.115   4.237   1.421 -0.5127  0.2488 -0.2442
24689SOL     OW75507   5.479   6.007  10.371 -0.1970 -0.1068  0.2793
24689SOL    HW175508   5.393   6.021  10.410 -0.3329  0.8993 -0.3552
24689SOL    HW275509   5.474   6.048  10.284  1.0973  0.4642  0.4473
24690SOL     OW75510   4.152   4.366   3.588 -0.2206 -0.0613  0.0283
24690SOL    HW175511   4.224   4.304   3.599  1.9710  2.1637 -0.9578
24690SOL    HW275512   4.132   4.364   3.495 -0.8132  0.0224  0.1485
24691SOL     OW75513   7.499   3.384  11.539 -0.3777  0.9328 -0.6096
24691SOL    HW175514   7.564   3.394  11.608  2.0081  1.1082 -2.7415
24691SOL    HW275515   7.424   3.436  11.569 -0.4935 -0.9768  2.9016
24692SOL     OW75516   1.315   1.042  10.838  0.1339 -0.1871  1.0608
24692SOL    HW175517   1.399   0.996  10.833  0.4665  0.5354 -1.2225
24692SOL    HW275518   1.333   1.129  10.801 -1.4953  0.1632  1.0184
24693SOL     OW75519   4.053   0.667   7.882  0.2661 -0.4159  0.1594
24693SOL    HW175520   4.006   0.716   7.814  1.0787  1.6110  0.9939
24693SOL    HW275521   4.099   0.598   7.833 -1.7321 -1.0857 -0.9229
24694SOL     OW75522   4.356   2.017   5.096  0.3565  0.3022 -0.3794
24694SOL    HW175523   4.345   2.111   5.106 -0.4121  0.1352  0.4267
24694SOL    HW275524   4.282   1.990   5.041 -0.2607 -0.0399  0.6029
24695SOL     OW75525   2.995   3.807  11.982 -0.2985 -0.0566  0.1097
24695SOL    HW175526   2.998   3.715  11.954 -2.3015 -0.9883  2.5677
24695SOL    HW275527   3.058   3.812  12.054  0.3530  0.7245 -0.4968
24696SOL     OW75528   4.108   2.700   6.960 -0.5638 -0.1610 -0.7428
24696SOL    HW175529   4.020   2.677   6.989 -0.5205 -0.4075 -0.7976
24696SOL    HW275530   4.158   2.710   7.040 -0.9983  1.5156 -0.6456
24697SOL     OW75531   4.476   7.767   9.820  0.3455  0.3405 -0.9615
24697SOL    HW175532   4.533   7.709   9.769 -2.1139 -0.1045 -3.4326
24697SOL    HW275533   4.433   7.822   9.755 -2.1132  0.5879  0.7343
24698SOL     OW75534   2.875   4.418   0.203  0.4694  0.4561 -0.0102
24698SOL    HW175535   2.946   4.456   0.152  0.3925  0.1417 -0.3500
24698SOL    HW275536   2.882   4.461   0.289 -0.1645  1.9009 -0.6531
24699SOL     OW75537   5.430   5.447   5.190 -0.2369 -0.4544  0.2561
24699SOL    HW175538   5.406   5.370   5.138 -0.7862 -0.4832  0.5487
24699SOL    HW275539   5.347   5.481   5.222 -0.1230  0.9624 -0.8514
24700SOL     OW75540   1.560   3.151   3.300  0.0189 -0.2615 -0.6940
24700SOL    HW175541   1.650   3.145   3.266 -0.7941  0.0531 -3.0765
24700SOL    HW275542   1.525   3.062   3.289  0.2619 -0.6140  1.0659
24701SOL     OW75543   5.089   0.152  10.179 -0.3280  0.5851 -0.5143
24701SOL    HW175544   5.032   0.088  10.221 -0.3597  0.6102 -0.5190
24701SOL    HW275545   5.157   0.100  10.136 -0.2626  0.5620 -0.3835
24702SOL     OW75546   0.199   2.848   8.049 -0.9403  0.4646  0.5465
24702SOL    HW175547   0.193   2.917   8.115 -3.7698 -0.4653  1.3871
24702SOL    HW275548   0.167   2.889   7.969  1.0686  1.1546  0.0297
24703SOL     OW75549   1.779   4.930  11.636 -0.3407 -0.6576  0.9601
24703SOL    HW175550   1.822   4.916  11.552 -0.7895 -1.3024  0.8378
24703SOL    HW275551   1.849   4.964  11.693 -0.5486  2.1979 -0.3015
24704SOL     OW75552   6.288   7.839   4.608 -0.4056  0.3820  0.3265
24704SOL    HW175553   6.266   7.748   4.629  0.3923 -0.2456 -1.3082
24704SOL    HW275554   6.309   7.879   4.692 -1.6339 -0.6798  1.1894
24705SOL     OW75555   3.123   2.434   0.689  1.0043  0.1484  0.9619
24705SOL    HW175556   3.044   2.390   0.719  2.1901 -0.8513  2.8630
24705SOL    HW275557   3.117   2.433   0.593 -1.9743  1.5550  1.0337
24706SOL     OW75558   0.936   1.171  10.863 -0.0541  0.4535 -0.0123
24706SOL    HW175559   0.977   1.255  10.885  0.4787  0.2341 -0.1569
24706SOL    HW275560   0.851   1.174  10.907  0.2610  0.7682  0.5977
24707SOL     OW75561   0.894   4.475  12.024 -0.4211 -0.1346  0.0825
24707SOL    HW175562   0.863   4.529  11.951  0.2849  0.0835 -0.0660
24707SOL    HW275563   0.894   4.534  12.099  0.4555  0.1124 -0.1034
24708SOL     OW75564   6.697   4.762   1.954 -0.2271  0.4087  0.0448
24708SOL    HW175565   6.602   4.773   1.952 -0.3819 -0.3824  1.6889
24708SOL    HW275566   6.718   4.746   2.046  1.3784 -0.4388 -0.4191
24709SOL     OW75567   2.013   3.922  10.520  0.3208  0.3345 -0.3740
24709SOL    HW175568   2.036   3.833  10.493  0.0957  0.4763 -1.0687
24709SOL    HW275569   2.096   3.960  10.550  0.4004 -0.1363  0.0084
24710SOL     OW75570   6.933   2.980  11.832 -0.0177 -0.0714  0.2525
24710SOL    HW175571   6.957   2.924  11.906 -2.2730 -0.8005  0.5274
24710SOL    HW275572   6.937   2.922  11.756 -0.7840 -0.2009  0.3006
24711SOL     OW75573   5.096   7.916   7.816 -0.0800  0.1726 -0.2178
24711SOL    HW175574   5.180   7.870   7.812 -0.1839  0.0044 -0.4809
24711SOL    HW275575   5.118   8.003   7.849  0.2022  0.1376 -0.3102
24712SOL     OW75576   0.999   3.312   3.450 -0.0695  0.2793 -0.7708
24712SOL    HW175577   0.950   3.253   3.392 -0.1434  0.5665 -1.0033
24712SOL    HW275578   1.086   3.317   3.411  0.2368 -0.4368 -0.2140
24713SOL     OW75579   4.979   7.592   9.360  0.2982  0.1541  0.1351
24713SOL    HW175580   4.936   7.542   9.291  1.8922 -0.9363 -0.1337
24713SOL    HW275581   4.939   7.679   9.356 -2.3252 -0.9407  0.3777
24714SOL     OW75582   2.416   4.562   6.244 -0.2802  0.0194 -0.0247
24714SOL    HW175583   2.466   4.530   6.169 -1.3836  0.5610 -1.0097
24714SOL    HW275584   2.478   4.617   6.292  0.5056 -0.5350 -0.3816
24715SOL     OW75585   0.821   7.351   6.342 -0.2323 -0.0363  0.0215
24715SOL    HW175586   0.860   7.433   6.313 -1.2031  0.3643 -0.2023
24715SOL    HW275587   0.796   7.367   6.433  1.2933 -0.7391  0.6105
24716SOL     OW75588   7.396   1.018   0.723 -0.0606  0.4872 -0.3584
24716SOL    HW175589   7.398   1.079   0.649 -1.3007 -0.4678 -1.2295
24716SOL    HW275590   7.315   0.969   0.710 -0.2833  0.2711  1.6448
24717SOL     OW75591   2.473   6.089   7.713  0.0891 -0.6494 -0.2554
24717SOL    HW175592   2.522   6.081   7.795 -0.1759 -1.4608 -0.1743
24717SOL    HW275593   2.540   6.084   7.645  0.1571 -1.4493 -0.1352
24718SOL     OW75594   6.446   6.793   1.370 -0.1447 -0.3159 -0.2508
24718SOL    HW175595   6.493   6.871   1.341 -0.5727  0.6064  1.4144
24718SOL    HW275596   6.410   6.817   1.455  0.6255 -2.6769  0.8300
24719SOL     OW75597   0.574   3.748   2.824 -0.3706  0.0541 -0.6189
24719SOL    HW175598   0.646   3.739   2.761  0.4861  1.0922  0.1912
24719SOL    HW275599   0.607   3.808   2.890  0.0857 -3.4292  2.6948
24720SOL     OW75600   6.042   0.956   7.817 -0.5512  0.1446 -0.3957
24720SOL    HW175601   6.049   1.008   7.897 -0.4088  0.2290 -0.4629
24720SOL    HW275602   6.024   0.867   7.847  1.0637 -0.1430 -0.2063
24721SOL     OW75603   6.873   6.530   4.248 -0.3835 -0.2753 -0.0557
24721SOL    HW175604   6.791   6.575   4.270 -0.3619  1.0690 -2.3551
24721SOL    HW275605   6.937   6.600   4.239  0.3298 -1.0179 -1.0154
24722SOL     OW75606   3.277   0.084   5.726 -0.3486  0.4573 -0.8530
24722SOL    HW175607   3.202   0.141   5.743 -0.1257  0.9779 -1.5688
24722SOL    HW275608   3.238   0.003   5.691 -0.5555  0.8902 -1.6420
24723SOL     OW75609   6.720   6.152   5.955 -0.1511 -0.4220 -0.4935
24723SOL    HW175610   6.697   6.223   6.014 -0.0198 -0.2213 -0.6833
24723SOL    HW275611   6.774   6.193   5.888  0.6682 -0.8597 -0.1203
24724SOL     OW75612   4.856   2.831   5.115  0.0987 -0.1641  0.2855
24724SOL    HW175613   4.893   2.888   5.182 -0.8988 -0.2613  0.9381
24724SOL    HW275614   4.849   2.745   5.158  2.1338 -0.9798 -0.8565
24725SOL     OW75615   1.669   7.915   9.335  0.1414 -0.0442 -0.0725
24725SOL    HW175616   1.714   7.904   9.418  1.1749 -0.3822 -0.6643
24725SOL    HW275617   1.710   7.852   9.276 -2.2711 -1.6238 -0.2044
24726SOL     OW75618   5.143   5.642   0.617 -0.0121 -0.2823  0.1077
24726SOL    HW175619   5.197   5.578   0.663 -0.5837 -0.5516  0.4221
24726SOL    HW275620   5.060   5.642   0.665 -0.0830  0.5746  0.0061
24727SOL     OW75621   7.786   5.236   1.346  0.1168  0.3717 -0.1044
24727SOL    HW175622   7.735   5.238   1.426 -0.4736 -0.0178 -0.4575
24727SOL    HW275623   7.851   5.306   1.356 -0.2700  0.6515  0.4917
24728SOL     OW75624   0.599   1.698   6.404 -0.2731 -0.1713  0.0385
24728SOL    HW175625   0.615   1.719   6.312  0.3571 -0.5643  0.0560
24728SOL    HW275626   0.544   1.770   6.435 -1.8542 -0.8459 -1.0577
24729SOL     OW75627   0.388   0.194   9.893  0.4441 -0.0585  0.3131
24729SOL    HW175628   0.455   0.261   9.877  0.2662  0.4016  1.3968
24729SOL    HW275629   0.336   0.229   9.965 -0.0681 -1.0738  0.4543
24730SOL     OW75630   6.206   2.426   2.664  0.7202  0.4071 -0.0412
24730SOL    HW175631   6.242   2.494   2.721  0.0711  0.4931  0.2696
24730SOL    HW275632   6.136   2.470   2.616  0.3639 -0.0180  0.0879
24731SOL     OW75633   0.458   5.122   0.583 -0.2057 -0.6458 -0.0035
24731SOL    HW175634   0.552   5.135   0.572 -0.1304 -1.0426  0.1492
24731SOL    HW275635   0.418   5.196   0.537  0.2306  0.6094  1.5370
24732SOL     OW75636   2.724   3.636   7.284 -0.3877  0.3461  0.0347
24732SOL    HW175637   2.694   3.559   7.236 -2.5795  1.0648  0.1275
24732SOL    HW275638   2.782   3.681   7.223 -1.1929 -0.0330 -1.0398
24733SOL     OW75639   3.479   6.876   8.113 -0.6085 -0.0441 -0.5651
24733SOL    HW175640   3.437   6.878   8.199  1.1275  0.4584  0.3341
24733SOL    HW275641   3.466   6.787   8.082  0.4896 -0.8756  1.1824
24734SOL     OW75642   6.682   6.383   6.110  0.2571  0.4860 -0.4135
24734SOL    HW175643   6.589   6.392   6.089  0.3891 -1.6982 -2.2967
24734SOL    HW275644   6.726   6.439   6.046  0.2640  1.6700  0.6010
24735SOL     OW75645   5.057   1.896   1.066 -0.1691  0.2553  0.1952
24735SOL    HW175646   5.117   1.839   1.114  0.3034  1.5892  1.2626
24735SOL    HW275647   5.025   1.958   1.132 -2.1592  0.0553 -0.5158
24736SOL     OW75648   3.048   6.060   7.525 -0.2900 -0.0476  0.1557
24736SOL    HW175649   3.047   5.966   7.542  0.8951  0.0424  0.8601
24736SOL    HW275650   3.124   6.073   7.468 -0.0953  0.5433  0.5356
24737SOL     OW75651   2.149   7.273   0.905 -0.2289  0.1451  0.4863
24737SOL    HW175652   2.117   7.337   0.968  0.8978  3.1460 -1.7217
24737SOL    HW275653   2.071   7.244   0.858 -0.8327 -0.7329  1.9505
24738SOL     OW75654   5.553   4.308   0.953  1.3110  0.2206  0.3683
24738SOL    HW175655   5.476   4.354   0.986  2.3138  1.5644  0.9456
24738SOL    HW275656   5.547   4.221   0.991 -0.3389  0.0196 -0.2735
24739SOL     OW75657   1.525   5.126  11.553  0.4707  0.0801  0.0242
24739SOL    HW175658   1.510   5.130  11.459  0.1192 -1.4625 -0.0113
24739SOL    HW275659   1.599   5.066  11.563  0.9581  0.7663  0.7137
24740SOL     OW75660   2.397   2.362   8.038 -0.5036 -0.0560  0.2294
24740SOL    HW175661   2.350   2.435   7.998 -0.2799 -0.8291 -1.5582
24740SOL    HW275662   2.483   2.398   8.060 -0.5307  0.3408 -0.2769
24741SOL     OW75663   1.325   2.716   3.569  0.3832  0.3014  0.5147
24741SOL    HW175664   1.349   2.743   3.480 -0.3987  1.2758  0.5881
24741SOL    HW275665   1.243   2.761   3.587 -0.1346 -0.8770  1.2729
24742SOL     OW75666   4.061   0.605  10.663 -0.1202 -0.3117  0.5032
24742SOL    HW175667   4.114   0.530  10.690  2.4068  1.2960  0.4097
24742SOL    HW275668   4.107   0.640  10.586 -1.0684  1.4465  0.6840
24743SOL     OW75669   1.125   2.618   5.915  0.4365 -0.2384 -0.3011
24743SOL    HW175670   1.033   2.647   5.908  0.0649 -1.4835 -0.7990
24743SOL    HW275671   1.146   2.631   6.007 -0.8203 -1.5635  0.2119
24744SOL     OW75672   2.907   7.062   3.810 -0.2075 -0.3471  0.6466
24744SOL    HW175673   2.983   7.089   3.861  0.5667  2.3969 -1.7209
24744SOL    HW275674   2.939   6.989   3.757  0.5294  0.2012  0.3206
24745SOL     OW75675   7.029   6.696  10.435  0.1950  0.2837 -0.2615
24745SOL    HW175676   7.058   6.770  10.381 -2.4482  1.6888  0.0728
24745SOL    HW275677   7.036   6.728  10.525 -0.2550 -0.1340 -0.0744
24746SOL     OW75678   1.201   0.597  11.552  0.2761 -0.0334  0.4097
24746SOL    HW175679   1.174   0.541  11.625 -0.1718  0.8246  0.9098
24746SOL    HW275680   1.204   0.537  11.477 -0.0879 -0.7548  0.9507
24747SOL     OW75681   4.996   6.889   2.913 -0.3648 -0.0199 -0.5416
24747SOL    HW175682   4.967   6.971   2.951  0.9452 -0.0450  0.5765
24747SOL    HW275683   4.936   6.823   2.949 -0.4777  0.2540 -0.2243
24748SOL     OW75684   7.102   7.443   2.208 -0.0983 -0.3914 -0.3337
24748SOL    HW175685   7.141   7.387   2.142  1.4848 -0.4987  0.6523
24748SOL    HW275686   7.174   7.466   2.266 -1.7203 -1.7060  2.3851
24749SOL     OW75687   4.511   5.211   3.222  0.1795  0.1366  0.2123
24749SOL    HW175688   4.545   5.225   3.311 -0.8487  2.8798  0.2721
24749SOL    HW275689   4.571   5.147   3.184  0.8607 -0.8684  2.7330
24750SOL     OW75690   3.402   7.820  10.629 -0.0695  0.1407 -0.3638
24750SOL    HW175691   3.350   7.740  10.626 -0.9130  0.7204 -2.6985
24750SOL    HW275692   3.490   7.793  10.602 -0.5735  0.1067 -2.0743
24751SOL     OW75693   7.434   6.575   4.508  0.6548  0.0159  0.6511
24751SOL    HW175694   7.425   6.669   4.495  0.4912 -0.2360 -1.3642
24751SOL    HW275695   7.525   6.556   4.482  0.1232 -0.6271 -0.8286
24752SOL     OW75696   2.647   3.306  10.696 -0.2073 -0.2938  0.2354
24752SOL    HW175697   2.603   3.355  10.765 -0.6441 -1.4150  0.7742
24752SOL    HW275698   2.678   3.227  10.739 -0.4307 -0.9854 -0.8371
24753SOL     OW75699   4.219   4.729   2.889  0.4934 -0.2659 -0.0047
24753SOL    HW175700   4.162   4.677   2.832  1.6556 -1.8260  0.2152
24753SOL    HW275701   4.284   4.767   2.830 -0.3898  1.0542 -0.1751
24754SOL     OW75702   4.964   4.936   6.266  0.2821 -0.2535 -0.1654
24754SOL    HW175703   4.870   4.928   6.249  0.6076 -2.2507 -1.3562
24754SOL    HW275704   4.987   4.855   6.310  0.9313  1.5949  3.2324
24755SOL     OW75705   6.861   3.902   6.807  0.1727 -0.6560  0.0540
24755SOL    HW175706   6.892   3.953   6.732 -2.0424  1.0451  0.2233
24755SOL    HW275707   6.856   3.965   6.879 -1.4500 -1.3652  0.6003
24756SOL     OW75708   2.171   1.771   1.306 -0.5296  0.1995  0.3085
24756SOL    HW175709   2.227   1.848   1.302  2.1180 -1.4926  1.4356
24756SOL    HW275710   2.127   1.779   1.391  0.9750 -0.2167  1.1805
24757SOL     OW75711   4.746   2.450  12.011 -0.2675 -0.4670  0.1195
24757SOL    HW175712   4.775   2.387  12.076 -0.3665 -2.3908 -1.5960
24757SOL    HW275713   4.805   2.525  12.022 -1.6556  0.2860  3.8072
24758SOL     OW75714   7.629   1.419  12.158  0.0997 -1.0082  1.3242
24758SOL    HW175715   7.701   1.455  12.106 -2.4818 -0.3890 -2.1753
24758SOL    HW275716   7.606   1.488  12.220  0.9692 -0.2897  0.8556
24759SOL     OW75717   4.191   3.688  11.825  0.9766  0.5264 -0.0931
24759SOL    HW175718   4.136   3.743  11.881  0.0828  0.0993 -0.5234
24759SOL    HW275719   4.147   3.603  11.825  0.6292  0.6667 -1.8874
24760SOL     OW75720   0.077   2.617   5.275  0.7122  0.7543  0.1449
24760SOL    HW175721   0.119   2.601   5.359  1.9766 -0.9435 -0.7470
24760SOL    HW275722   0.145   2.597   5.210 -0.4639  1.2411 -1.2968
24761SOL     OW75723   1.815   5.021   1.075  0.1855  0.2451  0.0889
24761SOL    HW175724   1.741   5.046   1.021 -1.4029 -0.4460  1.8205
24761SOL    HW275725   1.852   5.103   1.105  1.5705  0.6804 -2.5143
24762SOL     OW75726   2.800   3.535  11.684  0.5700  0.1019  0.4968
24762SOL    HW175727   2.735   3.560  11.618 -0.1823 -0.7433  0.8949
24762SOL    HW275728   2.807   3.440  11.675  2.9519  0.2807 -0.6269
24763SOL     OW75729   6.931   4.780  10.911  0.5435  0.3087 -0.0942
24763SOL    HW175730   6.843   4.811  10.886 -1.2090 -2.1925  2.3589
24763SOL    HW275731   6.990   4.826  10.851 -2.5384  0.8897 -3.0377
24764SOL     OW75732   6.067   7.874   9.220 -0.4568  0.5600 -0.5396
24764SOL    HW175733   6.030   7.863   9.307  0.5502 -1.5598 -0.3204
24764SOL    HW275734   6.020   7.811   9.166  1.3529 -0.7081 -0.7024
24765SOL     OW75735   7.064   3.495   2.557  0.0727  0.4753  0.3202
24765SOL    HW175736   7.052   3.559   2.486 -0.6481 -0.6246 -0.5948
24765SOL    HW275737   7.045   3.543   2.637 -1.5944  1.1404 -0.4389
24766SOL     OW75738   5.106   7.771   4.731 -0.5831  0.2152 -0.0973
24766SOL    HW175739   5.168   7.796   4.662 -0.0597 -0.3801  0.1386
24766SOL    HW275740   5.121   7.835   4.801 -1.1727  0.8696 -0.5657
24767SOL     OW75741   7.006   6.425  11.260 -1.1250 -0.4457  0.2158
24767SOL    HW175742   6.981   6.503  11.210 -0.6005 -1.2641 -1.4032
24767SOL    HW275743   7.099   6.413  11.240  0.2514  1.2563  4.3313
24768SOL     OW75744   5.076   4.139  10.827 -0.1815  0.4377 -0.9885
24768SOL    HW175745   5.009   4.119  10.761 -0.7500  0.5476 -0.4481
24768SOL    HW275746   5.101   4.229  10.809 -0.1386  0.3792 -1.2265
24769SOL     OW75747   3.527   6.765   5.464 -0.0113  0.1180 -0.0159
24769SOL    HW175748   3.607   6.713   5.477 -0.4015 -0.2819  0.9157
24769SOL    HW275749   3.460   6.718   5.514 -0.5448  1.1385  0.2581
24770SOL     OW75750   0.518   6.004   1.151 -0.5269  0.1685  0.1971
24770SOL    HW175751   0.552   6.089   1.125 -0.3424 -0.0122 -0.1504
24770SOL    HW275752   0.581   5.941   1.118 -1.4720 -0.2105 -0.9545
24771SOL     OW75753   0.534   3.691   4.140 -0.5962  0.1023  0.1126
24771SOL    HW175754   0.518   3.632   4.067  0.2073 -1.6274  1.2717
24771SOL    HW275755   0.604   3.650   4.190 -1.1527  1.1807  1.8929
24772SOL     OW75756   5.779   5.166  10.983  0.6777 -0.3312  0.2394
24772SOL    HW175757   5.739   5.092  11.028  0.4230 -0.0743  0.4329
24772SOL    HW275758   5.752   5.156  10.892  1.3075 -0.9303  0.1075
24773SOL     OW75759   1.969   6.444   4.052  0.6201 -0.3045 -0.3684
24773SOL    HW175760   1.977   6.403   4.138 -0.8236 -0.8521 -0.4649
24773SOL    HW275761   2.025   6.392   3.994  4.1176  1.8654  0.7244
24774SOL     OW75762   1.752   2.404   4.520 -0.4601  0.2825  0.8246
24774SOL    HW175763   1.830   2.426   4.468 -1.1710  0.9284  0.0153
24774SOL    HW275764   1.772   2.438   4.608  0.5778 -0.4559  0.9022
24775SOL     OW75765   1.678   2.995   7.370  0.1390  0.0995 -0.3088
24775SOL    HW175766   1.609   2.990   7.304 -1.8565 -0.7332  1.7116
24775SOL    HW275767   1.702   2.905   7.388  2.5846  0.3866 -1.6733
24776SOL     OW75768   2.079   1.375   5.429 -0.0321  0.7958 -0.3758
24776SOL    HW175769   1.985   1.366   5.444 -0.0967  0.4224 -0.9756
24776SOL    HW275770   2.093   1.336   5.343  0.7221  0.5843 -0.1589
24777SOL     OW75771   1.819   4.592   8.209 -1.2434  0.8475 -0.2474
24777SOL    HW175772   1.784   4.565   8.124 -1.7122  1.9662 -0.4212
24777SOL    HW275773   1.914   4.582   8.200 -1.3791 -0.4305 -0.4012
24778SOL     OW75774   0.546   0.079   1.345 -0.2326 -0.3884 -0.2857
24778SOL    HW175775   0.637   0.094   1.369 -0.2778 -0.6544  0.0588
24778SOL    HW275776   0.519   0.161   1.302 -0.3841  0.4134  1.2739
24779SOL     OW75777   4.486   1.793   3.144  0.5819 -0.0264 -0.3509
24779SOL    HW175778   4.578   1.768   3.149  0.8255  0.5464 -1.5704
24779SOL    HW275779   4.485   1.872   3.091 -0.5036  0.7048  0.6866
24780SOL     OW75780   3.484   0.863   2.452  0.3968 -0.1802 -0.2873
24780SOL    HW175781   3.542   0.908   2.514  0.7087  2.0615 -2.0640
24780SOL    HW275782   3.445   0.792   2.503  1.4914  0.8420  2.1420
24781SOL     OW75783   5.570   5.864   6.183 -0.0452  0.4892 -0.5673
24781SOL    HW175784   5.612   5.881   6.267 -1.9838  2.2769  0.1494
24781SOL    HW275785   5.576   5.947   6.136 -0.9571  0.1851 -1.2596
24782SOL     OW75786   6.046   2.374   7.118  0.1029 -0.1130  0.6270
24782SOL    HW175787   6.008   2.457   7.144  0.6581  0.5446 -0.5825
24782SOL    HW275788   5.992   2.344   7.045 -1.6091 -2.0722  2.5674
24783SOL     OW75789   5.843   5.896  10.532  0.3723 -0.0582  0.2568
24783SOL    HW175790   5.874   5.895  10.441 -1.6267 -2.0014 -0.4768
24783SOL    HW275791   5.771   5.958  10.532  0.1435 -0.3232  0.4250
24784SOL     OW75792   1.007   4.768   2.837 -1.0792 -0.1809  0.0055
24784SOL    HW175793   0.952   4.731   2.767 -2.0047 -0.4863  0.8680
24784SOL    HW275794   1.026   4.693   2.894  0.4828 -0.1333 -0.4033
24785SOL     OW75795   2.984   1.994   1.679  0.3251 -0.1133 -0.6321
24785SOL    HW175796   3.036   1.932   1.731 -0.8440  0.3062  1.1195
24785SOL    HW275797   3.049   2.048   1.634  1.3692 -1.4443 -0.7992
24786SOL     OW75798   7.620   5.640   2.973 -0.0336 -0.0727 -0.0001
24786SOL    HW175799   7.546   5.659   2.916  0.2296 -0.7840 -0.5896
24786SOL    HW275800   7.625   5.716   3.031 -0.8656  0.2454 -0.3265
24787SOL     OW75801   4.045   0.389   7.265 -0.2685  0.1908 -0.3634
24787SOL    HW175802   4.020   0.479   7.289 -1.5830 -0.5204  1.1200
24787SOL    HW275803   3.993   0.371   7.186 -1.5530  0.0685  0.4855
24788SOL     OW75804   2.567   2.385   5.658 -0.0084  0.4597 -0.2071
24788SOL    HW175805   2.637   2.421   5.711 -0.9583  1.6311  0.3061
24788SOL    HW275806   2.610   2.349   5.581  1.2227  0.3270  0.5231
24789SOL     OW75807   5.155   1.448   5.209  0.2603  0.1185  0.0655
24789SOL    HW175808   5.223   1.385   5.232  0.1310 -0.3533 -0.8018
24789SOL    HW275809   5.162   1.517   5.275  0.0061 -1.0977  1.4085
24790SOL     OW75810   0.417   6.212   2.496  0.2254  0.2432  0.0153
24790SOL    HW175811   0.502   6.173   2.476 -0.3161 -1.3525  0.6528
24790SOL    HW275812   0.413   6.291   2.441  0.9251 -1.1555 -2.1828
24791SOL     OW75813   6.755   5.967   6.721  0.0867 -0.0283  0.0387
24791SOL    HW175814   6.815   5.939   6.790  0.2760  1.0254  0.3104
24791SOL    HW275815   6.743   6.061   6.735  1.5389  0.6276 -2.4131
24792SOL     OW75816   4.699   5.040  10.518 -0.2095  0.7382 -0.2417
24792SOL    HW175817   4.640   5.097  10.470  1.0144  2.2734 -0.0024
24792SOL    HW275818   4.785   5.081  10.510  0.9376 -1.5721 -0.8390
24793SOL     OW75819   7.752   2.497   2.943  0.1070  0.2830 -0.4439
24793SOL    HW175820   7.672   2.482   2.994 -0.3519  0.4853 -1.0924
24793SOL    HW275821   7.823   2.491   3.007 -0.5852  2.4984  0.6379
24794SOL     OW75822   2.003   3.427   5.862  0.7681 -0.3808 -0.2772
24794SOL    HW175823   2.021   3.337   5.834  1.7031 -0.0345 -0.8497
24794SOL    HW275824   2.012   3.425   5.957 -0.1547 -1.0898 -0.1942
24795SOL     OW75825   6.214   5.793  12.133 -0.3060  0.0432 -0.1233
24795SOL    HW175826   6.136   5.803  12.188 -0.9150  1.5360 -1.2026
24795SOL    HW275827   6.196   5.844  12.055  1.4425 -0.2421 -0.7731
24796SOL     OW75828   5.527   2.640   0.132  0.1147 -0.1296 -0.8206
24796SOL    HW175829   5.455   2.660   0.073  0.0267  0.3394 -0.5580
24796SOL    HW275830   5.497   2.564   0.182 -1.3210  1.6810  1.1799
24797SOL     OW75831   6.335   2.818  12.274 -0.3418 -0.1571  0.6050
24797SOL    HW175832   6.356   2.856  12.188 -1.9160 -1.2153 -0.3166
24797SOL    HW275833   6.418   2.816  12.321  0.1611  2.4916 -0.0471
24798SOL     OW75834   3.674   5.403   9.881 -0.4208 -0.5134 -0.7333
24798SOL    HW175835   3.709   5.316   9.861  0.6091 -0.1309 -0.7031
24798SOL    HW275836   3.581   5.397   9.862 -0.1974 -1.3532 -1.6719
24799SOL     OW75837   6.586   5.813   6.960 -0.9850  0.0138  0.1338
24799SOL    HW175838   6.587   5.856   7.045 -0.4493 -1.7528  1.0550
24799SOL    HW275839   6.493   5.814   6.934 -0.9276  2.2869 -0.2418
24800SOL     OW75840   7.583   0.118   0.105 -0.1965  0.5948  0.2645
24800SOL    HW175841   7.618   0.089   0.189 -0.8998  0.1749  0.4180
24800SOL    HW275842   7.553   0.038   0.062 -0.2653  0.8609 -0.1868
24801SOL     OW75843   6.329   0.024   6.083  0.1133 -0.8598  0.0117
24801SOL    HW175844   6.293  -0.063   6.100 -2.1471 -0.2237 -1.1660
24801SOL    HW275845   6.258   0.084   6.105  0.4994  0.4854 -2.1159
24802SOL     OW75846   6.692   1.115   1.888 -0.1473 -0.1385  0.2693
24802SOL    HW175847   6.785   1.098   1.904 -0.3986 -0.9164  0.9961
24802SOL    HW275848   6.674   1.072   1.804 -0.2292 -1.5020  0.9562
24803SOL     OW75849   1.897   4.835   6.003  0.1230 -0.2694 -0.6598
24803SOL    HW175850   1.897   4.745   5.971  0.4059 -0.6644  0.3983
24803SOL    HW275851   1.988   4.862   5.999  0.3241 -0.6635  0.6667
24804SOL     OW75852   2.680   0.473   1.822  0.3580  1.0888 -0.1095
24804SOL    HW175853   2.661   0.458   1.730  1.3327  2.3185 -0.5376
24804SOL    HW275854   2.765   0.517   1.822  1.9621 -1.6689  1.5333
24805SOL     OW75855   2.210   2.412   1.397 -0.1258  0.6438  0.1612
24805SOL    HW175856   2.148   2.459   1.342 -1.2148 -1.6335 -0.6775
24805SOL    HW275857   2.277   2.380   1.337  0.4668  0.9011  0.6756
24806SOL     OW75858   1.444   7.708   1.569 -0.3853  0.0481  0.0285
24806SOL    HW175859   1.429   7.737   1.479  0.3633 -0.6885 -0.3489
24806SOL    HW275860   1.356   7.691   1.603 -0.7096  0.8361 -0.3779
24807SOL     OW75861   5.564   3.264   7.593  0.0514 -0.1876 -0.3612
24807SOL    HW175862   5.568   3.354   7.627  0.2439 -0.4454  0.3113
24807SOL    HW275863   5.589   3.272   7.501 -1.8423  0.7375 -0.8568
24808SOL     OW75864   2.770   7.000   0.927  0.4544 -0.8204 -0.5097
24808SOL    HW175865   2.808   7.031   0.845  1.6763 -1.2615 -0.1231
24808SOL    HW275866   2.842   6.999   0.989 -0.3048 -1.1430  0.4015
24809SOL     OW75867   3.984   6.259   0.437  0.5664 -0.3164  0.2899
24809SOL    HW175868   3.911   6.197   0.444  1.0282 -1.1707 -1.8375
24809SOL    HW275869   3.943   6.341   0.411  0.3317 -0.8351 -1.0638
24810SOL     OW75870   2.990   0.373   3.519  0.3350 -0.3263  0.1286
24810SOL    HW175871   2.921   0.307   3.518  0.0707 -0.0457 -0.5301
24810SOL    HW275872   3.050   0.345   3.450  0.0072  0.3434 -0.4315
24811SOL     OW75873   3.880   7.337   9.197 -0.1612  0.5437 -0.4393
24811SOL    HW175874   3.923   7.252   9.205 -0.8927  0.3066  2.0372
24811SOL    HW275875   3.790   7.316   9.173 -1.2369  0.2151  3.2621
24812SOL     OW75876   7.096   7.309   0.798 -0.0029  0.2696  0.4168
24812SOL    HW175877   7.142   7.374   0.744  0.4591  1.8806  2.6383
24812SOL    HW275878   7.005   7.337   0.798 -0.1830 -0.2807 -0.2497
24813SOL     OW75879   2.188   2.782   4.160  0.2669 -0.3028  0.2560
24813SOL    HW175880   2.243   2.794   4.237  2.0139 -1.4339 -0.7474
24813SOL    HW275881   2.099   2.803   4.190  1.0617  0.4782  2.2232
24814SOL     OW75882   7.459   2.377   1.629  0.2558 -0.0559  0.4889
24814SOL    HW175883   7.494   2.448   1.683 -1.9683  1.6269 -0.1222
24814SOL    HW275884   7.477   2.298   1.679  1.3734  1.0914  2.0012
24815SOL     OW75885   0.430   6.456  11.432  0.2025 -0.1989  0.7208
24815SOL    HW175886   0.363   6.410  11.380  1.8265 -0.8379 -0.9030
24815SOL    HW275887   0.481   6.385  11.472  1.1103  0.2307  0.3404
24816SOL     OW75888   4.496   2.161   1.974  0.1572 -0.1615 -0.4549
24816SOL    HW175889   4.496   2.190   2.065  0.7006  0.8342 -0.7477
24816SOL    HW275890   4.405   2.138   1.955  0.2168 -1.3316  0.6188
24817SOL     OW75891   0.107   3.421  11.096  1.0026  0.4626 -0.4052
24817SOL    HW175892   0.091   3.427  11.190  1.5419 -0.0465 -0.2689
24817SOL    HW275893   0.193   3.462  11.084  0.8416  0.7131 -0.7062
24818SOL     OW75894   1.363   6.081   3.599  0.4806 -0.1119  0.0502
24818SOL    HW175895   1.390   6.088   3.508  0.7526 -0.4075  0.1059
24818SOL    HW275896   1.365   6.171   3.632  0.2918  0.0044 -0.2611
24819SOL     OW75897   1.837   5.929   8.572 -0.1276 -0.3914  0.3983
24819SOL    HW175898   1.800   5.842   8.558 -0.3587 -0.0958 -1.0356
24819SOL    HW275899   1.768   5.989   8.544  0.8348  0.1970 -0.8134
24820SOL     OW75900   1.946   7.175   2.891 -0.1662 -0.3750 -0.1867
24820SOL    HW175901   1.929   7.243   2.956  0.5846  0.8943 -1.2712
24820SOL    HW275902   1.866   7.172   2.837 -0.6826 -1.2418  0.5929
24821SOL     OW75903   7.572   1.651   3.339  0.3171  0.4819  0.4988
24821SOL    HW175904   7.523   1.702   3.403 -0.5165  0.4010 -0.0522
24821SOL    HW275905   7.659   1.641   3.377  0.0069  0.9250  1.3458
24822SOL     OW75906   5.707   0.678  11.710  0.0236  0.1939 -0.0786
24822SOL    HW175907   5.765   0.612  11.748 -1.2952  0.2082  2.1859
24822SOL    HW275908   5.756   0.760  11.717  0.2207  0.0226  0.7001
24823SOL     OW75909   7.517   4.518   2.341  0.1737  0.1134 -0.0101
24823SOL    HW175910   7.520   4.578   2.415 -1.2411  1.7559 -1.2029
24823SOL    HW275911   7.449   4.454   2.363  0.1925  0.2211  0.3584
24824SOL     OW75912   4.990   6.715   1.760  0.6124 -0.1605  0.2174
24824SOL    HW175913   5.010   6.808   1.755  0.5518 -0.1158  0.7780
24824SOL    HW275914   5.009   6.682   1.672  2.6492 -0.0269  0.5549
24825SOL     OW75915   6.801   1.254   1.305 -0.1006  0.0737 -0.1362
24825SOL    HW175916   6.863   1.230   1.374  0.5854 -0.7024 -0.9978
24825SOL    HW275917   6.854   1.255   1.225 -0.7116  1.7619 -0.5432
24826SOL     OW75918   6.656   2.275  11.073  0.6679 -0.0682  0.0991
24826SOL    HW175919   6.661   2.363  11.037  0.7017  0.2316  0.8186
24826SOL    HW275920   6.747   2.249  11.086  0.6582 -0.2084 -0.1120
24827SOL     OW75921   2.775   6.907   2.254  0.2573 -0.1536 -0.7384
24827SOL    HW175922   2.809   6.916   2.342  0.0899 -1.9662 -0.4430
24827SOL    HW275923   2.691   6.952   2.255  0.4668  0.2297 -0.1220
24828SOL     OW75924   6.178   0.785   9.062  0.1961 -0.5875  0.3722
24828SOL    HW175925   6.106   0.723   9.045 -0.8590  1.1300 -1.9016
24828SOL    HW275926   6.254   0.729   9.076 -0.8019 -2.4538 -1.0690
24829SOL     OW75927   3.109   7.965   9.772 -0.0380 -0.0462 -0.4048
24829SOL    HW175928   3.132   8.042   9.719 -0.7127  0.4637  0.0273
24829SOL    HW275929   3.047   7.999   9.836 -1.3122 -1.2061 -0.9921
24830SOL     OW75930   1.829   4.744   3.756 -0.3766  0.6414 -0.0666
24830SOL    HW175931   1.904   4.743   3.697  0.0033 -1.0121  0.3967
24830SOL    HW275932   1.830   4.658   3.798 -3.4413 -0.0809 -1.2149
24831SOL     OW75933   1.132   6.684   6.779 -0.5008  0.2402  0.6418
24831SOL    HW175934   1.162   6.773   6.797 -0.0900  0.5925 -1.5283
24831SOL    HW275935   1.207   6.629   6.802 -0.5101  0.4979  1.3312
24832SOL     OW75936   3.515   5.356   0.923  0.0810  0.2304 -0.3877
24832SOL    HW175937   3.547   5.445   0.939  0.2840  0.0598  0.2031
24832SOL    HW275938   3.538   5.308   1.003 -1.3727  0.0305 -0.0512
24833SOL     OW75939   7.842   3.596   8.793 -0.1923  0.1723  0.2584
24833SOL    HW175940   7.843   3.555   8.880 -2.6863  0.5447  0.5422
24833SOL    HW275941   7.886   3.680   8.806  0.9102 -0.4539  0.7430
24834SOL     OW75942   0.318   5.654  11.960  0.2547 -0.4832  0.1889
24834SOL    HW175943   0.409   5.664  11.990  0.0779 -0.0272  0.5912
24834SOL    HW275944   0.276   5.737  11.985 -0.2205 -0.6112 -0.1812
24835SOL     OW75945   7.673   2.720   2.797  1.0056 -0.6170  0.5072
24835SOL    HW175946   7.712   2.697   2.713  0.1129 -1.0130  0.1847
24835SOL    HW275947   7.698   2.649   2.856 -0.4705 -1.7046 -0.0971
24836SOL     OW75948   2.121   6.955  10.944  0.4565 -0.2610  0.2954
24836SOL    HW175949   2.130   6.901  11.022  2.8672 -0.0223  0.2600
24836SOL    HW275950   2.084   6.895  10.878 -0.7481 -0.7027  1.3468
24837SOL     OW75951   6.402   5.675   9.104  0.4296 -0.0211 -0.0756
24837SOL    HW175952   6.358   5.726   9.036  3.7419  2.2018 -0.7840
24837SOL    HW275953   6.432   5.596   9.059 -2.3492 -1.4929  0.3791
24838SOL     OW75954   6.395   1.041   6.146  0.4999  0.0221  0.2496
24838SOL    HW175955   6.409   1.109   6.213 -0.1543 -1.3506  1.8416
24838SOL    HW275956   6.413   0.959   6.191 -1.1639 -1.0387 -0.9267
24839SOL     OW75957   5.380   5.345   8.405 -0.3331  0.0236  0.0990
24839SOL    HW175958   5.403   5.346   8.312  0.8296 -1.2819  0.3286
24839SOL    HW275959   5.285   5.338   8.406 -0.4349  1.0121 -0.9729
24840SOL     OW75960   1.018   0.222   7.139  0.5779  0.3559 -0.2882
24840SOL    HW175961   1.071   0.272   7.077 -0.4014  0.6025 -0.9560
24840SOL    HW275962   0.976   0.154   7.086 -0.8742  1.0372 -0.0697
24841SOL     OW75963   2.609   6.721   6.468 -0.2272  0.0478  0.3688
24841SOL    HW175964   2.692   6.709   6.514  0.0862 -0.6749 -0.3608
24841SOL    HW275965   2.554   6.770   6.529  1.0389  1.3612  0.5251
24842SOL     OW75966   1.877   4.405   0.719 -0.3540 -0.4441 -0.4093
24842SOL    HW175967   1.828   4.486   0.707 -0.1541 -0.2713 -0.0613
24842SOL    HW275968   1.852   4.350   0.644 -0.4942 -0.0656 -0.6400
24843SOL     OW75969   3.046   5.947   4.509 -0.1131 -0.2138 -0.3910
24843SOL    HW175970   3.004   6.022   4.550 -0.3569 -0.4443 -0.2148
24843SOL    HW275971   3.139   5.957   4.530 -0.0583  0.3722 -0.8998
24844SOL     OW75972   2.246   5.950   8.331  0.3821  0.3414 -0.5767
24844SOL    HW175973   2.156   5.961   8.362 -0.2441 -0.7173 -1.9415
24844SOL    HW275974   2.285   5.888   8.393 -0.6431 -1.2029 -1.4227
24845SOL     OW75975   1.770   4.322   5.344  0.5335 -0.2293  0.2354
24845SOL    HW175976   1.696   4.379   5.361  1.6812  1.3947 -0.0127
24845SOL    HW275977   1.788   4.279   5.428 -0.7811 -0.7879  0.2462
24846SOL     OW75978   3.604   4.889  10.876 -0.1461 -0.0001 -0.0055
24846SOL    HW175979   3.532   4.872  10.937 -1.9216  1.2177 -1.6242
24846SOL    HW275980   3.616   4.983  10.879  1.3161 -0.1755  0.1263
24847SOL     OW75981   2.154   0.470   0.212  0.5804  0.2922 -0.1399
24847SOL    HW175982   2.171   0.499   0.122  2.3353  0.9177  0.3597
24847SOL    HW275983   2.240   0.462   0.252 -0.1562 -0.1527  1.4489
24848SOL     OW75984   4.842   3.919   2.862  0.6327 -0.3107  0.6083
24848SOL    HW175985   4.845   3.965   2.945  2.3457  0.0168  0.3966
24848SOL    HW275986   4.787   3.842   2.879 -1.0480  0.9930  1.3508
24849SOL     OW75987   3.495   6.355   1.885 -0.4133 -0.6208  0.2023
24849SOL    HW175988   3.510   6.421   1.952 -0.0270 -1.8930  1.4187
24849SOL    HW275989   3.416   6.383   1.840 -1.7422 -0.6623  2.3960
24850SOL     OW75990   0.615   5.565   4.385  0.0552  0.8598 -0.6741
24850SOL    HW175991   0.660   5.620   4.322  0.7815 -0.5981 -1.4944
24850SOL    HW275992   0.685   5.515   4.428 -0.6920 -1.2694 -1.8019
24851SOL     OW75993   5.578   5.795  11.161  0.0617 -0.2250  0.0665
24851SOL    HW175994   5.539   5.715  11.197 -0.5335 -0.8007 -1.7250
24851SOL    HW275995   5.509   5.860  11.169  0.0071 -0.2963  0.1754
24852SOL     OW75996   1.104   5.612   4.606  0.2804 -0.3038 -0.2028
24852SOL    HW175997   1.086   5.698   4.568  0.3403  0.3247  1.1303
24852SOL    HW275998   1.165   5.630   4.677 -0.5607 -1.3073  0.8118
24853SOL     OW75999   3.152   1.075   4.714 -0.3962 -0.2719 -0.1077
24853SOL    HW176000   3.130   1.165   4.689 -0.1183 -0.6167 -1.6703
24853SOL    HW276001   3.247   1.070   4.702 -0.4550 -0.8668 -0.3231
24854SOL     OW76002   7.217   4.078  10.757  0.1980 -0.0966 -0.3376
24854SOL    HW176003   7.226   4.137  10.682  1.1365  1.4984  0.9553
24854SOL    HW276004   7.276   4.006  10.739  1.7066  1.1045 -0.4113
24855SOL     OW76005   6.225   2.166   5.308  0.1465 -0.7215  0.0168
24855SOL    HW176006   6.235   2.079   5.268  0.6588 -1.0642  0.8554
24855SOL    HW276007   6.292   2.220   5.266  0.3279 -0.9402  0.0210
24856SOL     OW76008   2.708   3.388   0.580  0.3185  0.3133 -0.1412
24856SOL    HW176009   2.712   3.404   0.485 -0.2021  0.6748 -0.1047
24856SOL    HW276010   2.800   3.388   0.608  0.4976 -0.2249 -0.7151
24857SOL     OW76011   6.789   3.881  11.285 -0.5898  0.1807 -0.8225
24857SOL    HW176012   6.864   3.900  11.230  0.1525 -0.8464 -0.2067
24857SOL    HW276013   6.714   3.916  11.237  0.3865  2.4282 -0.8362
24858SOL     OW76014   2.071   0.558   6.098 -0.6155 -0.4784 -0.5773
24858SOL    HW176015   2.135   0.505   6.147  0.1498 -0.5832 -1.6398
24858SOL    HW276016   2.106   0.561   6.009 -1.9379 -0.2470 -1.1153
24859SOL     OW76017   1.534   7.885   6.034  0.2848 -0.1505  0.3565
24859SOL    HW176018   1.576   7.959   5.991  1.5204 -0.9819  0.0719
24859SOL    HW276019   1.441   7.894   6.012  0.4526  1.1524  0.1159
24860SOL     OW76020   1.756   6.060   2.511  0.7260 -0.0673  0.1189
24860SOL    HW176021   1.712   6.112   2.444 -1.0887 -2.6769 -0.8874
24860SOL    HW276022   1.709   6.081   2.592 -0.2969 -0.4420 -0.3606
24861SOL     OW76023   7.210   4.247   7.292  0.4413 -0.1275 -0.1463
24861SOL    HW176024   7.283   4.194   7.325  0.3404 -0.5758 -0.6311
24861SOL    HW276025   7.158   4.267   7.370 -0.3967 -2.0926 -0.1389
24862SOL     OW76026   1.121   4.739  11.928 -0.1844  0.2690 -0.0285
24862SOL    HW176027   1.105   4.797  11.854  1.2217 -0.4332 -0.9157
24862SOL    HW276028   1.133   4.799  12.002 -2.4007  0.9551 -0.1411
24863SOL     OW76029   2.742   0.280   6.885 -0.4591 -0.1033 -0.7899
24863SOL    HW176030   2.745   0.375   6.874  3.2867 -0.2330 -2.3602
24863SOL    HW276031   2.701   0.248   6.804  1.0861  0.1007 -1.6802
24864SOL     OW76032   5.312   1.665   2.975 -0.0900 -0.0784 -0.3651
24864SOL    HW176033   5.270   1.592   2.930 -0.1179  0.2494 -0.8682
24864SOL    HW276034   5.375   1.699   2.913  0.0672  0.2020 -0.0546
24865SOL     OW76035   3.280   7.675   2.273  0.6584 -0.2854 -0.0100
24865SOL    HW176036   3.227   7.597   2.287  0.1975 -0.2424 -1.4033
24865SOL    HW276037   3.217   7.747   2.280  0.7445 -0.1600 -0.5422
24866SOL     OW76038   3.145   7.233   3.092 -0.1988 -0.1627  0.2935
24866SOL    HW176039   3.181   7.251   3.005  1.6807  0.4645  1.1543
24866SOL    HW276040   3.167   7.310   3.144 -1.4899 -0.4325  1.2903
24867SOL     OW76041   1.995   2.270   5.552 -0.4237  0.0071 -0.4228
24867SOL    HW176042   1.907   2.240   5.578 -0.0384 -1.3618 -0.5945
24867SOL    HW276043   2.039   2.288   5.635 -0.1999 -1.3525 -0.2224
24868SOL     OW76044   0.846   5.806   5.665  0.5401  0.2275 -0.1815
24868SOL    HW176045   0.839   5.892   5.623 -0.8706  0.1665 -0.1260
24868SOL    HW276046   0.905   5.820   5.739 -1.6192  1.8129  1.3569
24869SOL     OW76047   0.170   5.250   6.022 -0.2522  0.1752  0.4983
24869SOL    HW176048   0.082   5.233   6.057 -1.5283  3.2205 -0.8582
24869SOL    HW276049   0.220   5.282   6.097 -0.9529  0.4324  0.8622
24870SOL     OW76050   6.461   7.642   6.987  0.5704 -0.1313 -0.0558
24870SOL    HW176051   6.371   7.639   7.019  0.3625 -1.8506 -0.6973
24870SOL    HW276052   6.454   7.685   6.901  0.6119  1.1639  0.5675
24871SOL     OW76053   4.959   2.220   9.679  0.1567  0.4886 -0.5178
24871SOL    HW176054   5.024   2.270   9.729  0.6476 -0.4617 -0.1900
24871SOL    HW276055   4.900   2.287   9.644 -0.0273  1.2036  1.0847
24872SOL     OW76056   6.027   3.059  11.190  0.6042  0.3471  0.0933
24872SOL    HW176057   5.950   3.071  11.247  0.0777 -0.1684 -0.4953
24872SOL    HW276058   6.101   3.083  11.245 -0.0045  1.3017  0.5417
24873SOL     OW76059   2.325   7.401  12.405  0.1586 -0.1625  0.3560
24873SOL    HW176060   2.251   7.392  12.465  0.3627 -1.1992  0.4678
24873SOL    HW276061   2.304   7.478  12.353 -0.7687 -0.1600  0.7121
24874SOL     OW76062   2.279   3.623   7.841 -0.1464 -0.1657  0.0886
24874SOL    HW176063   2.288   3.682   7.916 -2.0077 -0.8009  0.8752
24874SOL    HW276064   2.198   3.651   7.798  0.9376  0.2699 -1.8148
24875SOL     OW76065   6.838   3.392   2.212  0.0147 -1.1292  0.0518
24875SOL    HW176066   6.777   3.441   2.267 -0.5794 -2.1603  0.3388
24875SOL    HW276067   6.885   3.459   2.163 -1.1665 -0.2936  0.0214
24876SOL     OW76068   0.936   5.415   0.236 -0.0368 -0.2386  0.8065
24876SOL    HW176069   0.922   5.508   0.255 -2.0864  0.0819 -1.7486
24876SOL    HW276070   1.004   5.414   0.168 -0.0242 -0.6106  0.8239
24877SOL     OW76071   6.098   7.906   8.704  0.2209  0.5323  0.2634
24877SOL    HW176072   6.054   7.835   8.657  0.8939  0.7955 -0.8039
24877SOL    HW276073   6.026   7.958   8.740 -0.2910 -0.3009  0.4724
24878SOL     OW76074   1.315   5.727   2.442  0.0307  0.0966 -0.3552
24878SOL    HW176075   1.223   5.750   2.451  0.6058  2.9021 -0.6420
24878SOL    HW276076   1.357   5.765   2.520  1.2883  1.4259 -1.5966
24879SOL     OW76077   5.215   0.213  11.075 -0.0387  0.6735 -0.1355
24879SOL    HW176078   5.228   0.168  11.159  3.2479 -0.4518 -1.1256
24879SOL    HW276079   5.225   0.306  11.096  1.2586  0.3775  0.6917
24880SOL     OW76080   5.009   1.572  11.890 -0.3642 -0.2158  0.2981
24880SOL    HW176081   5.045   1.611  11.970  1.2828 -2.1745  0.6160
24880SOL    HW276082   5.026   1.478  11.900 -0.3388 -0.5556 -2.2292
24881SOL     OW76083   6.382   4.908  10.001 -0.2334 -0.6895 -0.2814
24881SOL    HW176084   6.286   4.899  10.004 -0.2291 -0.4163  0.8492
24881SOL    HW276085   6.401   4.917   9.907 -1.4340  0.4909 -0.4451
24882SOL     OW76086   7.555   0.336   2.607  0.2578  0.1031 -0.4867
24882SOL    HW176087   7.600   0.251   2.606  1.5953  0.7614  0.6441
24882SOL    HW276088   7.523   0.344   2.697 -1.0268  0.2271 -0.9386
24883SOL     OW76089   6.995   7.912   0.307  0.1278  0.7050 -0.5732
24883SOL    HW176090   7.008   7.900   0.213 -1.1253  0.8630 -0.7739
24883SOL    HW276091   6.911   7.956   0.315 -0.1188  0.0515  0.6570
24884SOL     OW76092   7.469   5.361   7.966 -0.1769 -0.1782 -0.0596
24884SOL    HW176093   7.547   5.309   7.946  0.1982  0.8092 -1.2992
24884SOL    HW276094   7.498   5.421   8.035  0.1472  0.1589 -0.4882
24885SOL     OW76095   6.338   5.650   5.791  0.3380 -0.0317 -0.1518
24885SOL    HW176096   6.348   5.566   5.836  1.1819  1.9373  3.7490
24885SOL    HW276097   6.428   5.682   5.780 -0.0093  0.7777 -0.7455
24886SOL     OW76098   1.474   4.522   3.082 -0.0138 -0.0938 -0.4615
24886SOL    HW176099   1.447   4.443   3.036 -0.4511 -1.2146  1.6084
24886SOL    HW276100   1.407   4.536   3.150  0.5095  1.5615 -0.2243
24887SOL     OW76101   2.599   5.600   6.963 -0.2706 -0.7130  0.1949
24887SOL    HW176102   2.571   5.511   6.988  2.5397 -1.9769 -0.7401
24887SOL    HW276103   2.692   5.603   6.987 -0.4448  2.2605  0.7947
24888SOL     OW76104   6.728   1.793  11.807  0.1867  0.0324 -0.2229
24888SOL    HW176105   6.806   1.785  11.863  0.8941  0.8097 -1.0671
24888SOL    HW276106   6.751   1.861  11.744 -1.7842  1.4883  0.5221
24889SOL     OW76107   3.823   3.082  11.227 -0.1204 -0.2759 -0.0192
24889SOL    HW176108   3.771   3.035  11.292 -1.4085  1.2298  0.0925
24889SOL    HW276109   3.913   3.074  11.259 -0.5109 -1.1229  0.9497
24890SOL     OW76110   7.421   7.024   2.218 -0.0337 -0.1896  0.5469
24890SOL    HW176111   7.448   6.956   2.280 -0.9969 -1.4105 -0.3193
24890SOL    HW276112   7.332   6.999   2.193  0.0506  0.7015 -0.7404
24891SOL     OW76113   6.952   2.427   6.008  0.5798  0.2286 -0.2716
24891SOL    HW176114   6.863   2.462   6.012  0.7521  0.7219 -0.6638
24891SOL    HW276115   6.998   2.486   5.949  1.7869  1.3744  1.7204
24892SOL     OW76116   3.963   1.359   8.683 -0.0587  0.0510  0.3584
24892SOL    HW176117   3.923   1.274   8.702  0.3577 -0.1864  0.1729
24892SOL    HW276118   3.996   1.390   8.767 -0.8569  0.3728  0.5683
24893SOL     OW76119   5.580   5.244   3.230  0.7997  0.1545 -0.1551
24893SOL    HW176120   5.499   5.218   3.275  0.9293 -4.6068 -2.0615
24893SOL    HW276121   5.647   5.245   3.298 -0.1958  0.2920  0.8465
24894SOL     OW76122   5.470   1.941  11.496 -1.0255 -0.2319 -0.3076
24894SOL    HW176123   5.456   1.850  11.471 -2.9427  0.0616 -0.4493
24894SOL    HW276124   5.472   1.939  11.592 -1.9348 -0.3386 -0.2813
24895SOL     OW76125   6.993   1.759   6.976  0.3647 -0.7041 -0.2771
24895SOL    HW176126   7.056   1.829   6.958 -0.2436 -0.4626 -1.6375
24895SOL    HW276127   6.970   1.770   7.068 -0.1846  1.3156 -0.6052
24896SOL     OW76128   2.214   7.662   3.119  0.3976  0.1611  0.0376
24896SOL    HW176129   2.238   7.677   3.027 -0.6580 -0.3818 -0.3523
24896SOL    HW276130   2.234   7.744   3.163  2.8537 -0.2186 -0.2261
24897SOL     OW76131   4.619   5.365   0.172  0.2807 -0.6326 -0.2340
24897SOL    HW176132   4.620   5.300   0.242  0.3821 -0.1280  0.2480
24897SOL    HW276133   4.711   5.387   0.158  0.3010 -1.1707 -0.9491
24898SOL     OW76134   7.181   2.354   6.146 -0.2028 -0.3418  0.1627
24898SOL    HW176135   7.107   2.384   6.093  0.7576  0.9861 -0.4690
24898SOL    HW276136   7.194   2.423   6.211  2.0219  0.7147 -1.2870
24899SOL     OW76137   5.596   7.454   6.722  0.6090 -0.1449  0.2189
24899SOL    HW176138   5.558   7.401   6.793 -0.7380 -1.3659 -1.3474
24899SOL    HW276139   5.554   7.540   6.733 -0.2864 -0.5862  0.3640
24900SOL     OW76140   5.241   1.808  11.876 -0.2833 -0.1214 -0.3616
24900SOL    HW176141   5.156   1.831  11.914  1.1892  1.8981  2.0027
24900SOL    HW276142   5.250   1.866  11.800 -0.9117 -0.1552 -0.4636
24901SOL     OW76143   4.770   1.335   9.716  0.5547 -0.1443  0.7133
24901SOL    HW176144   4.734   1.373   9.796  0.0298 -0.0050  0.4099
24901SOL    HW276145   4.781   1.409   9.657  0.4182 -0.3307  0.4551
24902SOL     OW76146   7.808   1.242   0.923  0.0564  0.6429 -0.2600
24902SOL    HW176147   7.847   1.275   0.842 -0.7056  1.3442 -0.3561
24902SOL    HW276148   7.832   1.149   0.924 -2.3060 -0.1529 -2.8164
24903SOL     OW76149   6.217   2.577   7.278 -0.2642  0.3309 -0.7293
24903SOL    HW176150   6.145   2.614   7.227 -1.1915 -1.2740 -0.6525
24903SOL    HW276151   6.208   2.482   7.266  1.3823  0.0689 -0.0924
24904SOL     OW76152   0.124   5.963   0.051  0.2173 -1.0665 -0.5519
24904SOL    HW176153   0.063   5.900   0.013 -0.9007  0.6396 -1.6719
24904SOL    HW276154   0.193   5.972  -0.015  1.1959 -2.1717  0.2520
24905SOL     OW76155   6.742   1.977  11.231  0.2814 -0.1732 -0.3214
24905SOL    HW176156   6.696   2.024  11.301  0.9199  0.1747 -0.1340
24905SOL    HW276157   6.695   1.894  11.224  0.1507 -0.1732  0.4612
24906SOL     OW76158   4.862   5.914  11.772 -0.1168 -0.3708 -0.4876
24906SOL    HW176159   4.941   5.927  11.824 -0.6558 -2.9933  1.1388
24906SOL    HW276160   4.894   5.882  11.688  0.5960 -0.9816 -0.0001
24907SOL     OW76161   0.667   1.950  11.789  0.2982 -0.0711  0.3607
24907SOL    HW176162   0.590   1.928  11.736 -0.3374  3.5543 -0.5442
24907SOL    HW276163   0.631   1.993  11.867  1.2574  2.4330 -0.4638
24908SOL     OW76164   3.971   0.512  11.516  0.4822  0.4175 -0.5599
24908SOL    HW176165   3.935   0.513  11.605 -1.5184 -2.8624 -1.1594
24908SOL    HW276166   4.043   0.448  11.521  0.4174  0.2879 -1.2623
24909SOL     OW76167   5.344   7.768   3.840 -0.6440  0.2327 -0.6049
24909SOL    HW176168   5.355   7.828   3.767 -4.4201  0.1374 -1.4688
24909SOL    HW276169   5.390   7.688   3.812  0.8555  1.2965 -1.2989
24910SOL     OW76170   4.669   4.919  11.758  0.4095 -0.5166  0.6001
24910SOL    HW176171   4.721   4.929  11.838 -0.1234  1.1355  0.7737
24910SOL    HW276172   4.581   4.898  11.789  0.9396 -3.6570  0.2997
24911SOL     OW76173   1.374   1.019  10.497  0.0201  0.2230 -0.0994
24911SOL    HW176174   1.348   0.933  10.529  1.8955 -1.0686 -1.8575
24911SOL    HW276175   1.458   1.036  10.540  0.7952  0.0912 -1.5210
24912SOL     OW76176   2.049   0.650   8.857 -0.3992 -0.2136  0.0465
24912SOL    HW176177   2.057   0.702   8.776 -0.8996 -0.2939 -0.0582
24912SOL    HW276178   1.960   0.667   8.887  0.4232  1.4416  1.7126
24913SOL     OW76179   7.253   6.267   5.032 -0.2651  0.3204 -0.1269
24913SOL    HW176180   7.166   6.270   4.992 -0.5577  2.6674  0.5357
24913SOL    HW276181   7.237   6.234   5.121 -0.7576  2.1161  0.4953
24914SOL     OW76182   0.042   1.532   8.772 -0.6326  0.1832 -0.2139
24914SOL    HW176183   0.010   1.454   8.817 -1.1261  0.3171 -0.3214
24914SOL    HW276184   0.057   1.503   8.682  0.8671 -0.2194  0.1330
24915SOL     OW76185   3.226   3.522   6.040  0.1435 -0.2975 -0.3437
24915SOL    HW176186   3.263   3.585   6.103 -0.3806 -0.0272 -0.2992
24915SOL    HW276187   3.293   3.454   6.032  0.1744 -0.3894  0.5915
24916SOL     OW76188   7.807   5.514   5.392 -0.5206  0.1010 -0.9828
24916SOL    HW176189   7.897   5.537   5.413 -0.8641  1.0037 -0.4289
24916SOL    HW276190   7.770   5.592   5.352 -1.0605 -0.2527 -1.1911
24917SOL     OW76191   1.432   7.824   2.903 -0.2021  0.2386 -0.0185
24917SOL    HW176192   1.478   7.820   2.819 -0.2440  1.6641 -0.1341
24917SOL    HW276193   1.466   7.751   2.953 -1.8407 -2.0982 -2.0831
24918SOL     OW76194   1.106   7.688   9.534 -0.3198 -0.5374 -0.0987
24918SOL    HW176195   1.199   7.702   9.515  0.1057  0.6026  2.4171
24918SOL    HW276196   1.067   7.775   9.529 -0.7500 -0.6407  1.0464
24919SOL     OW76197   2.554   1.305   2.256 -0.0170 -0.1807  0.5454
24919SOL    HW176198   2.592   1.334   2.174  0.7226  0.3068  1.0490
24919SOL    HW276199   2.628   1.296   2.315 -0.6480  0.6152  1.4996
24920SOL     OW76200   6.980   3.425   5.806 -0.1198  0.5034 -0.2857
24920SOL    HW176201   7.066   3.397   5.776 -0.3034 -0.9974  0.4740
24920SOL    HW276202   6.986   3.422   5.901 -1.1381 -0.0875 -0.2250
24921SOL     OW76203   7.339   5.168   9.157 -0.1987 -0.1195 -0.6365
24921SOL    HW176204   7.324   5.223   9.234 -0.3486  0.1760 -0.8748
24921SOL    HW276205   7.251   5.152   9.122 -0.0892  0.2001 -1.0582
24922SOL     OW76206   3.856   6.782   1.966  0.4045  0.2824  0.5180
24922SOL    HW176207   3.787   6.828   1.920 -0.2783 -0.1465  1.0839
24922SOL    HW276208   3.892   6.847   2.027  0.4244  0.4717  0.3054
24923SOL     OW76209   6.048   4.970   0.403  0.0897 -0.3054  0.3474
24923SOL    HW176210   6.048   5.060   0.434  0.8881 -0.2071  0.0883
24923SOL    HW276211   6.028   4.917   0.480  0.2112  0.0589  0.6291
24924SOL     OW76212   6.656   3.809   0.703  0.0918  0.2076 -0.2484
24924SOL    HW176213   6.610   3.859   0.635 -0.0215  1.5711  0.7828
24924SOL    HW276214   6.633   3.718   0.686  0.2612  0.4654 -2.1767
24925SOL     OW76215   1.143   4.624   8.585  0.1335  0.0713 -0.8826
24925SOL    HW176216   1.169   4.550   8.530  1.0185  0.3700 -0.8805
24925SOL    HW276217   1.223   4.674   8.596 -0.2064  0.4155  0.0692
24926SOL     OW76218   7.609   2.289   6.446  0.0606 -0.0866  0.0929
24926SOL    HW176219   7.624   2.383   6.460 -1.6415  0.1223  0.8237
24926SOL    HW276220   7.590   2.282   6.353  2.6487 -0.1293 -0.5112
24927SOL     OW76221   6.847   6.090  10.009 -0.6079 -0.4249  1.0587
24927SOL    HW176222   6.787   6.165  10.014 -0.8519 -0.2665 -2.0438
24927SOL    HW276223   6.868   6.070  10.100 -2.0789  2.1592  2.0903
24928SOL     OW76224   3.967   6.693  10.492 -0.4736 -0.5713  0.0475
24928SOL    HW176225   3.939   6.643  10.415 -0.4516 -0.0084 -0.3276
24928SOL    HW276226   3.918   6.775  10.487  1.8282  0.8198 -1.1022
24929SOL     OW76227   6.012   3.908   7.973 -0.4585 -0.4040  0.6807
24929SOL    HW176228   6.038   3.850   7.902  0.9794  1.0664 -0.0571
24929SOL    HW276229   5.952   3.970   7.932  1.5933  1.4311  0.2712
24930SOL     OW76230   2.137   1.555  12.293  0.2402 -0.1455 -0.3400
24930SOL    HW176231   2.147   1.629  12.233  0.0494 -1.3457 -1.9235
24930SOL    HW276232   2.075   1.586  12.359  0.8792  1.4036 -0.4263
24931SOL     OW76233   4.749   1.458   9.060  0.2890  0.0079  0.3792
24931SOL    HW176234   4.752   1.379   9.114  3.3060 -0.7567 -0.6836
24931SOL    HW276235   4.799   1.523   9.110  0.6019  0.1977 -0.1684
24932SOL     OW76236   3.173   0.936   1.158 -0.3912 -0.1272 -0.1493
24932SOL    HW176237   3.149   0.894   1.075 -0.6325 -0.4644  0.0903
24932SOL    HW276238   3.199   1.025   1.133 -2.6383  0.5376 -0.3502
24933SOL     OW76239   7.848   3.491   7.432 -0.0376  0.0803  0.3960
24933SOL    HW176240   7.822   3.400   7.422 -1.5862  0.5186  0.3074
24933SOL    HW276241   7.783   3.529   7.491 -0.9682  1.7700 -1.5855
24934SOL     OW76242   7.817   5.183  10.706 -0.0171 -0.5957 -0.2380
24934SOL    HW176243   7.836   5.203  10.614  0.1871 -0.1939 -0.1095
24934SOL    HW276244   7.722   5.193  10.713  0.0235 -0.1762 -0.2940
24935SOL     OW76245   2.464   7.270   2.908  0.2142 -0.0209 -0.1529
24935SOL    HW176246   2.429   7.213   2.976 -1.3275  1.4317  0.3337
24935SOL    HW276247   2.484   7.352   2.954  0.5741  0.4867 -1.1870
24936SOL     OW76248   7.572   2.011   3.064 -0.1528 -0.1921  0.3082
24936SOL    HW176249   7.554   1.918   3.072  0.4198 -0.2826  0.5688
24936SOL    HW276250   7.657   2.023   3.105 -1.2134  0.8276  2.3870
24937SOL     OW76251   4.953   5.263   5.778  0.0214 -0.5015  0.4708
24937SOL    HW176252   4.891   5.190   5.770 -1.5913  0.8077  0.5050
24937SOL    HW276253   4.966   5.292   5.687 -2.8313  1.8697  0.6446
24938SOL     OW76254   6.506   5.174   1.359 -0.0921 -0.1347  0.3628
24938SOL    HW176255   6.588   5.167   1.407  0.9592  0.7408 -1.2258
24938SOL    HW276256   6.519   5.121   1.280 -0.8769  0.3632 -0.1229
24939SOL     OW76257   5.457   5.956   1.633  0.3665  0.2912  0.1112
24939SOL    HW176258   5.374   5.926   1.671  1.1901  0.9266  2.5934
24939SOL    HW276259   5.472   6.042   1.672  1.1668  1.1719 -1.9831
24940SOL     OW76260   3.029   7.650  11.293 -0.0869  0.4167  0.0963
24940SOL    HW176261   3.095   7.595  11.251  1.0373  1.2644  0.7001
24940SOL    HW276262   2.946   7.610  11.268  0.6640 -2.0545  1.1934
24941SOL     OW76263   7.866   7.173   2.628  0.1999 -0.9516  0.2887
24941SOL    HW176264   7.952   7.203   2.660 -0.3499  0.3358  0.6063
24941SOL    HW276265   7.880   7.080   2.608  1.4140 -1.0132  1.2600
24942SOL     OW76266   2.811   1.790   5.267 -0.1527 -1.1336  0.0271
24942SOL    HW176267   2.716   1.802   5.276 -0.0346 -0.2877  0.2515
24942SOL    HW276268   2.822   1.752   5.179 -0.5217  1.5543 -1.2966
24943SOL     OW76269   4.484   2.398   8.595 -0.6181  0.6457  0.1052
24943SOL    HW176270   4.475   2.314   8.640  2.8866 -0.0268 -0.1823
24943SOL    HW276271   4.401   2.409   8.549 -1.2583 -2.6601  0.2015
24944SOL     OW76272   6.173   6.413   3.878  0.3958 -0.4093 -0.2980
24944SOL    HW176273   6.100   6.414   3.817  0.3456  0.1096 -0.2320
24944SOL    HW276274   6.239   6.469   3.838  0.0555  0.5759  0.4844
24945SOL     OW76275   7.648   1.475   4.553 -0.0081  0.1709 -0.2938
24945SOL    HW176276   7.616   1.385   4.553  0.0903  0.1253  0.3829
24945SOL    HW276277   7.741   1.467   4.535 -0.3812  0.3192 -2.4674
24946SOL     OW76278   7.547   2.729   6.060 -0.3342  0.0979  0.8766
24946SOL    HW176279   7.522   2.705   5.970  2.0743 -0.6412  0.3328
24946SOL    HW276280   7.579   2.819   6.052  1.9522 -0.6839  0.4772
24947SOL     OW76281   3.640   6.491   9.423  0.0293 -0.3911 -0.8335
24947SOL    HW176282   3.592   6.558   9.471  1.0004  0.4249 -0.9646
24947SOL    HW276283   3.583   6.470   9.349 -0.1247  0.5852 -1.0147
24948SOL     OW76284   0.883   2.312   0.036  0.5416  0.0352  0.0015
24948SOL    HW176285   0.929   2.392   0.062 -2.1286  1.6130  0.2581
24948SOL    HW276286   0.906   2.299  -0.056  0.3489  1.6132 -0.2848
24949SOL     OW76287   5.263   6.859   0.921 -0.3559 -0.3399 -0.0633
24949SOL    HW176288   5.272   6.798   0.848 -0.4710 -1.0821  0.5261
24949SOL    HW276289   5.279   6.806   0.999 -2.2253 -0.0519  0.5862
24950SOL     OW76290   4.328   3.102   6.544  0.4497  0.6358  0.2759
24950SOL    HW176291   4.422   3.109   6.560  0.4667 -0.2316  0.6313
24950SOL    HW276292   4.309   3.009   6.552 -0.3644  0.7411 -0.2560
24951SOL     OW76293   5.718   2.603  11.436  0.3221  0.2202  0.6220
24951SOL    HW176294   5.771   2.672  11.398  3.5780 -1.7128  1.1963
24951SOL    HW276295   5.672   2.564  11.362  0.1677  1.5640 -0.0189
24952SOL     OW76296   0.892   7.584   1.291 -0.1583 -0.5160 -0.4600
24952SOL    HW176297   0.983   7.613   1.296 -0.1045 -0.8790  1.6172
24952SOL    HW276298   0.840   7.659   1.321 -0.1127 -1.8812  3.5090
24953SOL     OW76299   2.274   6.508  10.290  0.4403  0.5183 -0.1821
24953SOL    HW176300   2.309   6.438  10.345  1.5670  0.9657 -0.2983
24953SOL    HW276301   2.201   6.468  10.243 -0.4096  0.0771  1.4673
24954SOL     OW76302   6.808   6.970  10.770  0.3537  0.1943  0.0856
24954SOL    HW176303   6.888   7.021  10.759  0.6102 -0.1871  0.1654
24954SOL    HW276304   6.797   6.962  10.864  0.3919 -0.0222  0.0709
24955SOL     OW76305   7.795   7.655   8.188  0.2243 -0.3364  0.3987
24955SOL    HW176306   7.856   7.636   8.259  0.1611  0.3171  0.6374
24955SOL    HW276307   7.808   7.749   8.170  0.2853 -0.5094 -0.4944
24956SOL     OW76308   3.256   3.190   4.107  0.1804  0.0152 -0.6526
24956SOL    HW176309   3.209   3.248   4.047 -1.0044  0.0374  0.2622
24956SOL    HW276310   3.330   3.243   4.139  0.5060  0.1846 -1.6407
24957SOL     OW76311   2.395   5.858   0.071  0.0838  0.1489 -0.1815
24957SOL    HW176312   2.451   5.904   0.008  0.9989 -1.4052 -0.5631
24957SOL    HW276313   2.383   5.771   0.033  0.2975 -0.6892  1.5624
24958SOL     OW76314   5.272   3.697   2.562  0.1305 -0.1249  0.3728
24958SOL    HW176315   5.304   3.759   2.496 -2.4113 -1.1572 -2.0427
24958SOL    HW276316   5.185   3.730   2.585 -0.5285 -1.7873  0.3955
24959SOL     OW76317   5.561   0.195   1.784 -0.2001 -0.2220  0.3261
24959SOL    HW176318   5.486   0.222   1.731  0.1251  1.6883  0.7780
24959SOL    HW276319   5.539   0.106   1.812 -1.5063 -0.3407 -0.9398
24960SOL     OW76320   2.460   7.710   1.882  0.2103  0.1873 -0.3032
24960SOL    HW176321   2.451   7.699   1.977  0.7082 -2.1487 -0.4692
24960SOL    HW276322   2.381   7.670   1.845  0.0574  1.0065 -0.9102
24961SOL     OW76323   4.842   7.423   7.655 -0.4506 -0.9352 -0.3150
24961SOL    HW176324   4.919   7.386   7.613  0.7948  1.8434 -0.7051
24961SOL    HW276325   4.866   7.429   7.748 -0.8487 -1.5392 -0.1679
24962SOL     OW76326   1.627   0.359   6.134 -0.2415  0.0417  0.0845
24962SOL    HW176327   1.584   0.439   6.167 -0.5941  0.3186 -0.9809
24962SOL    HW276328   1.653   0.311   6.213 -0.5647  0.9225  0.7489
24963SOL     OW76329   6.771   4.372   8.087 -0.3217 -0.3643 -0.2721
24963SOL    HW176330   6.792   4.376   7.993  1.1432 -0.8244  0.0104
24963SOL    HW276331   6.771   4.278   8.106  1.0688 -0.2176  0.5301
24964SOL     OW76332   7.182   2.642   0.641  0.2034 -0.6072  0.5032
24964SOL    HW176333   7.252   2.577   0.651  0.2060 -0.5721  0.7339
24964SOL    HW276334   7.145   2.650   0.729 -0.3077 -0.8703  0.3165
24965SOL     OW76335   1.786   2.961   6.137 -0.5374  0.3204 -0.0607
24965SOL    HW176336   1.796   2.876   6.181 -0.5118 -0.1732 -1.0010
24965SOL    HW276337   1.796   2.941   6.044 -3.3482  0.9029 -0.5584
24966SOL     OW76338   2.114   5.054   2.366  0.1441  0.3589 -0.2923
24966SOL    HW176339   2.068   5.037   2.283  0.7444  0.1820 -0.5966
24966SOL    HW276340   2.198   5.090   2.339 -0.8041  3.2738  0.3185
24967SOL     OW76341   5.363   0.278   7.589  0.0483 -0.2243  0.4273
24967SOL    HW176342   5.364   0.371   7.570  1.6953 -0.2586  0.2111
24967SOL    HW276343   5.356   0.236   7.503 -2.3956 -0.3257  0.6174
24968SOL     OW76344   1.902   6.448   5.141 -0.5460 -0.0346  0.2711
24968SOL    HW176345   1.964   6.426   5.071 -0.8729 -0.7842  0.2116
24968SOL    HW276346   1.831   6.493   5.096 -0.4586  0.0442  0.2110
24969SOL     OW76347   7.449   2.264   5.060  0.1078  0.3616  0.4503
24969SOL    HW176348   7.426   2.336   5.119  1.0931 -0.2724  1.6569
24969SOL    HW276349   7.386   2.195   5.082  0.7790 -0.0472  1.1220
24970SOL     OW76350   0.912   4.119   7.273 -0.1009  0.0297 -0.4735
24970SOL    HW176351   0.984   4.167   7.232  0.1711 -1.1485 -1.4034
24970SOL    HW276352   0.921   4.138   7.367  1.7888 -0.5658 -0.5024
24971SOL     OW76353   6.035   4.771   2.074  0.0214 -0.5603 -0.3018
24971SOL    HW176354   6.070   4.754   2.162 -0.6918 -0.3380  0.0340
24971SOL    HW276355   6.046   4.688   2.028 -1.4072 -1.3021  0.6259
24972SOL     OW76356   0.942   3.523   5.257 -0.0813  0.6826  0.2614
24972SOL    HW176357   0.866   3.545   5.203  0.4499 -0.0916 -0.8433
24972SOL    HW276358   0.920   3.438   5.295  1.4126 -1.1072 -2.5410
24973SOL     OW76359   7.176   7.890   6.023 -0.2170 -0.0626 -0.1460
24973SOL    HW176360   7.147   7.903   6.113 -1.8044 -0.4560 -0.5616
24973SOL    HW276361   7.114   7.940   5.970  1.4544  1.2357 -0.9841
24974SOL     OW76362   6.233   5.129   2.779 -0.2497  0.0009  0.0620
24974SOL    HW176363   6.262   5.105   2.867 -1.0851 -0.8430  0.1199
24974SOL    HW276364   6.252   5.223   2.773 -1.3050  0.3552  1.6063
24975SOL     OW76365   6.851   3.329   8.032 -0.1835  0.5343 -0.5361
24975SOL    HW176366   6.923   3.288   8.081  0.2009  1.0623 -0.6495
24975SOL    HW276367   6.811   3.257   7.984  0.6052  0.3082 -0.8795
24976SOL     OW76368   1.015   1.651   7.091 -0.2102 -0.1904  0.2399
24976SOL    HW176369   1.017   1.555   7.090 -0.4860 -0.1962  0.1354
24976SOL    HW276370   1.020   1.676   6.998  0.7416 -0.0785  0.3040
24977SOL     OW76371   5.413   4.799   8.278 -0.2051  0.2868  0.0282
24977SOL    HW176372   5.466   4.876   8.298  0.5425  0.0191 -0.8435
24977SOL    HW276373   5.476   4.726   8.280 -0.8375 -0.2567  0.5122
24978SOL     OW76374   2.525   5.991   7.001  0.1685  0.1209 -0.2010
24978SOL    HW176375   2.490   6.059   7.057 -0.3290 -0.2458 -0.0588
24978SOL    HW276376   2.493   5.909   7.039 -0.3505 -0.1228 -1.1343
24979SOL     OW76377   5.168   7.922  10.659  0.5231 -0.3990  0.5424
24979SOL    HW176378   5.213   7.857  10.604 -0.0334  0.1815 -0.6370
24979SOL    HW276379   5.229   7.996  10.661 -0.0597  0.1290 -0.5003
24980SOL     OW76380   5.202   5.970   5.308  0.5250 -0.1962 -0.5288
24980SOL    HW176381   5.192   5.875   5.305  0.1341 -0.1243 -1.8864
24980SOL    HW276382   5.281   5.988   5.257  1.2599  0.1391  0.6794
24981SOL     OW76383   3.319   5.907  11.874 -0.1489 -0.1581 -0.7684
24981SOL    HW176384   3.387   5.913  11.807  1.1814  1.1636  0.6290
24981SOL    HW276385   3.237   5.921  11.827  0.7906  1.3392 -2.0281
24982SOL     OW76386   4.688   0.076   6.819  0.1324 -0.0476  0.0441
24982SOL    HW176387   4.754   0.144   6.805  0.8765 -0.5194  1.0952
24982SOL    HW276388   4.679   0.034   6.734  0.3059  0.7969 -0.4040
24983SOL     OW76389   7.264   2.187   0.674 -0.5581  0.5260 -0.0080
24983SOL    HW176390   7.187   2.139   0.706  0.3305 -0.3128  0.9547
24983SOL    HW276391   7.335   2.123   0.679  0.2632  1.3732 -0.6046
24984SOL     OW76392   7.455   7.492   5.282  0.2463 -0.4066 -0.3903
24984SOL    HW176393   7.397   7.568   5.272 -0.7126 -1.2857 -1.7812
24984SOL    HW276394   7.451   7.471   5.375 -2.3699 -0.9572 -0.5543
24985SOL     OW76395   1.589   5.242   2.164  0.2129  0.1400  0.2312
24985SOL    HW176396   1.680   5.242   2.190  0.2683  0.2155  0.0447
24985SOL    HW276397   1.589   5.201   2.077 -0.3035 -2.6026  1.4379
24986SOL     OW76398   7.155   4.504   2.708  0.7333 -0.0564  0.3631
24986SOL    HW176399   7.070   4.549   2.707  1.1970  0.8377 -0.5114
24986SOL    HW276400   7.175   4.494   2.802  0.6214  1.6307  0.5998
24987SOL     OW76401   3.242   6.245   5.833  0.6173 -0.2394  0.5224
24987SOL    HW176402   3.231   6.332   5.794  0.4095 -1.0435 -1.3532
24987SOL    HW276403   3.165   6.233   5.888 -0.0350  0.2767 -0.2468
24988SOL     OW76404   6.976   1.519  10.240  0.2656  0.2960  0.0967
24988SOL    HW176405   6.987   1.430  10.207 -0.1202  0.5190 -0.6635
24988SOL    HW276406   7.046   1.530  10.305  1.4832  0.0461 -1.1081
24989SOL     OW76407   7.247   1.848   9.514 -0.0439  0.3388 -0.7554
24989SOL    HW176408   7.276   1.913   9.578 -2.2755 -0.6340  1.4274
24989SOL    HW276409   7.310   1.776   9.524 -0.5992  0.0081  0.8074
24990SOL     OW76410   1.775   0.624   5.894  0.2549  0.6330  0.0336
24990SOL    HW176411   1.711   0.638   5.824  0.5080  0.9840 -0.1324
24990SOL    HW276412   1.786   0.710   5.934 -0.4867  0.2850  1.0379
24991SOL     OW76413   1.679   5.064   5.418 -0.2288  0.4552  0.3972
24991SOL    HW176414   1.714   5.018   5.494 -1.0217  0.7975  0.9830
24991SOL    HW276415   1.622   5.131   5.455 -2.2749 -0.6791 -0.4962
24992SOL     OW76416   4.139   3.649   1.287  0.3414 -0.1213 -0.0544
24992SOL    HW176417   4.080   3.716   1.253  2.0096  0.2683 -2.4521
24992SOL    HW276418   4.141   3.582   1.220  0.0861 -1.7711  1.5020
24993SOL     OW76419   7.123   3.703   9.862  0.3204  0.1781 -0.1638
24993SOL    HW176420   7.096   3.625   9.912  1.3810 -0.5362 -0.6667
24993SOL    HW276421   7.212   3.720   9.891 -0.2185  1.8012  0.6212
24994SOL     OW76422   7.551   0.028   8.082  0.2509  0.0591  0.5236
24994SOL    HW176423   7.579   0.090   8.014 -1.2309  0.1645 -0.0175
24994SOL    HW276424   7.510  -0.044   8.034 -1.0328  0.2468  1.3041
24995SOL     OW76425   2.545   7.052  10.452  0.2214  0.1688  0.4863
24995SOL    HW176426   2.608   6.980  10.461 -0.0837  0.0613  1.9641
24995SOL    HW276427   2.600   7.131  10.445  0.5611 -0.1866 -1.2890
24996SOL     OW76428   3.085   6.579   5.948 -0.7311 -0.3736  0.9752
24996SOL    HW176429   3.178   6.590   5.969 -0.4258  0.9987 -0.8613
24996SOL    HW276430   3.040   6.633   6.012 -0.0371  1.1642  0.2427
24997SOL     OW76431   2.737   6.594  10.708  0.3162 -0.4782 -0.2808
24997SOL    HW176432   2.797   6.539  10.658  1.3068  1.2002 -1.0082
24997SOL    HW276433   2.794   6.654  10.756 -0.7431  1.2669 -1.0990
24998SOL     OW76434   1.841   2.067   0.764 -0.0265  0.2339  0.0244
24998SOL    HW176435   1.802   2.068   0.677  0.0420 -1.0951 -0.0536
24998SOL    HW276436   1.935   2.062   0.748 -0.0515 -0.9473  0.1340
24999SOL     OW76437   1.593   1.427   3.746 -0.0528  0.2790 -0.3825
24999SOL    HW176438   1.651   1.372   3.799  0.7216  0.0881 -1.3980
24999SOL    HW276439   1.555   1.488   3.808  0.4885 -0.2261  0.4701
25000SOL     OW76440   5.040   0.729  10.804 -0.3972 -0.5260  0.0799
25000SOL    HW176441   5.092   0.710  10.882  1.5863  0.4591 -0.9209
25000SOL    HW276442   5.054   0.654  10.746  1.5438  0.5176 -0.9332
25001SOL     OW76443   6.852   0.956   7.903  0.1257 -0.2194 -0.5744
25001SOL    HW176444   6.855   0.922   7.993  1.2249 -1.2036 -0.9616
25001SOL    HW276445   6.803   0.891   7.854  1.3293 -0.7430 -1.1060
25002SOL     OW76446   7.651   7.314   6.546  0.3096 -0.0918 -0.0852
25002SOL    HW176447   7.689   7.232   6.577  1.6985  0.2616 -0.7685
25002SOL    HW276448   7.615   7.293   6.460  0.4603 -0.0513 -0.1595
25003SOL     OW76449   3.205   3.992  11.148  0.4691  0.1011 -0.5428
25003SOL    HW176450   3.116   3.958  11.136 -0.5142  1.8799  1.1104
25003SOL    HW276451   3.193   4.084  11.171  2.7967  0.5439 -0.7992
25004SOL     OW76452   4.503   1.278   1.374 -0.5701  0.3533  0.6593
25004SOL    HW176453   4.555   1.287   1.453 -0.1230 -0.9962  0.5503
25004SOL    HW276454   4.502   1.366   1.336  1.4059  0.4968  0.8160
25005SOL     OW76455   6.574   6.830  11.403 -0.3669 -0.0333  0.0913
25005SOL    HW176456   6.628   6.761  11.364  0.1527  1.0362 -1.1624
25005SOL    HW276457   6.545   6.883  11.329  0.8731  2.2378  1.1110
25006SOL     OW76458   7.398   0.444  12.164  0.6411  0.3736 -0.0082
25006SOL    HW176459   7.336   0.371  12.170  0.7836  0.0791 -1.5892
25006SOL    HW276460   7.343   0.522  12.163  0.2789  0.1192 -1.2832
25007SOL     OW76461   5.386   3.325   4.175 -0.1652 -0.4877 -0.3362
25007SOL    HW176462   5.312   3.380   4.201  0.5638 -0.2043  1.2312
25007SOL    HW276463   5.439   3.381   4.119 -0.8007 -0.4880 -0.9501
25008SOL     OW76464   1.419   3.494   3.037 -0.0233 -0.1997  0.7015
25008SOL    HW176465   1.453   3.489   2.947 -0.0860  0.8749  0.5978
25008SOL    HW276466   1.480   3.552   3.082 -1.1141  0.9216  0.7888
25009SOL     OW76467   4.808   7.759   4.224 -0.6759  0.1678  0.0744
25009SOL    HW176468   4.738   7.699   4.251 -1.2660  0.5699 -0.5328
25009SOL    HW276469   4.857   7.778   4.304 -0.7840 -0.7317  0.3620
25010SOL     OW76470   1.027   5.062   5.680 -0.1424  0.2844 -0.0863
25010SOL    HW176471   1.097   5.026   5.734 -0.1901  0.7676  0.3134
25010SOL    HW276472   1.020   5.003   5.606  0.4803  0.0618  0.0271
25011SOL     OW76473   7.814   5.157   0.029  0.0492  0.1518  0.2411
25011SOL    HW176474   7.743   5.093   0.023  1.5935 -1.6590  0.2707
25011SOL    HW276475   7.861   5.149  -0.053  1.1773  0.1047  0.8666
25012SOL     OW76476   6.405   3.935  10.293  0.0116  0.2057  0.3102
25012SOL    HW176477   6.329   3.889  10.257 -0.4616  0.6980  0.6688
25012SOL    HW276478   6.458   3.866  10.333  0.8992 -0.4630 -1.8701
25013SOL     OW76479   5.988   4.290   0.264 -0.1866 -0.1736 -0.1077
25013SOL    HW176480   5.975   4.339   0.182  0.3510 -0.0062 -0.0916
25013SOL    HW276481   5.905   4.301   0.311 -0.5713 -0.4201 -0.7056
25014SOL     OW76482   4.421   0.963   4.340  0.2017 -0.1496  0.5913
25014SOL    HW176483   4.419   1.000   4.428 -0.6895  1.0892  0.0677
25014SOL    HW276484   4.462   1.030   4.286  0.9524 -0.9913  0.0749
25015SOL     OW76485   2.093   0.842   0.090  0.0876  0.2647  0.4910
25015SOL    HW176486   2.008   0.863   0.127 -1.0059  0.5341 -1.9665
25015SOL    HW276487   2.089   0.748   0.073  0.4073  0.2212  0.6524
25016SOL     OW76488   5.851   0.946   4.841 -0.1143  0.4393  0.0630
25016SOL    HW176489   5.765   0.910   4.817 -0.0884  0.4133  0.0088
25016SOL    HW276490   5.899   0.949   4.758  0.4164 -0.8128  0.3071
25017SOL     OW76491   1.306   5.277  12.403  0.0346  0.6568 -0.1189
25017SOL    HW176492   1.379   5.337  12.384 -0.5686  1.5299  0.2386
25017SOL    HW276493   1.298   5.224  12.324  0.8288  0.7883 -0.3043
25018SOL     OW76494   1.741   5.656  12.393  0.0809  0.2371 -0.0238
25018SOL    HW176495   1.809   5.702  12.443 -0.4848 -0.0579  1.0569
25018SOL    HW276496   1.734   5.705  12.311  1.2065  0.5961  0.0722
25019SOL     OW76497   1.337   7.472   5.270 -0.0209 -0.4932  0.0033
25019SOL    HW176498   1.374   7.452   5.355 -0.7106 -2.1697 -0.0409
25019SOL    HW276499   1.404   7.524   5.225  1.7916 -2.4004  0.3486
25020SOL     OW76500   4.081   1.917   6.017  0.8648  0.1298 -0.0641
25020SOL    HW176501   4.072   1.822   6.025 -0.4282  0.2554  0.2019
25020SOL    HW276502   3.999   1.951   6.052  1.2927  1.3456 -0.2251
25021SOL     OW76503   5.813   3.388   2.561 -0.4370  0.2243 -0.6979
25021SOL    HW176504   5.764   3.347   2.490 -0.0055 -0.8755 -0.3850
25021SOL    HW276505   5.832   3.477   2.529 -0.7872 -0.0432 -1.6954
25022SOL     OW76506   4.269   3.007  12.088  0.1738  0.2106  0.1864
25022SOL    HW176507   4.357   2.984  12.120 -0.2068 -0.4514  0.7777
25022SOL    HW276508   4.269   2.981  11.996  0.7561  0.6700  0.0487
25023SOL     OW76509   1.288   1.823  10.186 -0.0966 -0.3015 -0.1519
25023SOL    HW176510   1.229   1.814  10.110  2.1426 -0.7322 -1.9610
25023SOL    HW276511   1.362   1.766  10.165  0.8443 -0.0127  2.1574
25024SOL     OW76512   2.433   3.955  10.171  0.5145  0.2041 -0.5156
25024SOL    HW176513   2.515   3.966  10.122  0.9533  0.7109  0.3088
25024SOL    HW276514   2.460   3.916  10.254 -0.2079 -0.5254 -0.6104
25025SOL     OW76515   5.716   4.336  11.796 -0.3494 -0.4469 -0.2821
25025SOL    HW176516   5.797   4.288  11.816  2.0312  3.7546  1.4132
25025SOL    HW276517   5.711   4.335  11.700  1.3881 -1.3313 -0.4021
25026SOL     OW76518   1.794   7.669   3.039  0.1264  0.4486 -0.2234
25026SOL    HW176519   1.716   7.614   3.035  0.7347 -0.4028 -0.9081
25026SOL    HW276520   1.794   7.717   2.955  1.4678 -1.1953 -1.2212
25027SOL     OW76521   0.011   4.158   6.854 -0.0995 -0.3777  0.2099
25027SOL    HW176522  -0.026   4.238   6.817 -0.7783  0.0455  1.7319
25027SOL    HW276523  -0.065   4.107   6.882  0.3770 -0.4124  1.5171
25028SOL     OW76524   6.376   5.879   0.879 -0.0083  0.1213  0.1503
25028SOL    HW176525   6.438   5.947   0.853  0.4363 -0.2287  0.2798
25028SOL    HW276526   6.361   5.895   0.972  0.4428 -0.2250  0.2854
25029SOL     OW76527   5.700   6.521   0.199 -0.5155 -0.2002  0.1615
25029SOL    HW176528   5.632   6.462   0.167  0.2579 -0.7778 -0.4415
25029SOL    HW276529   5.754   6.466   0.256  0.1099 -0.0448 -0.2702
25030SOL     OW76530   7.267   2.919  11.167  0.5246 -0.3748 -0.3471
25030SOL    HW176531   7.244   3.011  11.157 -2.3756 -0.9291  0.2432
25030SOL    HW276532   7.287   2.889  11.079 -0.6503  0.3372 -0.8742
25031SOL     OW76533   6.993   3.990   3.333 -0.0975  0.3787 -0.6079
25031SOL    HW176534   6.968   3.932   3.405  1.1791  0.6025  0.0577
25031SOL    HW276535   6.950   4.073   3.352 -2.4354 -0.4376 -1.8860
25032SOL     OW76536   1.799   3.065  12.198  0.1036 -0.1517 -0.0110
25032SOL    HW176537   1.742   3.020  12.260  1.6495 -0.6036  1.1444
25032SOL    HW276538   1.849   3.127  12.252  1.7929 -0.8523 -0.6837
25033SOL     OW76539   1.650   3.386   6.083  0.3375 -0.2035 -0.2531
25033SOL    HW176540   1.599   3.466   6.097 -0.3149 -0.6165 -0.2788
25033SOL    HW276541   1.695   3.371   6.166  0.2349  0.0245 -0.1547
25034SOL     OW76542   4.322   7.421   9.076  0.0162  0.2477  0.7016
25034SOL    HW176543   4.361   7.488   9.021  0.1160 -0.7324 -0.4521
25034SOL    HW276544   4.234   7.408   9.041  0.8144 -1.9316 -0.7227
25035SOL     OW76545   7.754   7.121   0.580  0.7451  0.1364  0.2057
25035SOL    HW176546   7.782   7.035   0.549  1.6875  0.5696 -0.1646
25035SOL    HW276547   7.822   7.181   0.550  0.3933  0.9310  0.9705
25036SOL     OW76548   6.902   3.930   1.860 -0.6771 -0.0922 -0.6215
25036SOL    HW176549   6.844   3.951   1.787 -0.4291 -0.7820 -1.0225
25036SOL    HW276550   6.956   4.008   1.871 -1.2476  0.3153 -0.6536
25037SOL     OW76551   6.623   0.590   4.030  0.2022  0.0876  0.1358
25037SOL    HW176552   6.688   0.589   3.960  0.1789 -2.5973  0.0398
25037SOL    HW276553   6.548   0.543   3.994 -0.0928 -0.6923  1.6756
25038SOL     OW76554   1.733   2.055   0.502  0.1339  0.0804  0.2219
25038SOL    HW176555   1.666   2.085   0.440  0.6651  0.9763  0.0677
25038SOL    HW276556   1.807   2.029   0.448  0.1002 -0.4236  0.4172
25039SOL     OW76557   6.610   0.539   6.808 -0.0039  0.1432  0.5273
25039SOL    HW176558   6.600   0.445   6.791 -1.8473  0.3622  0.1454
25039SOL    HW276559   6.568   0.581   6.732 -1.8083  1.2101  2.0338
25040SOL     OW76560   3.481   1.573   9.202 -0.0193  0.0225  0.2505
25040SOL    HW176561   3.539   1.595   9.274  0.1560  0.0174  0.1108
25040SOL    HW276562   3.393   1.593   9.235  0.0494 -0.1046  0.5098
25041SOL     OW76563   4.941   2.171  10.356  0.2915  0.5478 -0.8639
25041SOL    HW176564   4.953   2.206  10.268 -1.9067 -0.6985 -1.7411
25041SOL    HW276565   4.975   2.081  10.351 -0.1148  0.3703 -0.5388
25042SOL     OW76566   3.407   1.849   1.666 -0.0563  0.0507  0.3796
25042SOL    HW176567   3.496   1.844   1.701 -0.2262 -0.4920  0.7521
25042SOL    HW276568   3.394   1.765   1.623 -0.0579  0.4923 -0.5033
25043SOL     OW76569   3.305   0.330   0.460 -0.4279 -0.6719 -0.3727
25043SOL    HW176570   3.268   0.285   0.536  1.4136 -0.5464  0.6479
25043SOL    HW276571   3.381   0.377   0.494 -0.0234  0.0548 -2.1550
25044SOL     OW76572   6.557   0.553   7.591  0.1773  0.3956 -0.0696
25044SOL    HW176573   6.627   0.555   7.526 -1.2334  2.2753 -1.6499
25044SOL    HW276574   6.587   0.611   7.661  0.8683 -0.0956  0.0483
25045SOL     OW76575   7.085   2.935   0.968  0.3637  0.5272  0.0493
25045SOL    HW176576   7.041   3.013   0.936  1.1390  0.5568 -0.9925
25045SOL    HW276577   7.153   2.967   1.028  0.1410  0.5959  0.2641
25046SOL     OW76578   4.958   0.449   6.899  0.2069 -0.7882  0.2596
25046SOL    HW176579   5.051   0.446   6.921 -0.2006 -2.0193  2.0068
25046SOL    HW276580   4.946   0.536   6.860  2.0072 -0.4578  0.3513
25047SOL     OW76581   0.022   1.381   7.770  0.1491 -0.0218 -0.0258
25047SOL    HW176582   0.088   1.414   7.832  0.0004  0.5195 -0.1459
25047SOL    HW276583  -0.031   1.320   7.822  0.7401 -0.4579  0.0720
25048SOL     OW76584   5.040   3.950   9.593 -0.4412 -0.3801  0.2259
25048SOL    HW176585   5.025   3.856   9.608 -1.7449 -0.4234 -1.1398
25048SOL    HW276586   5.107   3.953   9.526  0.7365 -0.2793  1.3681
25049SOL     OW76587   6.291   7.504   2.431  0.1764  0.0391  0.8229
25049SOL    HW176588   6.306   7.495   2.525  0.4963 -2.0116  0.6277
25049SOL    HW276589   6.198   7.484   2.419  0.7351 -2.6399  0.4507
25050SOL     OW76590   3.563   4.494  10.477 -0.0916 -0.1061 -0.4048
25050SOL    HW176591   3.472   4.465  10.469  0.4043 -2.2137  0.9654
25050SOL    HW276592   3.610   4.447  10.408  0.1927 -0.0934 -0.2237
25051SOL     OW76593   2.222   3.527   7.554  0.2040 -0.3670  0.1005
25051SOL    HW176594   2.252   3.477   7.478  0.1578 -1.9265  1.0564
25051SOL    HW276595   2.301   3.538   7.608  0.0379 -0.1470  0.3017
25052SOL     OW76596   2.937   4.464   9.936  0.1548  0.0041 -0.2894
25052SOL    HW176597   2.982   4.462  10.021 -1.0908 -0.7148  0.3764
25052SOL    HW276598   3.008   4.461   9.872  1.0768 -0.9596  0.7216
25053SOL     OW76599   7.816   7.944   8.157  0.1177  0.1864  0.8283
25053SOL    HW176600   7.832   7.940   8.252  0.1593  0.7100  0.8463
25053SOL    HW276601   7.736   7.995   8.149 -0.9687 -1.4534  0.6780
25054SOL     OW76602   7.689   5.476  10.075  0.3500 -0.3039  0.5145
25054SOL    HW176603   7.637   5.407  10.115  1.4676  0.3335  3.3061
25054SOL    HW276604   7.780   5.448  10.085  0.7314  0.1330 -1.2583
25055SOL     OW76605   3.981   0.718  11.034  0.2261  0.5790  0.0327
25055SOL    HW176606   4.073   0.713  11.009  0.4280  0.2704  0.8243
25055SOL    HW276607   3.940   0.642  10.991  0.2502  0.9419 -0.6496
25056SOL     OW76608   5.330   5.279   6.069 -0.4918  0.5674 -0.2267
25056SOL    HW176609   5.423   5.260   6.052  0.3238  3.1730  0.8742
25056SOL    HW276610   5.330   5.325   6.153 -2.5068  2.5986 -1.2482
25057SOL     OW76611   5.684   1.720   2.904 -0.0736 -0.5804 -0.5121
25057SOL    HW176612   5.667   1.749   2.994 -0.6419 -0.2920 -0.7091
25057SOL    HW276613   5.777   1.738   2.890  0.1439 -1.1351  0.2060
25058SOL     OW76614   6.412   1.516   9.584  0.1483  0.0758 -0.2725
25058SOL    HW176615   6.384   1.456   9.654  0.9608 -0.5717 -0.4934
25058SOL    HW276616   6.330   1.550   9.548 -0.3868 -1.6349 -0.7821
25059SOL     OW76617   2.629   2.280   2.210 -0.1511 -0.5885  0.0025
25059SOL    HW176618   2.674   2.228   2.144  0.7888 -1.7609  1.4991
25059SOL    HW276619   2.537   2.277   2.185  0.2975 -0.1682 -1.7805
25060SOL     OW76620   6.058   2.377   8.950  0.3704 -0.4411  0.1027
25060SOL    HW176621   6.128   2.443   8.958 -0.3042  0.2903  0.0595
25060SOL    HW276622   6.077   2.333   8.867  0.7053 -0.1534  0.0204
25061SOL     OW76623   5.625   3.764   5.721 -0.3003 -0.5816 -0.0733
25061SOL    HW176624   5.711   3.804   5.707 -0.6931  0.6119  0.7175
25061SOL    HW276625   5.626   3.739   5.814 -1.3819  0.9907  0.4055
25062SOL     OW76626   2.204   3.554   1.705 -0.5814  0.1049 -0.6995
25062SOL    HW176627   2.289   3.596   1.719  0.4867 -1.7487 -1.1692
25062SOL    HW276628   2.188   3.506   1.786 -1.3049  0.6308 -0.5282
25063SOL     OW76629   2.256   4.033   6.353 -0.2741  0.4950  0.2994
25063SOL    HW176630   2.254   4.128   6.347  0.5920  0.4627 -0.6503
25063SOL    HW276631   2.310   4.005   6.280 -2.2895 -0.8669 -0.7641
25064SOL     OW76632   2.083   2.060   1.298 -0.0905  0.4074  0.2294
25064SOL    HW176633   2.178   2.066   1.311 -0.1898 -0.6763  1.7649
25064SOL    HW276634   2.058   2.144   1.260  1.3434  1.1062  0.7650
25065SOL     OW76635   7.486   7.684   5.987  0.1650  0.5341 -0.1978
25065SOL    HW176636   7.418   7.720   5.930 -1.1294 -1.5598 -0.0502
25065SOL    HW276637   7.524   7.612   5.937 -0.0389 -0.4467  1.0160
25066SOL     OW76638   5.305   0.679   6.670 -0.0518 -0.1626  0.0591
25066SOL    HW176639   5.227   0.734   6.669 -1.4577 -2.0635 -1.2431
25066SOL    HW276640   5.368   0.728   6.723 -0.8298  3.1899 -1.7825
25067SOL     OW76641   0.373   2.551   0.709  0.1694 -0.4037  0.2153
25067SOL    HW176642   0.385   2.457   0.715  2.4183 -0.2800 -0.9956
25067SOL    HW276643   0.323   2.564   0.629 -1.1990 -0.5932  1.0186
25068SOL     OW76644   1.909   6.745   7.279  0.6297  0.0570 -0.1369
25068SOL    HW176645   1.913   6.652   7.303  1.0167  0.0737 -0.1358
25068SOL    HW276646   1.818   6.769   7.296  0.0167 -0.7911 -1.9264
25069SOL     OW76647   3.500   2.003   1.305 -0.0350 -0.0530 -0.0527
25069SOL    HW176648   3.551   2.067   1.355 -1.8620  1.0459  0.5109
25069SOL    HW276649   3.524   2.019   1.214  0.3251  0.7229  0.1673
25070SOL     OW76650   6.614   2.495   6.494  0.1588  0.0928  0.2276
25070SOL    HW176651   6.701   2.492   6.455  0.6359  1.4145  1.1221
25070SOL    HW276652   6.621   2.443   6.574  0.0275 -0.0542  0.1459
25071SOL     OW76653   6.935   6.925   1.968  0.5743  0.1348  0.1949
25071SOL    HW176654   6.890   6.887   2.044  2.5533  0.0712  1.3824
25071SOL    HW276655   6.892   7.009   1.954 -0.5894 -0.3612  0.6206
25072SOL     OW76656   2.856   6.451   6.043 -0.5635  0.2841 -0.2826
25072SOL    HW176657   2.913   6.507   5.991 -0.1318 -0.0177 -0.1361
25072SOL    HW276658   2.770   6.494   6.038  0.0904  1.8847  1.2063
25073SOL     OW76659   0.278   0.141   2.011 -0.6923  0.3406  0.1048
25073SOL    HW176660   0.301   0.127   1.919  1.0217 -0.0386  0.5484
25073SOL    HW276661   0.193   0.183   2.008 -0.3548  1.0107 -1.6857
25074SOL     OW76662   2.759   6.792   5.717  0.2634 -0.5118  0.7213
25074SOL    HW176663   2.850   6.813   5.738  0.2467 -0.4987  0.7824
25074SOL    HW276664   2.764   6.735   5.640  0.2146  1.3857 -0.7529
25075SOL     OW76665   7.023   0.907   4.768  0.5860  0.2563 -0.2008
25075SOL    HW176666   6.950   0.914   4.829  0.6649 -0.2650 -0.0393
25075SOL    HW276667   6.982   0.899   4.682  0.4823  1.4627 -0.2720
25076SOL     OW76668   7.168   0.030   4.956  0.0490  0.2754 -0.2065
25076SOL    HW176669   7.103  -0.005   4.895 -2.3788  1.2986  1.6168
25076SOL    HW276670   7.238  -0.035   4.957 -0.8368 -0.8096 -2.3828
25077SOL     OW76671   6.366   7.581   4.168  0.4075 -0.6239  0.4705
25077SOL    HW176672   6.273   7.562   4.179 -0.3087  1.1164 -1.8097
25077SOL    HW276673   6.395   7.609   4.255 -0.5666 -3.2769  1.7651
25078SOL     OW76674   4.347   2.822  11.905 -0.6181  0.3647 -0.2226
25078SOL    HW176675   4.377   2.871  11.828  0.6918  0.0643  0.0795
25078SOL    HW276676   4.417   2.758  11.922 -2.4417 -1.9518 -0.8657
25079SOL     OW76677   3.530   5.222  10.342  0.3454  0.2761  0.8742
25079SOL    HW176678   3.508   5.276  10.265 -0.5082  0.1029  0.9886
25079SOL    HW276679   3.558   5.138  10.305  1.9674  0.8635  0.6821
25080SOL     OW76680   4.897   7.290   1.403 -0.3253 -0.4414 -0.1808
25080SOL    HW176681   4.812   7.261   1.370 -1.1048 -0.4667  1.7466
25080SOL    HW276682   4.894   7.386   1.395 -1.1513 -0.3289  1.2303
25081SOL     OW76683   4.183   7.363   8.447 -0.0536  0.3572 -0.0804
25081SOL    HW176684   4.234   7.294   8.405 -1.6986 -1.3724  0.6159
25081SOL    HW276685   4.196   7.349   8.540 -0.9366  0.5769  0.0818
25082SOL     OW76686   7.465   6.999   1.574 -0.8165  0.5958 -0.0346
25082SOL    HW176687   7.546   6.949   1.584 -1.5088 -0.4599  0.5085
25082SOL    HW276688   7.488   7.087   1.604  0.5169  0.7267 -1.3214
25083SOL     OW76689   0.513   4.302   2.045 -0.0558  0.0594 -0.0993
25083SOL    HW176690   0.498   4.326   1.954 -0.5523 -1.3924 -0.4273
25083SOL    HW276691   0.587   4.355   2.072 -1.5619  2.5056 -0.5131
25084SOL     OW76692   0.512   4.119   3.685 -0.5915  0.7120 -0.0999
25084SOL    HW176693   0.495   4.049   3.748 -0.0979  2.3779  1.9801
25084SOL    HW276694   0.425   4.150   3.659 -0.8377 -1.0095 -1.5377
25085SOL     OW76695   4.343   0.094   3.703  0.2387  0.5798  0.0804
25085SOL    HW176696   4.364   0.132   3.788 -2.3413  0.6447  0.7838
25085SOL    HW276697   4.247   0.088   3.702  0.2517 -0.7207 -2.2701
25086SOL     OW76698   7.298   0.279   6.892 -0.4174 -0.2990 -0.3524
25086SOL    HW176699   7.382   0.314   6.921 -0.8900  0.0817  0.6104
25086SOL    HW276700   7.282   0.322   6.807  0.5279 -0.6747 -0.7355
25087SOL     OW76701   1.642   7.276   7.916  0.0548  0.1952  0.1390
25087SOL    HW176702   1.675   7.354   7.962  0.3503 -0.5767  1.2755
25087SOL    HW276703   1.557   7.303   7.880 -0.5992  0.5714  1.9008
25088SOL     OW76704   2.479   2.487   4.644 -0.2214 -0.3454  0.1829
25088SOL    HW176705   2.436   2.507   4.561  1.6604  0.8507 -0.5709
25088SOL    HW276706   2.421   2.524   4.711 -1.5889 -1.0276 -0.5756
25089SOL     OW76707   2.427   7.301   0.892  0.2340 -0.0268 -0.3708
25089SOL    HW176708   2.336   7.277   0.876  0.6645 -1.9526 -0.0754
25089SOL    HW276709   2.435   7.303   0.987  0.6458 -0.3982 -0.3983
25090SOL     OW76710   6.189   6.861   5.569  0.4905  0.1200  0.5680
25090SOL    HW176711   6.261   6.815   5.526  0.3458 -0.1318  0.5925
25090SOL    HW276712   6.124   6.793   5.586 -0.0014  0.4488  0.0235
25091SOL     OW76713   4.776   6.189  10.419  0.3204  0.7624 -0.8184
25091SOL    HW176714   4.818   6.234  10.492 -0.4794  0.7466 -0.3297
25091SOL    HW276715   4.811   6.100  10.421 -0.5295  0.4291  0.2697
25092SOL     OW76716   6.198   4.729  11.929 -0.7382  0.4644  0.1661
25092SOL    HW176717   6.241   4.766  11.853 -0.4986  0.7214  0.4239
25092SOL    HW276718   6.189   4.802  11.991  0.6356 -0.0935  1.0744
25093SOL     OW76719   3.778   3.472   7.014 -0.3617  0.1031 -0.0279
25093SOL    HW176720   3.768   3.391   7.065  1.8031  1.2807  2.4923
25093SOL    HW276721   3.689   3.499   6.994 -1.1765 -2.2599  0.0532
25094SOL     OW76722   2.002   2.365  11.612  0.2383 -0.5425  0.4891
25094SOL    HW176723   2.048   2.283  11.592 -1.3368 -1.9129  2.1405
25094SOL    HW276724   2.049   2.431  11.562  0.3184 -2.7120 -2.6278
25095SOL     OW76725   7.755   0.719   8.747 -0.4284 -0.3009  0.0057
25095SOL    HW176726   7.670   0.746   8.713 -0.0645  0.5225 -0.2659
25095SOL    HW276727   7.811   0.796   8.738  0.2560 -0.7203  0.5109
25096SOL     OW76728   1.437   4.487   3.567 -0.6180 -0.0177  0.4039
25096SOL    HW176729   1.378   4.470   3.493  1.1987 -1.2908 -0.8353
25096SOL    HW276730   1.480   4.570   3.544 -0.8389  0.1520  0.5919
25097SOL     OW76731   1.374   1.124   2.616 -0.0506 -0.0055 -0.2252
25097SOL    HW176732   1.302   1.063   2.598 -0.9060  0.5922  0.9542
25097SOL    HW276733   1.370   1.188   2.545 -0.8083  0.1052 -0.0976
25098SOL     OW76734   4.675   1.422  12.015  0.1021  0.0994  0.3442
25098SOL    HW176735   4.581   1.439  12.018  0.2083  1.1132 -0.7840
25098SOL    HW276736   4.711   1.475  12.086 -0.0430  0.9688 -0.2145
25099SOL     OW76737   5.464   2.563   3.183 -0.4863 -0.2505 -0.6909
25099SOL    HW176738   5.426   2.588   3.099  1.1313  1.5642 -0.9497
25099SOL    HW276739   5.542   2.617   3.191 -0.9265  0.1253  2.2760
25100SOL     OW76740   7.181   6.791   9.471 -0.1443 -0.4025  0.4131
25100SOL    HW176741   7.158   6.752   9.386  2.1580 -0.5171 -0.2143
25100SOL    HW276742   7.116   6.756   9.531 -2.0465 -0.0797 -1.3319
25101SOL     OW76743   1.520   5.365   1.317  0.4227 -0.0147  0.2860
25101SOL    HW176744   1.522   5.307   1.241 -1.0122 -0.0525  0.2360
25101SOL    HW276745   1.605   5.353   1.359  0.1915 -2.1666  0.2723
25102SOL     OW76746   3.881   6.879   6.493  0.0922  0.2948  0.1429
25102SOL    HW176747   3.791   6.905   6.513 -0.6825 -0.2644 -2.2793
25102SOL    HW276748   3.920   6.955   6.450  0.3517  0.0902  0.0100
25103SOL     OW76749   2.713   5.231   8.044 -0.3690 -0.5163  0.0847
25103SOL    HW176750   2.805   5.211   8.028 -0.4012 -0.7326  0.1685
25103SOL    HW276751   2.702   5.320   8.010  0.0578 -0.1829  0.7855
25104SOL     OW76752   1.308   1.334   0.230 -0.5149 -0.2514  0.4892
25104SOL    HW176753   1.365   1.409   0.246  0.3947 -0.9551  0.6420
25104SOL    HW276754   1.224   1.372   0.203  0.1502  0.7895 -0.1396
25105SOL     OW76755   2.169   6.891   3.674  0.0056  0.0184 -0.5693
25105SOL    HW176756   2.154   6.813   3.727 -1.3767  0.5262 -0.1899
25105SOL    HW276757   2.088   6.942   3.681  1.7810  2.8633  1.4667
25106SOL     OW76758   2.709   5.754   4.978 -0.0170 -0.6093 -0.5009
25106SOL    HW176759   2.728   5.667   4.943  2.2532 -0.5595  0.4826
25106SOL    HW276760   2.730   5.748   5.071 -1.6223  0.5048 -0.0273
25107SOL     OW76761   3.375   0.789   9.768 -0.2171 -0.0752 -0.0609
25107SOL    HW176762   3.401   0.873   9.806 -1.9458  0.3742  0.1790
25107SOL    HW276763   3.388   0.726   9.839  0.7845  0.0190 -0.1444
25108SOL     OW76764   6.713   6.868   1.673  0.2452  0.1042  0.2719
25108SOL    HW176765   6.729   6.899   1.762 -1.4705 -1.1316  1.0772
25108SOL    HW276766   6.686   6.946   1.625 -0.0057  0.5784  1.1657
25109SOL     OW76767   4.366   3.696   2.761 -0.4360  0.1640 -0.2094
25109SOL    HW176768   4.450   3.736   2.783  0.9644 -0.9692 -2.9251
25109SOL    HW276769   4.364   3.615   2.811  0.2136  0.0942 -0.2886
25110SOL     OW76770   1.285   1.860   6.029 -0.3448 -0.2583  0.0387
25110SOL    HW176771   1.225   1.847   5.956 -0.3502 -1.0382  0.1730
25110SOL    HW276772   1.330   1.776   6.039  1.0157  0.4056 -0.2711
25111SOL     OW76773   2.408   2.471   0.665  0.1665 -0.4173  0.3014
25111SOL    HW176774   2.498   2.498   0.683  0.5251 -1.0283 -0.5083
25111SOL    HW276775   2.365   2.551   0.633  1.1108 -0.6660 -1.7025
25112SOL     OW76776   5.504   5.300   9.339  0.0579 -0.4062 -0.0043
25112SOL    HW176777   5.526   5.237   9.407 -1.1877 -1.1341 -0.2494
25112SOL    HW276778   5.440   5.358   9.380 -0.4909 -0.6822 -0.4638
25113SOL     OW76779   1.184   5.341   8.193  0.1262 -0.2084  0.4410
25113SOL    HW176780   1.100   5.297   8.210  0.5786 -0.3252  2.6555
25113SOL    HW276781   1.212   5.373   8.279  1.4348  1.5331 -0.5733
25114SOL     OW76782   0.082   5.572   6.186 -0.3556 -0.1853  0.6084
25114SOL    HW176783   0.121   5.657   6.167 -0.3026 -0.3741 -0.1674
25114SOL    HW276784   0.136   5.535   6.256  0.1571  0.0445  0.3375
25115SOL     OW76785   0.361   6.082   3.154  0.2802  0.8871  0.2763
25115SOL    HW176786   0.327   6.135   3.226 -0.8069 -0.2657  0.6413
25115SOL    HW276787   0.426   6.024   3.195 -1.1888 -0.5976  0.6015
25116SOL     OW76788   0.227   7.565   6.097  0.0588 -0.6614 -0.2545
25116SOL    HW176789   0.246   7.486   6.148  0.7426 -1.2566 -1.3833
25116SOL    HW276790   0.178   7.534   6.022  0.4319 -0.0354 -0.7699
25117SOL     OW76791   6.431   0.085   3.729 -0.0050 -0.0644  0.6498
25117SOL    HW176792   6.373   0.138   3.783 -1.0372 -1.9450  1.4829
25117SOL    HW276793   6.384   0.075   3.646 -0.6168 -1.0915  1.1116
25118SOL     OW76794   1.947   0.384   1.211  0.9177 -0.5101  0.2508
25118SOL    HW176795   1.963   0.433   1.131 -0.5779  0.1816  0.3446
25118SOL    HW276796   1.974   0.294   1.191 -1.0786 -0.7540 -1.6454
25119SOL     OW76797   4.427   7.462   2.560  0.1867  0.4464 -0.1532
25119SOL    HW176798   4.438   7.428   2.649 -2.3135  2.4706  1.0393
25119SOL    HW276799   4.396   7.388   2.509  0.7562 -0.5135  0.8585
25120SOL     OW76800   0.353   0.582   4.023  0.1439 -0.0060  0.0065
25120SOL    HW176801   0.331   0.589   3.930  1.1115 -0.2147 -0.2473
25120SOL    HW276802   0.290   0.639   4.067 -0.5114 -0.1334 -0.7447
25121SOL     OW76803   1.229   5.838   3.466 -0.0359 -0.5902 -0.0241
25121SOL    HW176804   1.193   5.922   3.496 -0.2817 -0.3865 -0.8724
25121SOL    HW276805   1.204   5.832   3.374  0.9314 -1.0889 -0.2710
25122SOL     OW76806   3.319   0.374  11.176  0.2863 -0.0115  0.2118
25122SOL    HW176807   3.362   0.373  11.262 -1.2799  2.8582  1.1960
25122SOL    HW276808   3.232   0.338  11.193 -0.3126  1.3108  0.0649
25123SOL     OW76809   0.445   6.504   7.028 -0.1662 -0.0145  0.0838
25123SOL    HW176810   0.424   6.499   7.122  0.2357 -0.9533  0.1333
25123SOL    HW276811   0.536   6.531   7.025 -0.0422 -0.4383 -0.0219
25124SOL     OW76812   2.873   6.531   0.382  0.1475  0.3858  0.1718
25124SOL    HW176813   2.922   6.588   0.323  0.2353 -0.3916 -0.5239
25124SOL    HW276814   2.933   6.459   0.400 -0.2857  0.0592  0.3230
25125SOL     OW76815   7.098   1.548   7.357 -0.8918 -0.2927  0.0908
25125SOL    HW176816   7.127   1.581   7.443  0.6037 -1.0410 -0.0928
25125SOL    HW276817   7.178   1.543   7.305 -1.2765 -2.7114 -0.3743
25126SOL     OW76818   6.791   3.514  10.441 -0.3331  0.2277 -0.1204
25126SOL    HW176819   6.803   3.591  10.384  3.0776 -0.4199 -0.4889
25126SOL    HW276820   6.790   3.551  10.529 -0.3420  0.8339 -0.3632
25127SOL     OW76821   2.330   5.515   0.257  0.4173  0.1547  0.2900
25127SOL    HW176822   2.393   5.586   0.243  0.1377  0.5305  0.9200
25127SOL    HW276823   2.384   5.437   0.270  0.7182  0.0672 -1.2955
25128SOL     OW76824   2.291   3.314   0.500  0.4976  0.3253 -0.0260
25128SOL    HW176825   2.266   3.224   0.519 -1.2344  0.4562 -1.4306
25128SOL    HW276826   2.372   3.306   0.449  0.5704 -0.4032  0.1911
25129SOL     OW76827   5.716   0.834  12.082  0.6027 -0.3135 -0.2057
25129SOL    HW176828   5.756   0.852  11.997  1.3187  1.3813  0.4685
25129SOL    HW276829   5.782   0.858  12.146 -0.4047 -0.3342  0.8733
25130SOL     OW76830   6.097   6.907   8.970 -0.1609 -0.0162  0.3549
25130SOL    HW176831   6.095   6.886   8.876  2.0748  1.2590 -0.0480
25130SOL    HW276832   6.150   6.838   9.009  1.2862  0.9323  0.1637
25131SOL     OW76833   7.381   2.261  12.160  0.2419 -0.5304  0.1328
25131SOL    HW176834   7.373   2.180  12.212  0.0341 -0.6724 -0.1179
25131SOL    HW276835   7.301   2.263  12.107  1.4880 -1.5877 -1.9001
25132SOL     OW76836   4.640   0.901   6.647  0.0998 -0.1115 -0.5101
25132SOL    HW176837   4.560   0.954   6.649  0.0952 -0.1327  0.1226
25132SOL    HW276838   4.669   0.899   6.738  1.1615  0.4015 -0.8234
25133SOL     OW76839   7.160   6.577  12.117 -0.0496 -0.3716 -0.1696
25133SOL    HW176840   7.092   6.636  12.084  0.2570 -1.0547 -2.1222
25133SOL    HW276841   7.121   6.535  12.194 -0.1312  2.6292  1.6022
25134SOL     OW76842   3.399   2.005   6.132  0.9658  0.3173  0.3804
25134SOL    HW176843   3.405   2.038   6.042 -1.3008 -0.8856 -0.2972
25134SOL    HW276844   3.486   1.973   6.152  1.4726  0.4047 -1.4846
25135SOL     OW76845   5.999   5.681   4.697  0.6193  0.3767 -0.6372
25135SOL    HW176846   5.966   5.616   4.759 -0.6253  2.5844  1.1631
25135SOL    HW276847   5.947   5.667   4.618 -0.9427  0.3382  0.3487
25136SOL     OW76848   0.978   5.157   7.411 -0.2599  0.0256  0.6580
25136SOL    HW176849   0.963   5.113   7.327  0.9138 -1.7951  1.3300
25136SOL    HW276850   0.891   5.183   7.441 -0.8089 -0.2578 -0.6199
25137SOL     OW76851   0.232   4.636   4.755 -0.3988 -0.3337 -0.5204
25137SOL    HW176852   0.211   4.644   4.662 -0.1607 -0.1908 -0.5605
25137SOL    HW276853   0.176   4.564   4.786  0.1197 -0.9268 -0.9476
25138SOL     OW76854   7.616   5.879   3.126  0.1012  0.1920  0.0101
25138SOL    HW176855   7.682   5.946   3.111  0.8891 -0.5824 -0.0927
25138SOL    HW276856   7.533   5.919   3.099  0.4646  1.3276  0.5492
25139SOL     OW76857   3.599   5.838   5.983  0.2946  0.4705  0.0375
25139SOL    HW176858   3.512   5.873   6.000  0.1653 -0.0454  0.4893
25139SOL    HW276859   3.659   5.906   6.014  0.0669  1.1463 -0.9604
25140SOL     OW76860   2.510   0.757  10.519  0.6485  0.0297  0.1285
25140SOL    HW176861   2.557   0.720  10.444  0.4313  0.4055 -0.1980
25140SOL    HW276862   2.562   0.833  10.545 -0.2432  0.9878 -0.8089
25141SOL     OW76863   6.296   5.027   7.783  0.2655  0.5591  0.2419
25141SOL    HW176864   6.258   5.073   7.858  0.5873  0.2375  0.6102
25141SOL    HW276865   6.382   5.068   7.771  0.0473  0.8909 -0.2196
25142SOL     OW76866   6.514   6.789  11.740 -0.0287 -0.1415 -0.8407
25142SOL    HW176867   6.574   6.740  11.683  0.9508 -1.1300  0.9217
25142SOL    HW276868   6.566   6.862  11.772  0.7218 -1.5748  1.5175
25143SOL     OW76869   1.879   3.728   1.626  0.3711  0.1215 -0.1947
25143SOL    HW176870   1.929   3.803   1.594  1.6711 -1.2534 -1.5193
25143SOL    HW276871   1.918   3.653   1.583 -0.6898 -1.3795  1.3343
25144SOL     OW76872   6.957   3.148   2.276  0.1393  0.0772 -0.7814
25144SOL    HW176873   6.936   3.234   2.241 -0.1641  0.0808 -0.5874
25144SOL    HW276874   7.015   3.165   2.350 -2.2782  0.3324  1.1984
25145SOL     OW76875   3.520   0.255   8.867  0.2246  0.1844 -0.3648
25145SOL    HW176876   3.429   0.271   8.890  0.5914  1.8653  0.0652
25145SOL    HW276877   3.543   0.328   8.809  0.7399 -1.2938 -2.1172
25146SOL     OW76878   7.884   6.585   2.025  0.8576  0.2872  0.0197
25146SOL    HW176879   7.906   6.500   2.062  1.4340  1.3991  2.4275
25146SOL    HW276880   7.944   6.597   1.952  1.9313 -0.6442  0.7353
25147SOL     OW76881   1.001   0.136   6.197  0.2588 -0.3103 -0.1821
25147SOL    HW176882   0.994   0.086   6.278  0.7756 -0.5978 -0.3082
25147SOL    HW276883   0.984   0.227   6.223 -2.8945 -0.7605 -0.3203
25148SOL     OW76884   4.977   5.900   9.349  0.1102 -0.1032  0.2770
25148SOL    HW176885   4.931   5.841   9.409  1.0122 -0.8444  0.2668
25148SOL    HW276886   4.911   5.924   9.284 -0.4187 -0.6828  0.5854
25149SOL     OW76887   6.004   3.894   3.317  0.4974 -0.1219  0.3040
25149SOL    HW176888   5.948   3.899   3.395  0.7461 -0.8011  0.5356
25149SOL    HW276889   5.966   3.957   3.256 -1.3977 -1.5813 -0.1036
25150SOL     OW76890   2.339   5.219   0.944 -0.1162  0.4503 -0.5436
25150SOL    HW176891   2.420   5.242   0.991 -0.3000  1.8772 -0.8577
25150SOL    HW276892   2.270   5.229   1.010 -0.1894  0.7712 -0.6642
25151SOL     OW76893   1.399   4.086   3.553  0.0243 -0.5500 -0.1677
25151SOL    HW176894   1.377   4.109   3.643  1.3182 -1.5344  0.4235
25151SOL    HW276895   1.443   4.164   3.518 -3.3680  1.1321 -1.1016
25152SOL     OW76896   0.727   1.330   3.611  0.3555 -0.0958  0.6181
25152SOL    HW176897   0.701   1.412   3.569  2.2425  0.8383  1.1689
25152SOL    HW276898   0.724   1.265   3.541  1.2566  0.9684 -0.4327
25153SOL     OW76899   0.679   1.016   2.755  0.0748  0.3865  0.2647
25153SOL    HW176900   0.624   0.978   2.687  0.5604  0.1504  0.0025
25153SOL    HW276901   0.765   1.026   2.714  0.0676  1.3669  0.4628
25154SOL     OW76902   3.920   4.291   9.158  0.2050 -0.5365 -0.2368
25154SOL    HW176903   3.946   4.241   9.235  1.1121  0.1842 -0.0433
25154SOL    HW276904   3.881   4.371   9.194  1.8820  0.4384 -0.4670
25155SOL     OW76905   2.081   4.931   0.142  0.0795  1.0420 -0.2480
25155SOL    HW176906   2.034   4.960   0.064 -0.2036  0.1121 -0.4358
25155SOL    HW276907   2.172   4.955   0.125  0.0167  0.8751 -0.8592
25156SOL     OW76908   7.131   4.965   7.739 -0.1550 -0.1096  1.1257
25156SOL    HW176909   7.152   4.883   7.783 -0.8454 -0.4765  0.7999
25156SOL    HW276910   7.212   5.016   7.743 -0.0607 -0.3265  2.3573
25157SOL     OW76911   5.381   0.838   9.923  0.1805  0.1291  0.4713
25157SOL    HW176912   5.300   0.881   9.897  0.3678  1.1180  1.4559
25157SOL    HW276913   5.383   0.846  10.018  0.3189 -1.9321  0.6924
25158SOL     OW76914   6.001   2.640  11.770 -0.3129  0.1179 -0.1425
25158SOL    HW176915   6.020   2.606  11.857 -1.3371  0.0259  0.0551
25158SOL    HW276916   5.924   2.591  11.741 -0.7410  1.0159 -0.5776
25159SOL     OW76917   5.968   4.683   8.709  0.3393  0.1243 -0.5963
25159SOL    HW176918   5.973   4.649   8.619 -1.6112  1.5142 -1.3116
25159SOL    HW276919   6.004   4.772   8.702  2.2666 -0.5291  0.5184
25160SOL     OW76920   4.794   6.970   6.116  0.0330  0.1957  0.8460
25160SOL    HW176921   4.792   6.890   6.168 -0.5424 -1.3810 -1.4044
25160SOL    HW276922   4.881   6.970   6.076 -0.3458  0.0687 -0.0044
25161SOL     OW76923   2.879   1.866   8.385 -0.0522 -0.3564 -0.3732
25161SOL    HW176924   2.914   1.955   8.381  0.7667 -0.6487  0.0731
25161SOL    HW276925   2.956   1.809   8.385 -0.5668 -1.0691 -0.6820
25162SOL     OW76926   6.684   2.269   9.447  0.2710  0.1671  0.3282
25162SOL    HW176927   6.757   2.282   9.507 -0.1697  2.2060  0.4978
25162SOL    HW276928   6.689   2.344   9.387 -2.2200  0.9098  0.9499
25163SOL     OW76929   5.447   3.684  11.820 -0.0465 -0.7258  0.4390
25163SOL    HW176930   5.462   3.622  11.891  1.1470 -1.1752 -0.1685
25163SOL    HW276931   5.528   3.735  11.815 -0.2215 -0.5112 -0.4188
25164SOL     OW76932   0.521   5.670   5.368 -0.3047 -0.2184  0.4132
25164SOL    HW176933   0.590   5.641   5.428 -0.7819 -0.8962  0.6493
25164SOL    HW276934   0.565   5.677   5.283  0.4316  0.9754  0.8589
25165SOL     OW76935   1.788   3.237   7.309 -0.1678  0.3236 -0.3451
25165SOL    HW176936   1.779   3.148   7.343  1.3490 -0.8285 -2.6868
25165SOL    HW276937   1.875   3.265   7.335 -0.3660  0.8484 -0.2264
25166SOL     OW76938   2.360   4.725  11.750  0.4836 -0.2588  0.2394
25166SOL    HW176939   2.340   4.633  11.732 -0.1224 -0.1780  0.4879
25166SOL    HW276940   2.276   4.764  11.773  0.4062  0.7494 -1.5425
25167SOL     OW76941   0.354   3.709   2.671 -0.1012  0.1068 -0.2776
25167SOL    HW176942   0.324   3.800   2.671  1.4145  0.6455  0.7702
25167SOL    HW276943   0.428   3.708   2.731  0.5673 -1.6190 -1.0615
25168SOL     OW76944   2.033   4.345   9.275 -0.1342  0.1872 -0.0536
25168SOL    HW176945   2.010   4.295   9.353 -0.9991 -0.5372 -0.7616
25168SOL    HW276946   1.974   4.313   9.207  0.5781  0.8390 -1.0029
25169SOL     OW76947   7.943   1.793  11.460  0.6753  0.0124  0.0928
25169SOL    HW176948   7.893   1.850  11.401 -2.5139 -0.8952  1.6431
25169SOL    HW276949   8.029   1.834  11.466 -0.5282  3.0116 -1.1174
25170SOL     OW76950   4.360   1.056   3.060  0.2470  0.0285 -0.0262
25170SOL    HW176951   4.360   1.054   2.964 -0.8406  1.6489 -0.1046
25170SOL    HW276952   4.285   1.002   3.084 -0.3794  0.8050 -0.1757
25171SOL     OW76953   0.784   4.586  12.313 -0.5039  0.5044  0.5234
25171SOL    HW176954   0.753   4.676  12.326 -0.4164  0.3696  1.8457
25171SOL    HW276955   0.838   4.568  12.390  0.9437 -0.0884 -0.5780
25172SOL     OW76956   5.542   2.255   7.596  0.2357 -0.4958 -0.5537
25172SOL    HW176957   5.532   2.279   7.688  0.2502  0.2338 -0.7366
25172SOL    HW276958   5.579   2.333   7.555 -0.4345 -0.5722 -1.3168
25173SOL     OW76959   4.457   0.534   2.343 -0.3008  0.5404  0.2299
25173SOL    HW176960   4.463   0.445   2.378  0.6745  0.8972  1.0178
25173SOL    HW276961   4.490   0.527   2.254  0.1527  0.1756  0.4217
25174SOL     OW76962   7.766   6.237   5.923 -0.0126  0.1982  0.4215
25174SOL    HW176963   7.689   6.231   5.867  1.1441 -1.5350 -1.1232
25174SOL    HW276964   7.766   6.155   5.973  0.9547  0.0512  0.2043
25175SOL     OW76965   0.148   4.990   2.571  0.0088  0.3240  0.5340
25175SOL    HW176966   0.240   4.965   2.566 -0.3873 -1.0894 -0.3086
25175SOL    HW276967   0.106   4.941   2.500 -1.2071  1.8485  0.1408
25176SOL     OW76968   0.080   3.486   7.575  0.1339  0.5419 -0.2195
25176SOL    HW176969   0.004   3.482   7.517  0.5543  1.2077 -0.8318
25176SOL    HW276970   0.152   3.448   7.524  0.3953  0.6762  0.0463
25177SOL     OW76971   4.246   3.306   5.400  0.6577 -0.4473 -0.1020
25177SOL    HW176972   4.313   3.315   5.469 -0.9053 -2.0663  1.7488
25177SOL    HW276973   4.186   3.379   5.415 -0.0608 -1.1916  0.7484
25178SOL     OW76974   4.916   6.154   0.519  0.0766  1.1731  0.2683
25178SOL    HW176975   4.840   6.096   0.521 -1.3851  3.0228  1.5837
25178SOL    HW276976   4.950   6.151   0.609  2.1376 -0.2492 -0.4700
25179SOL     OW76977   6.762   7.727  12.047  0.0554  0.1541  0.4907
25179SOL    HW176978   6.747   7.795  12.113 -2.2155 -0.4529  0.6964
25179SOL    HW276979   6.812   7.660  12.093  0.0517  0.5327  1.0575
25180SOL     OW76980   0.061   2.899   6.483 -0.2028 -0.6287  0.6627
25180SOL    HW176981   0.071   2.951   6.563 -2.2229  0.9008  0.0262
25180SOL    HW276982  -0.028   2.865   6.488 -0.3308 -0.5890 -0.8828
25181SOL     OW76983   5.060   2.778   4.797 -0.2663 -0.1751  0.5619
25181SOL    HW176984   5.102   2.803   4.714 -2.6263  0.5463 -0.5007
25181SOL    HW276985   5.043   2.861   4.841 -3.2758 -0.1322 -0.4863
25182SOL     OW76986   7.851   1.070   7.401 -0.0045  0.4648 -0.1910
25182SOL    HW176987   7.874   0.998   7.343 -0.9377  0.0901 -0.1030
25182SOL    HW276988   7.800   1.130   7.346 -1.5020 -0.2310  0.3846
25183SOL     OW76989   1.582   3.589   8.484 -0.1035 -0.4771 -0.2859
25183SOL    HW176990   1.603   3.552   8.569 -1.1777  0.0096  0.2051
25183SOL    HW276991   1.492   3.564   8.468  0.0606 -0.4928 -1.2470
25184SOL     OW76992   3.218   5.475  11.726 -0.7763 -0.4175  0.5172
25184SOL    HW176993   3.236   5.391  11.768 -2.4177 -0.7803  0.5781
25184SOL    HW276994   3.190   5.532  11.797 -0.1542  0.0441  0.4010
25185SOL     OW76995   7.219   7.558   8.456 -0.1093  0.1833  0.1910
25185SOL    HW176996   7.240   7.619   8.385  1.2799  0.9121  1.1781
25185SOL    HW276997   7.155   7.605   8.509 -1.6206 -0.6069 -0.8707
25186SOL     OW76998   7.518   2.957   0.327 -0.2628 -0.4118 -0.1369
25186SOL    HW176999   7.602   2.947   0.282  0.0400 -3.4926  0.9062
25186SOL    HW277000   7.475   3.029   0.281  2.3236  0.2891 -1.6500
25187SOL     OW77001   3.227   5.904   3.402  0.1764 -0.4431 -0.2456
25187SOL    HW177002   3.273   5.832   3.358  0.5017 -0.0777 -0.5080
25187SOL    HW277003   3.135   5.893   3.376  0.3332 -0.3622 -0.8370
25188SOL     OW77004   6.598   7.243   6.413 -0.4508 -0.4961  0.1605
25188SOL    HW177005   6.608   7.295   6.334 -0.8371  0.0139  0.4437
25188SOL    HW277006   6.660   7.171   6.402  1.1051  0.7493  0.3639
25189SOL     OW77007   2.457   3.058   5.389 -0.0567  0.2588 -0.4008
25189SOL    HW177008   2.478   3.134   5.334  0.3086 -0.7252 -1.6634
25189SOL    HW277009   2.487   3.084   5.476 -0.4370  1.7694 -0.6816
25190SOL     OW77010   0.507   7.936   8.817  0.1454 -0.0690  0.4562
25190SOL    HW177011   0.526   8.018   8.862 -0.9708  0.1961  0.4843
25190SOL    HW277012   0.574   7.875   8.848 -0.2150  0.2814  1.9916
25191SOL     OW77013   5.439   3.908   8.519  0.1994  0.2211 -0.3208
25191SOL    HW177014   5.398   3.890   8.434 -0.2877  0.2811 -0.0982
25191SOL    HW277015   5.377   3.965   8.564  0.1014 -0.4386  0.3833
25192SOL     OW77016   4.674   6.761  11.680  0.1616 -0.3574 -0.0642
25192SOL    HW177017   4.616   6.836  11.666 -0.0919 -0.6223 -0.4498
25192SOL    HW277018   4.717   6.749  11.596  1.5659  0.4849  0.5025
25193SOL     OW77019   4.935   1.397  12.226 -0.3955  0.0439 -0.1553
25193SOL    HW177020   4.999   1.440  12.282  0.7201 -1.2045 -0.4214
25193SOL    HW277021   4.870   1.362  12.287 -0.5569  0.8517  0.1533
25194SOL     OW77022   7.387   1.287  10.134  0.0749  0.6923 -0.2821
25194SOL    HW177023   7.406   1.221  10.068  0.0395  0.7178 -0.3181
25194SOL    HW277024   7.471   1.331  10.148  0.2358  0.2545  0.1695
25195SOL     OW77025   6.309   7.115   6.180  0.1106 -0.3948 -0.4729
25195SOL    HW177026   6.391   7.164   6.187  0.3140 -0.6638 -0.9092
25195SOL    HW277027   6.312   7.076   6.092 -0.7072 -0.0060 -0.6819
25196SOL     OW77028   0.100   7.679   3.189  0.2066  0.3515 -0.4144
25196SOL    HW177029   0.022   7.691   3.244  0.6285 -0.2730  0.3406
25196SOL    HW277030   0.080   7.602   3.136  0.7871 -0.6235  0.7076
25197SOL     OW77031   2.534   0.855   7.608  0.3886  0.0132 -0.4839
25197SOL    HW177032   2.462   0.803   7.570 -0.2992  1.3997 -1.1560
25197SOL    HW277033   2.543   0.929   7.548 -0.9879  2.5256  2.1679
25198SOL     OW77034   6.686   0.886   4.798  0.2910 -0.6348 -0.0869
25198SOL    HW177035   6.684   0.938   4.878 -0.3719 -0.8676  0.0552
25198SOL    HW277036   6.613   0.824   4.808 -0.2421 -0.2157 -1.1695
25199SOL     OW77037   2.979   4.095   8.288  0.0585  0.4856 -0.1702
25199SOL    HW177038   2.949   4.184   8.268 -0.1877  0.9444  1.9638
25199SOL    HW277039   2.944   4.041   8.218  0.9481  2.1665 -2.0224
25200SOL     OW77040   6.181   3.356   3.709 -0.3452  0.3431 -0.0173
25200SOL    HW177041   6.250   3.406   3.752 -0.8055  0.9092  0.0740
25200SOL    HW277042   6.118   3.335   3.779  0.3536 -1.3063  0.1733
25201SOL     OW77043   6.944   4.835  12.014 -0.7709  0.3223 -0.8530
25201SOL    HW177044   6.904   4.855  11.930 -0.2447  3.2328 -0.5186
25201SOL    HW277045   6.901   4.893  12.076 -0.0501 -0.6265  0.6054
25202SOL     OW77046   6.214   0.773  10.673  0.2650  0.1516 -0.3067
25202SOL    HW177047   6.303   0.764  10.708  1.0761  1.5030 -1.8699
25202SOL    HW277048   6.162   0.804  10.748  1.8426  2.5407 -0.0764
25203SOL     OW77049   1.482   5.706   3.990  0.1805 -0.2454 -0.1397
25203SOL    HW177050   1.433   5.772   3.941 -0.1140  0.1756  0.6884
25203SOL    HW277051   1.426   5.685   4.065  1.2921  0.3657  0.9155
25204SOL     OW77052   4.121   6.309   3.042 -0.1613  0.0427  0.2598
25204SOL    HW177053   4.181   6.239   3.014 -0.4193  0.1591 -0.6198
25204SOL    HW277054   4.139   6.320   3.136  1.3324  0.2022 -0.0127
25205SOL     OW77055   6.002   6.421   6.089  0.0227 -0.3244  0.3870
25205SOL    HW177056   6.082   6.369   6.076 -0.9656 -1.3255 -2.5923
25205SOL    HW277057   6.033   6.512   6.094  1.4092 -0.7440 -0.0190
25206SOL     OW77058   5.633   4.085   9.693  0.3053  0.3151 -0.2818
25206SOL    HW177059   5.701   4.108   9.757 -0.3477  0.6365  0.3111
25206SOL    HW277060   5.632   3.989   9.693 -0.5528  0.3016  1.1476
25207SOL     OW77061   5.637   5.589   8.750  0.5348 -0.4991 -0.3128
25207SOL    HW177062   5.693   5.663   8.775 -1.3021  1.0765 -0.6718
25207SOL    HW277063   5.675   5.556   8.669  1.6406 -0.2709  0.0961
25208SOL     OW77064   1.649   5.677   3.291 -0.0281  0.1594 -0.2292
25208SOL    HW177065   1.567   5.686   3.341 -1.4033 -1.9093 -1.9528
25208SOL    HW277066   1.710   5.639   3.354 -1.1230 -0.5212  0.4714
25209SOL     OW77067   2.940   0.934   7.042  0.1816 -0.9139  0.7090
25209SOL    HW177068   2.901   0.940   7.130 -0.7356 -1.2895  0.3340
25209SOL    HW277069   2.990   0.852   7.045  0.9434 -0.4454  1.1812
25210SOL     OW77070   7.968   0.404  11.391  0.0134 -0.3454 -0.9921
25210SOL    HW177071   7.924   0.403  11.306 -0.5316 -0.8180 -0.7092
25210SOL    HW277072   7.898   0.417  11.455  0.2726 -1.1637 -0.5294
25211SOL     OW77073   5.263   4.568   8.704 -0.5605 -0.3668 -0.0669
25211SOL    HW177074   5.185   4.514   8.713 -2.2628  1.8284 -0.5573
25211SOL    HW277075   5.241   4.630   8.634  1.4793  0.5972  0.0643
25212SOL     OW77076   5.224   0.791  10.358 -0.1243 -0.3494 -0.3209
25212SOL    HW177077   5.262   0.811  10.444 -0.8578 -0.0684 -0.0563
25212SOL    HW277078   5.132   0.814  10.367 -0.5216 -1.6884 -0.7239
25213SOL     OW77079   3.980   1.454   6.801  0.2321  0.2057 -0.7981
25213SOL    HW177080   3.942   1.381   6.850 -0.1311  0.2015 -1.0837
25213SOL    HW277081   3.997   1.418   6.714  0.4804  0.3338 -0.8050
25214SOL     OW77082   7.062   5.099   3.897 -0.2514  0.0602  0.3734
25214SOL    HW177083   7.075   5.005   3.914 -1.2102 -0.1440  0.0388
25214SOL    HW277084   7.092   5.111   3.807  1.7082  0.4831  1.0411
25215SOL     OW77085   7.944   7.539  10.289 -0.1512  0.0480 -0.2166
25215SOL    HW177086   8.001   7.465  10.312 -0.7524 -0.0222  1.1264
25215SOL    HW277087   8.002   7.602  10.247  0.7026 -0.4796  0.1442
25216SOL     OW77088   5.828   3.476   6.378  0.7330  0.2644  0.0266
25216SOL    HW177089   5.850   3.386   6.356 -0.9526  0.0879 -1.1669
25216SOL    HW277090   5.815   3.475   6.473  0.2486 -0.8764 -0.0336
25217SOL     OW77091   7.599   6.734   3.419  0.0120  0.3077 -0.2084
25217SOL    HW177092   7.550   6.732   3.338  0.0656 -0.0674 -0.2357
25217SOL    HW277093   7.658   6.809   3.410 -0.8926  1.0628  0.0336
25218SOL     OW77094   0.662   3.500  11.959 -0.3895 -0.2586  0.0401
25218SOL    HW177095   0.743   3.509  11.910 -0.0144 -0.7084  0.5635
25218SOL    HW277096   0.665   3.412  11.995 -1.2258 -0.3659 -0.1295
25219SOL     OW77097   7.212   4.058   2.021  0.2294 -0.1948 -0.5118
25219SOL    HW177098   7.288   4.048   2.079  1.5718  0.2132 -2.0993
25219SOL    HW277099   7.229   3.996   1.949 -0.3992  0.6688 -1.4350
25220SOL     OW77100   0.706   0.728   5.046  0.0084  0.1973  0.1315
25220SOL    HW177101   0.752   0.669   5.106 -1.8661 -0.4477  1.0142
25220SOL    HW277102   0.676   0.672   4.975 -2.9112 -0.3479  1.6048
25221SOL     OW77103   4.405   6.290   3.851  0.3337 -0.4595 -0.2586
25221SOL    HW177104   4.435   6.213   3.802  2.7866  0.1403  0.1654
25221SOL    HW277105   4.400   6.360   3.786  2.7926  0.1298  0.0558
25222SOL     OW77106   4.033   5.566   5.003 -0.2079 -0.2708  0.3248
25222SOL    HW177107   3.972   5.545   5.073 -0.3577 -0.1533  0.2299
25222SOL    HW277108   4.087   5.487   4.993  1.8802  0.7394  2.6852
25223SOL     OW77109   3.954   2.187   6.813 -0.0497  0.3497  0.1927
25223SOL    HW177110   4.043   2.215   6.835  0.3182 -0.2696 -0.4485
25223SOL    HW277111   3.904   2.197   6.894  1.0985 -1.3022  1.1802
25224SOL     OW77112   2.560   6.522   7.608 -0.3514 -0.5948  0.8313
25224SOL    HW177113   2.487   6.533   7.668  0.8938  1.9479  2.0477
25224SOL    HW277114   2.619   6.461   7.652  1.0589  2.0418  2.9210
25225SOL     OW77115   2.998   6.876   1.382 -0.0907  0.8610  0.2783
25225SOL    HW177116   3.082   6.873   1.427  0.0424 -1.9658  0.0351
25225SOL    HW277117   2.943   6.813   1.429 -0.8469 -0.0940 -1.7557
25226SOL     OW77118   0.440   7.168   9.100 -0.1029  0.5935  0.0228
25226SOL    HW177119   0.397   7.210   9.175 -2.1702 -0.8485 -0.2475
25226SOL    HW277120   0.435   7.233   9.030 -1.4834  0.6743  0.1566
25227SOL     OW77121   5.192   1.894   7.769 -0.3166  0.2092  0.4693
25227SOL    HW177122   5.282   1.927   7.765  0.1678 -1.0416  0.7145
25227SOL    HW277123   5.141   1.966   7.806  0.5079  1.0661 -0.0301
25228SOL     OW77124   0.576   7.904   0.287  0.5253 -0.1671 -0.0418
25228SOL    HW177125   0.661   7.879   0.250 -0.0041  0.8196 -2.0849
25228SOL    HW277126   0.512   7.865   0.228 -0.4871 -1.0438  1.5693
25229SOL     OW77127   1.800   6.871   8.663 -0.0316  0.6233  0.5893
25229SOL    HW177128   1.799   6.939   8.731 -0.6721  0.9153  0.2982
25229SOL    HW277129   1.757   6.912   8.588 -0.4062 -0.1069  0.4040
25230SOL     OW77130   1.610   0.313   4.300 -0.2118 -0.1729  0.7239
25230SOL    HW177131   1.691   0.321   4.352 -1.5153 -0.2056  2.8944
25230SOL    HW277132   1.567   0.236   4.336 -1.0532 -0.3810 -0.6750
25231SOL     OW77133   2.979   0.096   4.477  0.0578  0.8565  0.0498
25231SOL    HW177134   3.005   0.006   4.497 -0.9755  0.3055 -0.9353
25231SOL    HW277135   3.053   0.133   4.430  0.4933  0.5311  0.4656
25232SOL     OW77136   4.695   0.740   5.156  0.4188  0.3616 -0.5327
25232SOL    HW177137   4.736   0.673   5.212 -0.4995  0.1237 -0.1284
25232SOL    HW277138   4.655   0.801   5.218 -3.9735 -1.9019 -0.7238
25233SOL     OW77139   1.841   5.694   9.453 -0.3065 -0.2534  0.2294
25233SOL    HW177140   1.775   5.695   9.522 -0.6834 -2.4301 -0.0514
25233SOL    HW277141   1.916   5.648   9.492  0.0681 -0.1139 -0.3127
25234SOL     OW77142   2.223   4.699   6.104  0.7965  0.2469 -0.5856
25234SOL    HW177143   2.175   4.635   6.051  0.8079  0.3518 -0.7254
25234SOL    HW277144   2.283   4.647   6.157 -1.3413 -0.1501  1.6354
25235SOL     OW77145   3.971   5.513   2.448  0.6381  0.1473  0.3750
25235SOL    HW177146   3.936   5.426   2.463  2.2949 -0.6957 -0.3936
25235SOL    HW277147   3.998   5.513   2.356  2.0023  0.9566  0.7368
25236SOL     OW77148   4.950   0.849   3.960 -0.1816 -0.7672 -0.3934
25236SOL    HW177149   4.925   0.864   3.869 -0.5387 -2.4920 -0.6297
25236SOL    HW277150   5.001   0.925   3.985 -0.1197 -0.2461 -2.0280
25237SOL     OW77151   6.271   6.242   3.563 -0.1632  0.0386 -0.4687
25237SOL    HW177152   6.221   6.204   3.635  1.6120 -0.8160  0.3721
25237SOL    HW277153   6.241   6.194   3.485 -0.4745 -0.6262  0.0473
25238SOL     OW77154   7.789   7.526  12.455  0.7450 -0.6343 -0.1501
25238SOL    HW177155   7.802   7.578  12.534 -0.7654 -1.6237  0.8007
25238SOL    HW277156   7.829   7.441  12.476  1.1233 -0.6158 -0.7893
25239SOL     OW77157   4.603   0.653  12.166 -0.1572  0.3619  0.4368
25239SOL    HW177158   4.680   0.642  12.111 -0.4838  0.3855 -0.0327
25239SOL    HW277159   4.628   0.615  12.250 -0.3589 -1.6547 -0.3368
25240SOL     OW77160   1.399   7.349  11.979 -0.7511 -0.1356 -0.2157
25240SOL    HW177161   1.365   7.266  12.011 -0.0759  0.4694  2.2316
25240SOL    HW277162   1.326   7.410  11.988 -0.2469  0.2820  1.3300
25241SOL     OW77163   2.459   0.710   2.099  0.3400 -0.2535  0.1006
25241SOL    HW177164   2.371   0.720   2.134 -1.1958  0.2343 -3.4513
25241SOL    HW277165   2.489   0.800   2.084  0.7528 -0.4436 -0.2343
25242SOL     OW77166   2.234   6.165  12.032  0.0431  0.3669 -0.1574
25242SOL    HW177167   2.285   6.241  12.006 -0.5902  0.3054 -1.7211
25242SOL    HW277168   2.252   6.100  11.964  0.0049 -0.6180  0.7544
25243SOL     OW77169   6.502   3.800   5.170 -0.1750 -0.8423 -0.3795
25243SOL    HW177170   6.416   3.825   5.204 -0.9584  0.1448 -2.8655
25243SOL    HW277171   6.493   3.707   5.150 -0.6057 -0.7975 -0.4186
25244SOL     OW77172   7.729   0.751   0.495 -0.1344  0.2138 -0.3652
25244SOL    HW177173   7.782   0.818   0.452 -1.3914  1.8134  0.4451
25244SOL    HW277174   7.639   0.772   0.469 -0.4664 -2.2518 -1.4837
25245SOL     OW77175   3.671   5.109   1.855 -0.4723 -0.2309 -0.1997
25245SOL    HW177176   3.650   5.061   1.774 -1.1714 -0.2846  0.0087
25245SOL    HW277177   3.598   5.089   1.914 -0.8409  1.1615 -0.1374
25246SOL     OW77178   6.420   4.422   5.712 -0.1607 -0.3272 -0.5561
25246SOL    HW177179   6.439   4.328   5.718 -0.0852 -0.2521  0.7650
25246SOL    HW277180   6.372   4.442   5.793 -0.9935  0.5946 -1.2512
25247SOL     OW77181   6.283   1.556   2.033  0.1835 -0.5888  0.2457
25247SOL    HW177182   6.269   1.569   2.127 -0.8864 -2.2181  0.3489
25247SOL    HW277183   6.361   1.501   2.028 -0.9778 -2.3347  0.3431
25248SOL     OW77184   3.678   1.180   6.944  0.0401 -0.1701 -0.5395
25248SOL    HW177185   3.600   1.137   6.980  1.0191 -1.2603  0.3439
25248SOL    HW277186   3.666   1.174   6.849 -1.9023  1.5077 -0.4900
25249SOL     OW77187   0.552   5.559   8.115 -0.0808 -0.4105 -0.0426
25249SOL    HW177188   0.463   5.523   8.121 -0.2097 -0.2207 -0.7703
25249SOL    HW277189   0.608   5.482   8.119 -0.1744 -0.4197  2.2609
25250SOL     OW77190   0.344   2.109   7.701 -0.3302 -0.0348  0.4136
25250SOL    HW177191   0.255   2.144   7.703  0.3030  1.6242  1.6289
25250SOL    HW277192   0.388   2.159   7.633 -0.0398 -0.1021  0.5509
25251SOL     OW77193   5.058   0.464   4.398 -0.4659  0.1445  0.0797
25251SOL    HW177194   5.067   0.515   4.318 -2.5735  0.7051  0.1266
25251SOL    HW277195   5.072   0.526   4.468  1.7902 -0.4339  0.1991
25252SOL     OW77196   5.061   2.093   9.209  0.2413  0.4339 -0.2715
25252SOL    HW177197   5.067   2.052   9.122  1.6092  0.5340 -0.2439
25252SOL    HW277198   5.005   2.034   9.259 -0.3370  0.2256 -1.1345
25253SOL     OW77199   5.369   3.094   9.697 -0.0609  0.2662  0.0795
25253SOL    HW177200   5.439   3.147   9.657  0.2253  2.1068  2.7658
25253SOL    HW277201   5.375   3.009   9.652  2.2190  1.1782 -1.5458
25254SOL     OW77202   6.005   5.297   6.722 -0.2056  0.1690  0.3087
25254SOL    HW177203   5.993   5.203   6.708 -0.3925  0.3140 -0.6049
25254SOL    HW277204   6.045   5.304   6.808 -1.0083 -0.7007  0.7777
25255SOL     OW77205   5.940   5.340   2.184 -0.2563  0.6616 -0.4898
25255SOL    HW177206   5.919   5.265   2.240 -0.1647  0.7926 -0.2797
25255SOL    HW277207   5.889   5.325   2.104 -1.3770  1.1101  0.1120
25256SOL     OW77208   4.790   1.510   9.420  0.8680  0.3086  0.1606
25256SOL    HW177209   4.858   1.501   9.353 -0.3682 -1.3268 -0.9609
25256SOL    HW277210   4.831   1.562   9.489  3.1494 -0.3479 -0.6048
25257SOL     OW77211   4.952   0.899   7.380  0.0319 -0.4952 -0.5424
25257SOL    HW177212   5.045   0.916   7.372 -0.2418  1.0842 -0.7309
25257SOL    HW277213   4.936   0.895   7.474 -0.0457  1.5065 -0.4302
25258SOL     OW77214   0.091   4.050   5.957 -0.1210  0.1226 -0.9412
25258SOL    HW177215   0.152   3.979   5.979 -1.1315 -0.3881  0.4296
25258SOL    HW277216   0.038   4.014   5.886 -0.4972 -0.4383 -0.3892
25259SOL     OW77217   5.926   1.215   0.977 -0.5856 -0.0549  0.3686
25259SOL    HW177218   5.860   1.262   0.927  2.5384  1.2109 -3.0794
25259SOL    HW277219   5.922   1.253   1.064 -1.9144  2.6651 -0.7591
25260SOL     OW77220   0.402   1.626   3.171 -0.7508  0.4572  0.4295
25260SOL    HW177221   0.382   1.680   3.247 -2.6631 -0.0762  0.3486
25260SOL    HW277222   0.357   1.543   3.187  0.5852 -0.4564 -0.3084
25261SOL     OW77223   5.668   1.364   7.351  0.7246  0.2606  0.6403
25261SOL    HW177224   5.743   1.412   7.315  1.6435 -0.4948  1.5013
25261SOL    HW277225   5.608   1.432   7.381  0.8246  0.8835 -0.5114
25262SOL     OW77226   2.107   4.740   2.417  0.3140  0.3379 -0.1994
25262SOL    HW177227   2.101   4.835   2.404 -0.0638  0.3999  0.3692
25262SOL    HW277228   2.092   4.728   2.511 -1.3816 -0.4084 -0.5190
25263SOL     OW77229   5.463   4.530   9.780  0.6868 -0.2632  0.4239
25263SOL    HW177230   5.406   4.460   9.810  1.6474 -1.0235  0.5131
25263SOL    HW277231   5.440   4.541   9.688 -0.0291 -0.1279  0.6116
25264SOL     OW77232   0.851   7.222   5.236  0.0269 -0.0828 -0.4185
25264SOL    HW177233   0.918   7.279   5.275  0.2772 -1.5574  1.4448
25264SOL    HW277234   0.768   7.268   5.254 -0.0392 -1.3872  3.4567
25265SOL     OW77235   5.405   0.572   4.926 -0.8058  0.0997  0.5145
25265SOL    HW177236   5.375   0.591   4.837  1.4786 -1.3806 -0.6695
25265SOL    HW277237   5.415   0.477   4.929  2.8639  0.3348  0.9321
25266SOL     OW77238   7.621   1.732  10.727  0.1749 -0.3476  0.7606
25266SOL    HW177239   7.567   1.804  10.695  0.3501 -0.4632  0.1887
25266SOL    HW277240   7.583   1.710  10.812 -0.1484  0.1314  0.7493
25267SOL     OW77241   2.140   3.648   0.023  0.1842  0.1251 -0.0403
25267SOL    HW177242   2.144   3.722   0.084  2.3485  0.6820 -0.7403
25267SOL    HW277243   2.230   3.638  -0.008 -0.4139 -1.6127 -1.4073
25268SOL     OW77244   6.805   3.047  11.483 -0.2344  0.4104  0.3492
25268SOL    HW177245   6.846   3.126  11.516 -1.2780  0.2096  2.2412
25268SOL    HW277246   6.711   3.059  11.498 -0.4568 -0.9971  0.2894
25269SOL     OW77247   1.563   2.613   6.050  0.2420  0.1474  0.2550
25269SOL    HW177248   1.599   2.542   5.997  1.9600  1.2770 -0.1517
25269SOL    HW277249   1.499   2.655   5.992 -1.2507 -1.3716  0.7071
25270SOL     OW77250   1.256   4.138   4.756  0.4891  0.0828  0.6018
25270SOL    HW177251   1.350   4.118   4.763  0.3512 -0.9925 -0.1613
25270SOL    HW277252   1.219   4.112   4.840  0.5388 -1.7926  0.1014
25271SOL     OW77253   4.463   0.771   1.972 -0.3083 -0.0876  0.5051
25271SOL    HW177254   4.513   0.848   1.944  1.5506 -1.6338 -0.7126
25271SOL    HW277255   4.466   0.712   1.897 -0.3344 -1.9822  1.9144
25272SOL     OW77256   0.252   6.450   9.337 -0.0150  0.4605 -0.0785
25272SOL    HW177257   0.310   6.374   9.345 -0.1156  0.2885 -0.8910
25272SOL    HW277258   0.169   6.420   9.372  0.4227  0.7709  1.2855
25273SOL     OW77259   2.098   3.226  11.403  0.0669  0.0188 -0.8527
25273SOL    HW177260   2.159   3.154  11.389  2.9332  2.2527 -0.6523
25273SOL    HW277261   2.091   3.269  11.318 -1.3506 -0.2342 -0.8898
25274SOL     OW77262   5.152   1.791   6.631 -0.0233  0.0658 -0.2195
25274SOL    HW177263   5.197   1.871   6.658  1.1108 -0.7604  0.4545
25274SOL    HW277264   5.208   1.720   6.664 -1.9740 -1.0215  0.9394
25275SOL     OW77265   3.840   5.965   5.692 -0.2401  0.0975 -0.3239
25275SOL    HW177266   3.909   5.903   5.672  0.8381  0.4736  1.9155
25275SOL    HW277267   3.808   5.939   5.778 -1.0528  1.5036 -0.1587
25276SOL     OW77268   6.593   1.316   6.508  0.0097 -0.0996  0.2798
25276SOL    HW177269   6.597   1.401   6.463  0.6544 -1.1059 -1.6698
25276SOL    HW277270   6.667   1.318   6.569  0.3768  0.5032 -0.1805
25277SOL     OW77271   6.048   5.909   7.623  0.0188  0.1414 -0.0427
25277SOL    HW177272   6.094   5.828   7.646  0.8104  0.7214  0.4318
25277SOL    HW277273   5.959   5.880   7.603  1.0795 -1.3210 -3.2423
25278SOL     OW77274   3.654   5.567   1.039  0.0903 -0.0014 -0.0248
25278SOL    HW177275   3.708   5.604   1.109 -1.1447  0.5331  0.6694
25278SOL    HW277276   3.579   5.626   1.032 -0.5064 -0.8219 -0.8519
25279SOL     OW77277   1.195   4.669   0.214 -0.2249 -0.3746 -0.0350
25279SOL    HW177278   1.164   4.627   0.294 -0.9736  0.9430  0.4026
25279SOL    HW277279   1.211   4.760   0.240  2.5598 -0.6274 -0.6312
25280SOL     OW77280   2.101   5.952   6.584 -0.2848  0.0884  0.0463
25280SOL    HW177281   2.187   5.916   6.562 -0.5226 -0.8794  0.6557
25280SOL    HW277282   2.094   5.944   6.679 -0.8771  0.5682  0.0551
25281SOL     OW77283   0.276   5.961   4.400  0.5048  0.4204  0.8043
25281SOL    HW177284   0.340   5.890   4.402 -0.5605 -0.6063  0.0455
25281SOL    HW277285   0.198   5.921   4.363 -0.7213  1.5352  2.0788
25282SOL     OW77286   5.277   2.025   6.700 -0.0482 -0.4850  0.1166
25282SOL    HW177287   5.324   2.074   6.768 -1.0240  0.1126  0.3920
25282SOL    HW277288   5.317   2.054   6.618 -0.2563  0.4139  0.3128
25283SOL     OW77289   7.357   5.511   6.091 -0.1366  0.0967 -0.1325
25283SOL    HW177290   7.288   5.519   6.025 -1.5320  1.9316  1.4165
25283SOL    HW277291   7.350   5.592   6.143 -1.3467 -2.4729  4.2763
25284SOL     OW77292   4.335   3.302  11.029 -0.4471 -0.3670  0.1972
25284SOL    HW177293   4.413   3.254  11.059 -1.7153 -2.3130  0.5945
25284SOL    HW277294   4.340   3.387  11.073  1.1999 -0.6298  0.5816
25285SOL     OW77295   1.719   5.404   6.630  0.2408  0.1934 -0.1567
25285SOL    HW177296   1.771   5.484   6.630 -0.5241  0.7054  0.1395
25285SOL    HW277297   1.763   5.347   6.693 -0.3545  1.1714  1.2040
25286SOL     OW77298   1.603   1.073  10.632 -0.3533 -0.2560  0.2935
25286SOL    HW177299   1.652   1.017  10.691  1.5151  0.3283 -0.5976
25286SOL    HW277300   1.665   1.093  10.561 -2.5157 -1.0761 -1.9829
25287SOL     OW77301   6.189   2.569   8.656  0.3470 -0.5270  0.4957
25287SOL    HW177302   6.097   2.594   8.645  0.4684  0.3647  1.3505
25287SOL    HW277303   6.230   2.592   8.572 -0.0327 -0.1190  0.4175
25288SOL     OW77304   2.064   5.420  11.357 -0.4881 -0.1608 -0.1638
25288SOL    HW177305   1.992   5.458  11.306 -1.5783 -0.9306  0.7621
25288SOL    HW277306   2.079   5.483  11.428  0.2869  0.3735 -0.7890
25289SOL     OW77307   4.078   7.912   8.856  0.2058  0.0467 -0.0136
25289SOL    HW177308   4.170   7.919   8.832  0.0526 -0.5116 -0.8147
25289SOL    HW277309   4.063   7.984   8.918  1.3751 -0.3797  0.7868
25290SOL     OW77310   3.012   0.115   7.473 -0.3769 -0.0371  0.3628
25290SOL    HW177311   3.016   0.151   7.384 -0.6617 -0.5024  0.1565
25290SOL    HW277312   3.103   0.098   7.495 -0.2032  1.1796  0.6253
25291SOL     OW77313   7.490   4.737   4.072  0.6421  0.0290  0.1695
25291SOL    HW177314   7.435   4.659   4.067  0.5512  0.1752 -2.7983
25291SOL    HW277315   7.432   4.804   4.108 -0.0057 -0.6839  0.5044
25292SOL     OW77316   0.765   2.341  10.846 -0.4596 -0.4998 -0.2767
25292SOL    HW177317   0.738   2.356  10.756 -0.8015 -1.6381 -0.3772
25292SOL    HW277318   0.769   2.428  10.885  0.9348  0.1492 -1.7315
25293SOL     OW77319   3.734   1.842   8.114 -0.5103 -0.4174 -0.5322
25293SOL    HW177320   3.730   1.885   8.199  0.3531  0.1684 -0.7787
25293SOL    HW277321   3.771   1.907   8.055  0.7418 -1.4357 -0.9304
25294SOL     OW77322   4.893   0.848   4.519  0.2923 -0.4090  0.1577
25294SOL    HW177323   4.887   0.791   4.443 -1.1381 -2.2149  1.5371
25294SOL    HW277324   4.981   0.833   4.553  0.4847 -0.5602 -0.3985
25295SOL     OW77325   7.738   2.252   1.682  0.4790  0.2837  0.0288
25295SOL    HW177326   7.653   2.229   1.720 -0.1845 -2.1632 -2.5621
25295SOL    HW277327   7.797   2.256   1.757 -1.7754  1.7222  1.8992
25296SOL     OW77328   2.797   4.521   0.463  0.4094 -0.0923 -0.1867
25296SOL    HW177329   2.722   4.497   0.517  0.5017 -1.4471 -0.6233
25296SOL    HW277330   2.869   4.533   0.525  0.1051  0.0878  0.1321
25297SOL     OW77331   2.131   0.785   7.788  0.1085  0.4979  0.4345
25297SOL    HW177332   2.119   0.707   7.733 -0.3761 -0.1550  1.4324
25297SOL    HW277333   2.109   0.858   7.731 -0.8847 -0.1995 -0.1083
25298SOL     OW77334   2.044   0.557  11.438  0.5121  0.6233  0.2940
25298SOL    HW177335   2.124   0.541  11.488 -0.0618 -1.1205  0.7285
25298SOL    HW277336   1.982   0.491  11.470  0.0358 -0.4093 -2.5284
25299SOL     OW77337   3.527   7.359  10.477 -0.0337  0.4131  0.3544
25299SOL    HW177338   3.440   7.398  10.480 -0.0032  0.4210  1.3809
25299SOL    HW277339   3.531   7.316  10.391 -0.8157  0.9313  0.0505
25300SOL     OW77340   7.303   6.264   3.044 -0.2054 -0.3409  0.1243
25300SOL    HW177341   7.367   6.335   3.038  0.7294 -1.2159 -0.6176
25300SOL    HW277342   7.230   6.294   2.989  0.0741  0.1534  0.0125
25301SOL     OW77343   4.032   5.625   5.529 -0.4949 -0.9607  0.0017
25301SOL    HW177344   4.089   5.635   5.605  0.0814 -0.9462 -0.4243
25301SOL    HW277345   3.961   5.567   5.559 -0.9386  0.0177  0.8973
25302SOL     OW77346   7.803   0.836  12.015  0.6844  0.2620  0.1585
25302SOL    HW177347   7.737   0.900  11.989  0.6351 -0.2935 -1.1347
25302SOL    HW277348   7.884   0.868  11.975  0.6825 -0.4001 -0.3942
25303SOL     OW77349   1.335   0.930   8.461 -0.4134 -0.1285 -0.4055
25303SOL    HW177350   1.397   0.859   8.442  1.0847  0.4743  1.7942
25303SOL    HW277351   1.252   0.885   8.479  0.3930 -1.3198  0.4859
25304SOL     OW77352   7.255   0.673   2.243 -0.3776 -0.1869 -0.1621
25304SOL    HW177353   7.296   0.675   2.329  0.8209 -0.0913 -0.7183
25304SOL    HW277354   7.304   0.605   2.195 -2.0413 -1.3642 -0.2874
25305SOL     OW77355   3.033   7.114   0.085 -0.1106  0.2603  0.0308
25305SOL    HW177356   2.975   7.052   0.040  0.7829 -1.2071  0.8221
25305SOL    HW277357   2.973   7.176   0.126 -1.1484 -1.1198  0.6985
25306SOL     OW77358   0.175   2.261   2.552  0.4602  0.2089  0.4505
25306SOL    HW177359   0.157   2.169   2.536  0.6944  0.2463 -0.0314
25306SOL    HW277360   0.099   2.307   2.517  0.6694  0.2465  0.0457
25307SOL     OW77361   3.444   7.502   7.023 -0.2489  0.3213 -0.3509
25307SOL    HW177362   3.370   7.461   6.978 -0.6471  0.5760  0.0634
25307SOL    HW277363   3.520   7.450   6.998 -0.7052 -0.5130 -0.0288
25308SOL     OW77364   0.360   5.642   6.689 -0.7739 -0.1756  0.0885
25308SOL    HW177365   0.324   5.686   6.766 -0.5218 -0.5473  0.4249
25308SOL    HW277366   0.428   5.585   6.724 -1.9452 -1.8145 -0.1721
25309SOL     OW77367   7.937   1.845   1.471 -0.3867 -0.4398 -0.0985
25309SOL    HW177368   7.945   1.915   1.536  3.0777 -0.6882 -0.0643
25309SOL    HW277369   7.973   1.883   1.391  2.2000 -2.2717  0.0868
25310SOL     OW77370   7.087   4.231   7.568 -0.1033 -0.6675 -0.0367
25310SOL    HW177371   7.182   4.222   7.578 -0.0350  0.7413  0.9851
25310SOL    HW277372   7.052   4.218   7.656 -0.7017  0.2695 -0.1181
25311SOL     OW77373   7.957   0.839   7.614 -0.8591 -0.1369 -0.4541
25311SOL    HW177374   7.957   0.814   7.522  2.1218  1.2811 -0.9426
25311SOL    HW277375   7.993   0.928   7.615  1.9883 -1.1548  2.2744
25312SOL     OW77376   1.302   6.295  10.317 -0.1472  0.3770 -0.2496
25312SOL    HW177377   1.210   6.269  10.327 -0.3758  1.8442  2.1137
25312SOL    HW277378   1.347   6.214  10.291 -1.7363 -0.9732  0.9957
25313SOL     OW77379   1.203   7.386   4.864  0.2580  0.1192 -0.3189
25313SOL    HW177380   1.184   7.426   4.949  0.6334 -0.3379 -0.0140
25313SOL    HW277381   1.120   7.389   4.817  0.1462  0.7601 -0.1000
25314SOL     OW77382   3.902   1.719   1.089 -0.3669  0.0006 -0.0167
25314SOL    HW177383   3.982   1.771   1.090  0.4312 -1.1899  1.8135
25314SOL    HW277384   3.834   1.781   1.061  1.0106  1.2420 -0.7500
25315SOL     OW77385   5.134   7.322   0.485 -0.5401  0.5473  0.0469
25315SOL    HW177386   5.061   7.261   0.474  0.5149 -0.5870 -0.8976
25315SOL    HW277387   5.210   7.276   0.449  0.0966  2.8564 -1.8120
25316SOL     OW77388   5.474   1.869   0.414  0.8202  0.4076  0.6902
25316SOL    HW177389   5.448   1.802   0.478  1.5529  0.1491  0.7280
25316SOL    HW277390   5.461   1.826   0.329  0.6608  0.4494  0.6935
25317SOL     OW77391   6.311   5.277   0.754  0.6156 -0.3615  0.2484
25317SOL    HW177392   6.331   5.359   0.799  0.8656 -0.8094  0.9787
25317SOL    HW277393   6.243   5.237   0.808  1.2821 -1.1467  0.5224
25318SOL     OW77394   0.770   7.147   0.228  0.4179 -0.0844  0.0967
25318SOL    HW177395   0.852   7.099   0.240 -0.6430 -2.0414 -0.1478
25318SOL    HW277396   0.777   7.184   0.140  1.3900  0.5647  0.4216
25319SOL     OW77397   7.476   3.557  11.325  0.0888 -0.0980  0.0103
25319SOL    HW177398   7.495   3.474  11.369 -0.9051  0.2025  1.0525
25319SOL    HW277399   7.488   3.624  11.393 -0.5228  0.4726 -0.4310
25320SOL     OW77400   6.873   5.369   0.629 -0.3379  0.1396 -0.9050
25320SOL    HW177401   6.820   5.439   0.590  0.1343  1.7640  1.2218
25320SOL    HW277402   6.819   5.334   0.699 -0.0504 -0.8127 -1.1348
25321SOL     OW77403   7.058   3.416   6.058  0.1513  0.1459  0.2593
25321SOL    HW177404   7.012   3.412   6.141  0.3504  1.3808  0.4462
25321SOL    HW277405   7.101   3.330   6.050 -0.4925 -0.2601  1.0504
25322SOL     OW77406   4.846   0.337   1.811 -0.1557  0.0707 -0.5286
25322SOL    HW177407   4.865   0.360   1.720  1.2418 -0.5123 -0.4040
25322SOL    HW277408   4.800   0.413   1.846 -1.3120  0.0435 -1.8972
25323SOL     OW77409   2.155   5.858  10.109 -0.2393 -0.1036 -0.4396
25323SOL    HW177410   2.186   5.788  10.166  0.1799  0.5268  0.1148
25323SOL    HW277411   2.091   5.815  10.051 -0.7506 -0.7269  0.5602
25324SOL     OW77412   7.772   3.332   2.092 -0.2123 -0.3023  0.3889
25324SOL    HW177413   7.775   3.306   2.184 -2.3632  1.6153  1.0959
25324SOL    HW277414   7.853   3.382   2.079  1.8459 -3.3907  0.1565
25325SOL     OW77415   2.253   7.018   4.969  0.6017 -0.2205  0.0816
25325SOL    HW177416   2.325   6.960   4.993 -0.4617 -1.4289  0.4638
25325SOL    HW277417   2.248   7.012   4.873 -0.7905 -2.4317  0.2327
25326SOL     OW77418   2.796   5.117   0.064  0.0346  0.2611 -0.4379
25326SOL    HW177419   2.877   5.166   0.049  0.0369  0.5055  0.3543
25326SOL    HW277420   2.821   5.047   0.123 -0.8764  2.0634  2.2592
25327SOL     OW77421   7.154   0.693  11.334  0.2807 -0.3709  0.0248
25327SOL    HW177422   7.067   0.710  11.297  0.9846 -1.9142 -2.6125
25327SOL    HW277423   7.140   0.621  11.395 -0.2075 -1.2942 -1.1248
25328SOL     OW77424   1.267   1.973   9.351 -0.0694  0.3470 -0.6316
25328SOL    HW177425   1.281   1.927   9.434 -0.4040 -0.1687 -0.8567
25328SOL    HW277426   1.191   2.029   9.368 -0.8697 -0.6186 -0.9243
25329SOL     OW77427   2.917   1.001   0.729  0.3480  0.1734  0.0976
25329SOL    HW177428   2.948   0.991   0.639 -0.3659  0.9797 -0.2563
25329SOL    HW277429   2.980   1.061   0.769  0.8689 -0.4628  0.2558
25330SOL     OW77430   2.599   0.492   6.552 -0.0702  0.1640  0.4705
25330SOL    HW177431   2.615   0.398   6.564  0.7406  0.4154  1.6342
25330SOL    HW277432   2.619   0.509   6.460  1.0906 -0.5714  0.5715
25331SOL     OW77433   5.377   7.451   6.980 -0.4901 -0.0680 -0.1515
25331SOL    HW177434   5.374   7.392   7.055  0.5100  1.0837  0.8411
25331SOL    HW277435   5.461   7.497   6.989 -1.2754  1.5924 -0.7848
25332SOL     OW77436   2.455   7.765  11.491 -0.5062  0.2574  0.5244
25332SOL    HW177437   2.445   7.696  11.557  0.3323  0.5738  1.0081
25332SOL    HW277438   2.531   7.816  11.521 -0.0958  0.4003 -0.6972
25333SOL     OW77439   3.802   1.439   2.178 -0.4348  0.3915  0.4141
25333SOL    HW177440   3.711   1.436   2.148 -0.5230  0.6758  0.6504
25333SOL    HW277441   3.796   1.430   2.274 -0.2290  0.6649  0.4536
25334SOL     OW77442   3.197   2.314   1.851 -0.0968 -0.2805  0.2381
25334SOL    HW177443   3.114   2.275   1.877 -1.1884  0.3903 -1.9854
25334SOL    HW277444   3.232   2.255   1.784 -1.3790  1.9161 -2.5817
25335SOL     OW77445   3.735   0.435  10.431  0.1265  0.5182 -0.3148
25335SOL    HW177446   3.730   0.393  10.346 -0.6024  0.0159 -0.0350
25335SOL    HW277447   3.772   0.521  10.414 -1.6028  1.0949 -1.3798
25336SOL     OW77448   2.605   0.817   5.387  0.3716  0.1048  0.6878
25336SOL    HW177449   2.683   0.783   5.342  0.5769  1.3852  0.0210
25336SOL    HW277450   2.546   0.842   5.317 -0.1165  0.3256  1.1713
25337SOL     OW77451   4.209   5.216   1.351 -0.0610 -0.2373  0.2803
25337SOL    HW177452   4.216   5.148   1.418  2.0045  0.9843  1.4195
25337SOL    HW277453   4.229   5.297   1.398 -0.6749  0.9470 -1.4113
25338SOL     OW77454   3.113   4.045   9.816 -0.1379 -0.0223 -0.1242
25338SOL    HW177455   3.119   4.125   9.762  2.3672  1.0258  1.5249
25338SOL    HW277456   3.111   3.974   9.752  0.1527  1.2673 -1.6536
25339SOL     OW77457   2.201   7.039   1.971 -0.4253 -0.4077 -0.0206
25339SOL    HW177458   2.139   7.110   1.956  1.3902  1.0706 -1.0275
25339SOL    HW277459   2.149   6.959   1.963 -2.2113  0.7534 -0.6583
25340SOL     OW77460   7.878   7.478   5.641 -0.4690 -0.4367 -0.1126
25340SOL    HW177461   7.798   7.479   5.590 -1.0609  0.9221  0.7893
25340SOL    HW277462   7.928   7.554   5.612 -0.3757 -0.1949  0.6537
25341SOL     OW77463   3.587   1.403   1.643 -0.2893  0.4864 -0.6250
25341SOL    HW177464   3.628   1.320   1.619 -1.1709  0.3654 -1.7821
25341SOL    HW277465   3.600   1.409   1.738 -0.6314 -1.2098 -0.4408
25342SOL     OW77466   1.442   2.008   5.212 -0.2068  0.4503 -0.5070
25342SOL    HW177467   1.495   2.035   5.137  0.5266 -0.1112 -0.2027
25342SOL    HW277468   1.352   2.011   5.180  0.1610 -0.9900 -1.8160
25343SOL     OW77469   7.942   7.235   9.615 -0.2616 -0.3104  0.2551
25343SOL    HW177470   8.011   7.199   9.560 -0.7061 -0.7288 -0.0360
25343SOL    HW277471   7.889   7.288   9.555  0.6062  1.1823  0.7451
25344SOL     OW77472   5.001   7.711   6.938 -0.1462 -0.2387 -0.8549
25344SOL    HW177473   4.936   7.780   6.954 -1.7516 -1.8287 -0.1363
25344SOL    HW277474   5.067   7.724   7.006 -0.9178  0.0589 -0.1410
25345SOL     OW77475   6.994   6.658   9.622 -0.1969  0.0662 -0.2597
25345SOL    HW177476   6.937   6.591   9.586  0.1064 -0.9762  1.1132
25345SOL    HW277477   6.942   6.698   9.692 -0.2372  1.0175 -0.8197
25346SOL     OW77478   7.530   4.784  12.310 -0.0326 -0.7798 -0.3723
25346SOL    HW177479   7.445   4.740  12.311 -0.2258 -0.4074  0.3102
25346SOL    HW277480   7.593   4.713  12.296 -0.5185 -0.9171 -2.0575
25347SOL     OW77481   5.124   2.565  11.528 -0.3691  0.2170 -0.9297
25347SOL    HW177482   5.162   2.646  11.496 -1.6744  1.7136  1.0665
25347SOL    HW277483   5.107   2.513  11.450  1.1044  1.5554 -2.2074
25348SOL     OW77484   4.129   1.223  11.233  0.4336 -0.3301 -0.0003
25348SOL    HW177485   4.116   1.287  11.164 -0.7172  0.3209  0.7925
25348SOL    HW277486   4.073   1.149  11.208 -1.4341  0.6490  1.1297
25349SOL     OW77487   3.553   2.762  12.137 -0.4771 -0.0697 -0.0632
25349SOL    HW177488   3.580   2.671  12.132 -1.9699 -0.4774 -1.7628
25349SOL    HW277489   3.580   2.800  12.054 -0.4853  0.8687  0.3438
25350SOL     OW77490   4.995   0.068   5.355 -0.5038 -0.2854  0.5233
25350SOL    HW177491   5.038   0.006   5.297 -0.6987 -0.4390  0.5428
25350SOL    HW277492   5.029   0.046   5.442 -0.5595 -0.3511  0.5278
25351SOL     OW77493   5.303   5.594   9.310 -0.0559 -0.5140  0.1079
25351SOL    HW177494   5.347   5.623   9.230  2.2677 -0.0944  1.4516
25351SOL    HW277495   5.370   5.599   9.378 -1.5586 -2.2063  1.8468
25352SOL     OW77496   1.014   7.073   0.326 -0.2395 -0.0886 -0.4234
25352SOL    HW177497   1.075   7.120   0.270 -1.1267  1.5372 -0.0956
25352SOL    HW277498   1.063   7.053   0.406  0.2832 -0.1348 -0.7569
25353SOL     OW77499   4.842   5.471   3.225 -0.4717  0.3776 -0.1318
25353SOL    HW177500   4.802   5.537   3.168  1.2628  1.8331  0.2553
25353SOL    HW277501   4.780   5.462   3.298 -0.4999  2.0316  0.0873
25354SOL     OW77502   0.104   5.090   2.817 -0.0101 -0.4868 -0.4510
25354SOL    HW177503   0.122   5.044   2.735 -0.5016 -0.2348 -0.7010
25354SOL    HW277504   0.008   5.091   2.823  0.0147 -0.0858 -0.1102
25355SOL     OW77505   3.065   7.265   7.611  0.7935 -0.3394 -0.1529
25355SOL    HW177506   3.069   7.315   7.693  0.2106  0.5139 -0.6294
25355SOL    HW277507   3.147   7.217   7.608  1.2161  0.3206  0.4975
25356SOL     OW77508   6.679   4.295   1.715  0.5287 -0.2033  0.5135
25356SOL    HW177509   6.634   4.357   1.657 -0.6799 -0.4017  1.2200
25356SOL    HW277510   6.706   4.347   1.790  0.5262 -0.3017  0.5827
25357SOL     OW77511   2.922   6.506   7.003  0.0656  0.0106  0.1943
25357SOL    HW177512   2.868   6.567   6.953  2.2152  1.4885 -0.4836
25357SOL    HW277513   2.889   6.419   6.981  0.8710  0.5531 -3.8588
25358SOL     OW77514   1.043   3.740   9.671 -0.2584  0.1331 -0.3902
25358SOL    HW177515   1.033   3.788   9.753 -1.8646 -1.2991  0.3141
25358SOL    HW277516   0.970   3.771   9.617 -0.9349 -1.0132 -0.1606
25359SOL     OW77517   2.494   0.353  11.462 -0.0675  0.4634 -0.1890
25359SOL    HW177518   2.497   0.278  11.403  0.7321 -0.3279  0.7979
25359SOL    HW277519   2.546   0.420  11.419  0.6117 -0.1454 -0.3365
25360SOL     OW77520   5.853   7.767   5.409 -0.1503  0.0859  0.0261
25360SOL    HW177521   5.771   7.723   5.432 -0.1448 -1.9734 -3.1428
25360SOL    HW277522   5.917   7.730   5.469 -0.9016 -1.2506  0.0619
25361SOL     OW77523   1.924   1.682   9.328  0.3986  0.1727  0.2180
25361SOL    HW177524   1.978   1.753   9.293  0.3576  0.2737  0.3573
25361SOL    HW277525   1.871   1.724   9.396  0.3788  0.0072  0.3042
25362SOL     OW77526   4.252   3.311  11.812  0.0946  0.0626  0.9136
25362SOL    HW177527   4.165   3.345  11.833 -0.1926 -1.0091  1.5468
25362SOL    HW277528   4.312   3.371  11.856 -0.2701  1.2047 -0.0877
25363SOL     OW77529   0.871   6.725   9.525  0.6827 -0.1837 -0.3925
25363SOL    HW177530   0.952   6.695   9.483  0.4689 -1.3573  0.0112
25363SOL    HW277531   0.808   6.655   9.509 -0.1918  0.6103 -0.4819
25364SOL     OW77532   6.916   7.218  10.143  0.5358  0.0493 -0.0103
25364SOL    HW177533   6.867   7.184  10.219  0.6836 -1.0446 -0.3807
25364SOL    HW277534   6.932   7.310  10.164 -0.3728  0.0435  0.7958
25365SOL     OW77535   6.291   0.321   0.682 -0.2503 -0.0857 -0.2727
25365SOL    HW177536   6.247   0.303   0.598  1.5643  0.4756 -1.3938
25365SOL    HW277537   6.302   0.416   0.684  0.1397 -0.1381  0.3888
25366SOL     OW77538   2.195   4.516   4.504 -0.2089 -0.3418 -0.0151
25366SOL    HW177539   2.189   4.612   4.509 -1.0592 -0.3265 -0.9960
25366SOL    HW277540   2.289   4.499   4.499 -0.0325  0.4239  0.5152
25367SOL     OW77541   5.924   3.159  12.155 -0.0588  0.2855  0.7419
25367SOL    HW177542   5.966   3.129  12.235 -0.5781  0.5978  1.1340
25367SOL    HW277543   5.917   3.253  12.165  0.0283  0.3495  0.2479
25368SOL     OW77544   5.207   4.559   1.246 -0.1300 -0.5672  0.5090
25368SOL    HW177545   5.243   4.595   1.327  0.9201  0.5956 -0.4398
25368SOL    HW277546   5.117   4.591   1.244  0.1007  0.1157  0.7985
25369SOL     OW77547   0.149   7.494   1.217 -0.0557  0.0696 -0.1338
25369SOL    HW177548   0.211   7.531   1.154  0.7724 -1.9677 -0.6134
25369SOL    HW277549   0.105   7.424   1.169 -1.6103  0.4388  0.6936
25370SOL     OW77550   3.091   4.200  10.648 -0.5151  0.3196 -0.2151
25370SOL    HW177551   3.018   4.248  10.687 -1.2276 -0.3422 -0.7119
25370SOL    HW277552   3.063   4.108  10.650 -0.7140  0.2698 -2.5130
25371SOL     OW77553   5.400   0.984  10.834 -0.2420 -0.0175  0.1255
25371SOL    HW177554   5.466   1.053  10.824 -0.8888  0.3847 -1.7648
25371SOL    HW277555   5.451   0.903  10.832  0.3054  0.3201 -0.4179
25372SOL     OW77556   7.371   3.568   3.987 -0.1562  0.1347  0.2544
25372SOL    HW177557   7.431   3.559   4.061  1.2143  0.2533 -0.8045
25372SOL    HW277558   7.337   3.479   3.974  0.8324 -0.2306  0.0419
25373SOL     OW77559   2.986   5.155   5.896  0.5959  0.3225 -0.0792
25373SOL    HW177560   3.037   5.122   5.969  0.3979 -1.2492 -0.6220
25373SOL    HW277561   3.051   5.189   5.835  0.7001  4.1059  1.8415
25374SOL     OW77562   0.095   3.644  10.231  0.3258 -0.0519 -0.3727
25374SOL    HW177563   0.014   3.636  10.181  0.9155 -0.7306 -1.2502
25374SOL    HW277564   0.160   3.673  10.167  0.6718  1.0342  0.4353
25375SOL     OW77565   2.630   4.270   4.769  0.2138  0.0235 -0.3575
25375SOL    HW177566   2.579   4.347   4.747  1.2042  0.4987 -1.0790
25375SOL    HW277567   2.708   4.276   4.713  0.4592 -1.3277 -0.2043
25376SOL     OW77568   0.601   1.522   9.448  0.2045  0.1475  0.3729
25376SOL    HW177569   0.631   1.460   9.382  0.6238  0.2936  0.4180
25376SOL    HW277570   0.666   1.593   9.445 -0.0458  0.3899  0.5977
25377SOL     OW77571   0.980   3.708   7.477  0.0771 -0.2064  0.8951
25377SOL    HW177572   1.030   3.626   7.473  0.7619  0.1016  2.3932
25377SOL    HW277573   0.926   3.699   7.556  0.3825  0.9071  1.2416
25378SOL     OW77574   3.428   1.012   4.603 -0.1759  0.2135  0.0628
25378SOL    HW177575   3.415   0.988   4.512  0.3573 -1.6268  0.4434
25378SOL    HW277576   3.450   1.105   4.600 -1.1815  0.4417 -1.5751
25379SOL     OW77577   6.516   0.958   5.075 -0.6286  0.4175  0.3231
25379SOL    HW177578   6.445   0.942   5.137  0.1935 -1.6993  0.8310
25379SOL    HW277579   6.472   0.974   4.992 -1.7695 -1.4179  0.4977
25380SOL     OW77580   1.634   4.898   1.787 -0.4058  0.0916  0.3980
25380SOL    HW177581   1.559   4.864   1.739 -0.2712 -0.2538  0.4264
25380SOL    HW277582   1.683   4.949   1.722 -0.4298 -0.0526  0.2647
25381SOL     OW77583   7.806   4.129   4.053 -0.0697 -0.1089 -0.1003
25381SOL    HW177584   7.742   4.178   4.105  0.0527  0.0497 -0.0990
25381SOL    HW277585   7.757   4.054   4.019  0.1280 -0.8755  1.2189
25382SOL     OW77586   4.303   2.085   6.644  0.6743 -0.1059 -0.0588
25382SOL    HW177587   4.226   2.108   6.593 -0.4902 -0.8061  1.3220
25382SOL    HW277588   4.316   2.160   6.703 -0.8285 -1.2156  1.7975
25383SOL     OW77589   2.565   7.597   7.602  0.2529 -0.3513  0.1363
25383SOL    HW177590   2.471   7.587   7.592  0.0729 -1.3575  2.1636
25383SOL    HW277591   2.584   7.685   7.571 -1.5898  0.3885  0.9750
25384SOL     OW77592   0.613   7.633   7.699  0.2980  0.0860  0.3229
25384SOL    HW177593   0.565   7.628   7.617 -0.5266 -0.6064  0.8268
25384SOL    HW277594   0.605   7.725   7.726  0.1013  0.1926 -0.0928
25385SOL     OW77595   2.441   0.828   9.857 -0.0398  0.6025  0.3007
25385SOL    HW177596   2.384   0.812   9.782  0.8006 -0.0582 -0.2080
25385SOL    HW277597   2.381   0.855   9.927 -1.0715 -0.7983  0.0076
25386SOL     OW77598   0.246   6.574   0.006 -0.1203 -0.3294 -0.1446
25386SOL    HW177599   0.305   6.568  -0.069  1.3889  0.7323  0.9177
25386SOL    HW277600   0.262   6.495   0.057  1.1952  0.4388  0.6810
25387SOL     OW77601   1.825   6.071   8.242 -0.3214  0.0386 -0.0029
25387SOL    HW177602   1.741   6.055   8.284  0.3068 -1.9016  0.6254
25387SOL    HW277603   1.870   6.132   8.299 -0.7756  0.0208  0.3746
25388SOL     OW77604   1.891   1.984  10.815  0.1088 -0.4594 -0.5271
25388SOL    HW177605   1.827   1.998  10.745  1.1999 -0.2537 -1.5265
25388SOL    HW277606   1.924   1.895  10.799 -0.1856 -0.7146  0.2160
25389SOL     OW77607   6.853   4.765   8.177  0.5586 -0.5852  0.4554
25389SOL    HW177608   6.764   4.748   8.147  0.4572 -1.1094  1.0427
25389SOL    HW277609   6.892   4.678   8.187  1.4197 -0.3473 -0.6216
25390SOL     OW77610   0.485   6.225   4.606  0.3818 -0.3563  0.2581
25390SOL    HW177611   0.501   6.161   4.537  1.4689  1.1137 -0.9153
25390SOL    HW277612   0.407   6.273   4.579  0.6063 -0.0089  0.2133
25391SOL     OW77613   2.595   2.084  10.417  0.3253  0.1486 -0.4681
25391SOL    HW177614   2.653   2.143  10.369 -1.1880 -0.5338 -3.3285
25391SOL    HW277615   2.517   2.137  10.436  0.7267  0.2816  0.9500
25392SOL     OW77616   4.752   5.585   7.217  0.5740 -0.1872 -0.0280
25392SOL    HW177617   4.699   5.616   7.144 -0.9035 -0.3663  0.9185
25392SOL    HW277618   4.747   5.655   7.282  0.8884 -0.5145  0.3562
25393SOL     OW77619   5.315   5.868   4.131 -0.1542 -0.1657  0.3150
25393SOL    HW177620   5.312   5.958   4.164 -0.1485 -0.2379  0.5156
25393SOL    HW277621   5.265   5.818   4.194 -0.1622 -0.3029  0.1990
25394SOL     OW77622   3.005   0.463   7.581  0.1586  0.5539  0.2681
25394SOL    HW177623   3.029   0.540   7.633  1.0670  0.3513  0.1539
25394SOL    HW277624   3.080   0.404   7.588 -0.1030  0.1128 -0.4874
25395SOL     OW77625   6.328   4.685   1.420  0.5009 -0.0921 -0.2803
25395SOL    HW177626   6.418   4.655   1.424  0.8227  0.1923 -3.2531
25395SOL    HW277627   6.275   4.605   1.427  1.0719 -0.5274 -0.9032
25396SOL     OW77628   2.080   1.790   9.684 -0.4306 -0.1239  0.1991
25396SOL    HW177629   2.073   1.706   9.729  0.7653 -0.1774  0.3054
25396SOL    HW277630   1.998   1.835   9.705 -0.2220 -0.4408  1.8232
25397SOL     OW77631   2.810   7.306   6.860 -0.4245 -0.2741 -0.2851
25397SOL    HW177632   2.723   7.267   6.868 -0.4146 -0.0956  0.8991
25397SOL    HW277633   2.793   7.401   6.856 -0.3663 -0.3112 -1.6762
25398SOL     OW77634   3.834   0.337   6.313  0.5072 -0.7516 -0.1708
25398SOL    HW177635   3.900   0.388   6.359 -0.4179  0.2863  0.0585
25398SOL    HW277636   3.753   0.354   6.361  0.2021 -2.6205  0.0290
25399SOL     OW77637   4.127   6.222   0.676  0.4905  0.2233 -0.6029
25399SOL    HW177638   4.043   6.176   0.672  0.2221  0.7275 -0.9457
25399SOL    HW277639   4.160   6.220   0.586  1.1108 -0.4383 -0.3710
25400SOL     OW77640   4.061   0.879   3.412 -0.4286 -0.4693 -0.6529
25400SOL    HW177641   4.150   0.913   3.405 -0.3776 -0.4760 -0.0398
25400SOL    HW277642   4.071   0.784   3.403 -0.1718 -0.6320  1.0535
25401SOL     OW77643   5.288   2.227  10.807  0.1469  0.0885  0.2592
25401SOL    HW177644   5.272   2.243  10.900  0.7705 -0.5596  0.4808
25401SOL    HW277645   5.205   2.192  10.775  0.3827 -1.1044  0.9073
25402SOL     OW77646   2.159   1.115   1.340 -0.1543 -0.4494 -0.3126
25402SOL    HW177647   2.203   1.119   1.425  0.6984 -0.6891 -0.7315
25402SOL    HW277648   2.184   1.196   1.296 -1.0213 -0.0820 -0.1323
25403SOL     OW77649   6.834   2.568   7.112 -0.2717  0.5114 -0.1765
25403SOL    HW177650   6.880   2.644   7.075 -0.3409  0.4369 -0.4148
25403SOL    HW277651   6.899   2.526   7.169 -0.0491  0.4160 -0.5008
25404SOL     OW77652   5.335   5.498  10.288 -0.3705  0.0877  0.1226
25404SOL    HW177653   5.353   5.569  10.349  0.3438 -1.6959  2.1359
25404SOL    HW277654   5.417   5.486  10.240  0.0088 -0.2821  0.8348
25405SOL     OW77655   3.171   0.622   8.494  0.4779 -0.1295 -0.7341
25405SOL    HW177656   3.200   0.693   8.551 -2.2191  1.3040 -0.9881
25405SOL    HW277657   3.242   0.611   8.431  1.8546  0.8871  0.5811
25406SOL     OW77658   2.914   5.455   5.966 -0.2245  0.2225 -0.0503
25406SOL    HW177659   2.927   5.362   5.950  0.3612  0.4318 -0.8568
25406SOL    HW277660   2.902   5.462   6.061  0.5999 -0.5781  0.1226
25407SOL     OW77661   7.558   2.694   8.138 -0.4545 -0.2501  0.0446
25407SOL    HW177662   7.492   2.685   8.069  1.1113  0.6111 -1.6749
25407SOL    HW277663   7.515   2.743   8.207 -2.0319 -0.9713 -0.3854
25408SOL     OW77664   3.774   4.257   5.999  0.1150 -0.0325  0.0467
25408SOL    HW177665   3.685   4.230   6.021  0.9419 -0.1167  4.1298
25408SOL    HW277666   3.764   4.345   5.964 -1.5985  0.0691  0.6644
25409SOL     OW77667   5.679   4.478  10.992  0.4907 -0.8655  0.6987
25409SOL    HW177668   5.751   4.462  10.932  0.1292  0.5385 -0.1690
25409SOL    HW277669   5.619   4.405  10.978  0.4738 -0.6337 -0.5916
25410SOL     OW77670   1.286   3.013   3.373  0.0842 -0.1346  0.0963
25410SOL    HW177671   1.225   3.056   3.313  0.8575 -0.3948 -0.9082
25410SOL    HW277672   1.268   3.052   3.458 -1.7724 -0.5068 -0.0874
25411SOL     OW77673   5.482   3.036   7.701 -0.1007 -0.3612 -0.2375
25411SOL    HW177674   5.393   3.033   7.668  0.7624 -1.4777 -2.7410
25411SOL    HW277675   5.515   3.122   7.678 -0.1738 -0.3653 -0.3535
25412SOL     OW77676   7.985   0.393   9.353  0.5351  0.6721 -0.1961
25412SOL    HW177677   8.046   0.456   9.392  0.2428  1.5259 -1.0834
25412SOL    HW277678   8.031   0.310   9.355  1.5626  1.2268 -0.4658
25413SOL     OW77679   0.976   1.481   3.132  0.0671  0.4731  0.2738
25413SOL    HW177680   1.071   1.472   3.135  0.1630  1.5186  1.3452
25413SOL    HW277681   0.960   1.574   3.149 -1.1391  0.3462 -0.0624
25414SOL     OW77682   4.075   2.476   5.771  0.6612  0.1180 -0.2658
25414SOL    HW177683   4.026   2.435   5.842 -0.1584  0.9266 -0.3481
25414SOL    HW277684   4.155   2.425   5.765 -0.0984 -1.1422 -0.0287
25415SOL     OW77685   6.601   3.474   8.133  0.5926  0.3066 -0.1814
25415SOL    HW177686   6.554   3.392   8.119  0.0476  0.7412 -1.0103
25415SOL    HW277687   6.692   3.455   8.109  0.1026  0.4373 -2.3807
25416SOL     OW77688   3.078   2.903   9.967 -0.1267  0.0965 -0.0699
25416SOL    HW177689   3.151   2.934   9.913  1.4940 -1.8999  0.8512
25416SOL    HW277690   3.095   2.939  10.054 -1.1008  0.8394 -0.1618
25417SOL     OW77691   6.499   7.310  11.064  0.1505 -0.5143 -0.0034
25417SOL    HW177692   6.430   7.330  11.000  0.5390 -0.3883 -0.3908
25417SOL    HW277693   6.542   7.394  11.080 -1.3827 -0.0819  2.1780
25418SOL     OW77694   5.543   6.440   5.513 -0.4941  0.0576  0.8642
25418SOL    HW177695   5.495   6.485   5.444  0.1272 -0.3220  0.1699
25418SOL    HW277696   5.505   6.352   5.516 -0.5281  0.0767  1.0115
25419SOL     OW77697   6.568   0.732   0.088 -0.1236  0.3092 -0.2252
25419SOL    HW177698   6.485   0.778   0.075 -0.1860 -0.2002 -1.9609
25419SOL    HW277699   6.610   0.778   0.160 -1.6249  0.9842  0.2703
25420SOL     OW77700   3.929   6.411   3.427  0.7233 -0.4203  0.1360
25420SOL    HW177701   3.861   6.347   3.409 -0.8801  1.6954 -2.0662
25420SOL    HW277702   3.900   6.456   3.507 -0.2534  0.1045 -0.4877
25421SOL     OW77703   1.219   7.622  10.883  0.6311 -0.3359 -0.0634
25421SOL    HW177704   1.304   7.621  10.838  1.4599 -0.7760  1.4367
25421SOL    HW277705   1.217   7.539  10.931  0.4192  0.7123  1.8129
25422SOL     OW77706   5.958   5.975   4.790  0.1262 -0.3584 -0.0977
25422SOL    HW177707   5.913   6.002   4.710 -0.4515  0.8103  0.5975
25422SOL    HW277708   5.978   5.882   4.776  1.5858  0.2120 -2.3033
25423SOL     OW77709   0.290   0.832  11.081  0.5030 -0.5315 -0.3174
25423SOL    HW177710   0.333   0.756  11.042 -0.0921 -2.0247  1.7064
25423SOL    HW277711   0.218   0.794  11.133  0.0017  1.4430  0.5228
25424SOL     OW77712   6.462   5.212   9.453  0.2241 -0.4244  0.2169
25424SOL    HW177713   6.542   5.208   9.506  0.0445 -2.2464  0.4069
25424SOL    HW277714   6.492   5.203   9.363  0.4708  2.0564 -0.0295
25425SOL     OW77715   3.638   0.384   9.963 -0.0326  0.1592 -0.4424
25425SOL    HW177716   3.546   0.386   9.935 -0.1646 -1.0381 -0.1526
25425SOL    HW277717   3.683   0.334   9.895  0.2329 -0.0186 -0.1380
25426SOL     OW77718   4.514   0.741   2.994  0.0865  0.3875  0.2796
25426SOL    HW177719   4.435   0.738   3.047 -0.0518  0.5782  0.0858
25426SOL    HW277720   4.487   0.783   2.912  0.5394  1.0762  0.4761
25427SOL     OW77721   4.662   1.878   4.344 -0.1648  0.0927 -0.4592
25427SOL    HW177722   4.672   1.961   4.389 -1.3136 -0.3946  0.7213
25427SOL    HW277723   4.577   1.844   4.371 -0.8255 -0.3445 -2.8133
25428SOL     OW77724   5.039   4.990   0.707  0.0520  0.4534  0.4353
25428SOL    HW177725   4.965   5.014   0.763  0.5616 -0.5080  1.5904
25428SOL    HW277726   5.009   4.912   0.660  0.0242  0.5701  0.2615
25429SOL     OW77727   7.774   2.081   1.067  0.4207 -0.4067  0.3807
25429SOL    HW177728   7.735   2.005   1.023 -2.7879  1.5497 -0.4646
25429SOL    HW277729   7.725   2.089   1.149  1.4113  0.1863  0.9303
25430SOL     OW77730   6.176   4.360   6.497 -0.3233  0.2203  0.6252
25430SOL    HW177731   6.251   4.315   6.460 -0.4475  0.9620 -0.5892
25430SOL    HW277732   6.103   4.337   6.440 -1.2471 -1.2096  2.3016
25431SOL     OW77733   1.221   1.793   8.534  0.1620  0.0060  0.6302
25431SOL    HW177734   1.155   1.847   8.489  0.5907  0.1041  0.1047
25431SOL    HW277735   1.218   1.709   8.488  0.1610 -0.1087  0.8367
25432SOL     OW77736   0.498   6.450   7.471  0.3509  0.2852 -0.0694
25432SOL    HW177737   0.461   6.407   7.394  0.1264  1.4961 -0.6672
25432SOL    HW277738   0.432   6.514   7.497  1.4948  1.6750 -0.4501
25433SOL     OW77739   5.469   0.505   0.625  0.6149 -0.2604 -0.5826
25433SOL    HW177740   5.383   0.538   0.653  0.8817 -1.5308  2.0330
25433SOL    HW277741   5.448   0.431   0.568 -0.0077  0.3006 -1.1024
25434SOL     OW77742   7.474   5.682   3.523 -0.6484  0.0593 -0.0807
25434SOL    HW177743   7.551   5.705   3.472 -0.0952  0.5589  0.9719
25434SOL    HW277744   7.491   5.715   3.611 -2.1747  0.4246  0.1123
25435SOL     OW77745   5.808   1.274   9.299 -0.3169 -0.4111 -0.3780
25435SOL    HW177746   5.900   1.251   9.308 -0.1959  0.5936  1.2347
25435SOL    HW277747   5.807   1.350   9.241 -0.4696 -2.3766 -3.1535
25436SOL     OW77748   1.850   4.695   9.146 -0.4049  0.2728  0.0888
25436SOL    HW177749   1.804   4.627   9.098 -2.8413  0.7293  1.5688
25436SOL    HW277750   1.819   4.777   9.107 -0.7402  0.5836  0.9750
25437SOL     OW77751   0.670   7.917   9.064  0.0227  0.0221  0.6621
25437SOL    HW177752   0.752   7.909   9.114  0.4881  0.5403 -0.0020
25437SOL    HW277753   0.668   8.009   9.036 -1.7305  0.5472  2.2552
25438SOL     OW77754   3.157   0.546   4.643 -0.3894 -0.5931  0.1809
25438SOL    HW177755   3.139   0.455   4.667 -0.3349 -0.5964  0.2106
25438SOL    HW277756   3.218   0.576   4.710 -0.2968 -0.5784  0.0896
25439SOL     OW77757   6.583   0.691   2.791 -0.4065  0.3190 -0.4351
25439SOL    HW177758   6.514   0.646   2.742 -1.9220  0.1317  1.7154
25439SOL    HW277759   6.548   0.778   2.807 -0.0971  0.2742  0.5461
25440SOL     OW77760   3.893   5.077   0.714 -1.0905  0.5517 -0.1111
25440SOL    HW177761   3.844   5.073   0.632 -1.6736 -0.4103  0.2676
25440SOL    HW277762   3.849   5.014   0.771  0.9126 -0.7664  0.0612
25441SOL     OW77763   1.859   6.814   9.652  1.0496  0.9977  0.1868
25441SOL    HW177764   1.822   6.807   9.564 -1.3426  2.2913  0.9845
25441SOL    HW277765   1.953   6.816   9.639  0.7943  0.2645 -2.2520
25442SOL     OW77766   1.220   7.550   2.836 -0.5941 -0.2152  0.2256
25442SOL    HW177767   1.313   7.566   2.856 -1.1793  1.5608  1.7664
25442SOL    HW277768   1.208   7.587   2.748 -0.2456  1.3243  0.7959
25443SOL     OW77769   6.456   1.427   6.168 -0.0564  0.5344  0.7550
25443SOL    HW177770   6.410   1.507   6.192 -2.3968 -0.6157  0.4223
25443SOL    HW277771   6.427   1.408   6.079  2.7479  0.7906 -0.3292
25444SOL     OW77772   3.100   4.131   2.848 -0.2246  0.6118  0.1039
25444SOL    HW177773   3.175   4.088   2.806 -0.8626 -1.1251  0.6789
25444SOL    HW277774   3.024   4.084   2.816 -0.7654 -0.7905  3.0779
25445SOL     OW77775   2.543   3.466  11.168 -0.4795 -0.2813 -0.7898
25445SOL    HW177776   2.605   3.393  11.169 -0.1458  0.0053 -0.5037
25445SOL    HW277777   2.594   3.540  11.134  0.1517  0.6852  2.0516
25446SOL     OW77778   4.576   5.186   0.669  0.0547  0.4187  0.2803
25446SOL    HW177779   4.502   5.234   0.706 -0.0226  1.5236 -1.2298
25446SOL    HW277780   4.595   5.231   0.587  1.1503 -1.0607 -0.3106
25447SOL     OW77781   0.578   0.372   7.761 -0.3165  0.0471 -0.2642
25447SOL    HW177782   0.492   0.331   7.770 -0.7746  0.8916 -0.6629
25447SOL    HW277783   0.632   0.306   7.716 -0.6223 -0.6535  0.3802
25448SOL     OW77784   4.998   4.006   5.244 -0.4826 -0.4398 -0.1727
25448SOL    HW177785   4.918   4.058   5.239  0.2528  0.7138 -0.0411
25448SOL    HW277786   5.034   4.010   5.155  0.4935  0.7726  0.2540
25449SOL     OW77787   6.852   0.497  11.981  0.5506  0.0555  0.4624
25449SOL    HW177788   6.782   0.560  11.997  0.6613  0.9014 -1.9837
25449SOL    HW277789   6.933   0.547  11.991  0.7155 -0.2632  0.7364
25450SOL     OW77790   4.417   1.541  12.052 -0.1044  0.0745 -0.0201
25450SOL    HW177791   4.362   1.469  12.022  1.7293 -2.2483  1.8423
25450SOL    HW277792   4.362   1.589  12.115 -0.7423 -0.8376  0.1303
25451SOL     OW77793   0.753   2.011   7.568 -0.2204  0.0531  0.0747
25451SOL    HW177794   0.659   1.995   7.570 -0.0442 -0.9371  0.8905
25451SOL    HW277795   0.787   1.970   7.647  1.0154 -0.3021 -0.6069
25452SOL     OW77796   0.818   7.039   3.089 -0.0105  0.2756  0.5080
25452SOL    HW177797   0.866   7.018   3.008 -0.2084  2.7676 -0.3347
25452SOL    HW277798   0.874   7.004   3.159  0.3363 -1.6342 -0.6472
25453SOL     OW77799   5.617   7.310   3.747  0.2979 -0.5254 -0.3068
25453SOL    HW177800   5.597   7.321   3.840 -1.2827  0.2605 -0.7000
25453SOL    HW277801   5.544   7.258   3.713  1.3852 -1.6957 -0.9339
25454SOL     OW77802   6.214   1.831  10.593  0.0147  0.0254  0.6757
25454SOL    HW177803   6.136   1.810  10.646 -1.2154  0.1048 -1.0166
25454SOL    HW277804   6.287   1.824  10.654 -1.3658  0.4410  2.4581
25455SOL     OW77805   1.556   7.355   7.289  0.6790 -0.0989 -0.1948
25455SOL    HW177806   1.488   7.399   7.238 -0.1035 -1.2947 -0.2290
25455SOL    HW277807   1.634   7.358   7.232 -0.2690 -1.7242 -1.6990
25456SOL     OW77808   7.487   2.341   0.126 -0.6020  0.2727  0.0625
25456SOL    HW177809   7.535   2.263   0.154 -0.2599  0.4747  0.0488
25456SOL    HW277810   7.466   2.387   0.207 -0.6538  0.2525  0.0603
25457SOL     OW77811   0.730   6.302   5.104 -0.3202 -0.6621  0.3434
25457SOL    HW177812   0.641   6.317   5.072 -0.6607 -1.1129  1.0385
25457SOL    HW277813   0.764   6.233   5.048 -0.2591 -0.2007 -0.1898
25458SOL     OW77814   6.827   1.516   9.012 -1.0568 -0.0540  0.5313
25458SOL    HW177815   6.901   1.480   9.062 -0.4902 -3.1292 -2.2347
25458SOL    HW277816   6.753   1.458   9.033 -0.9443 -1.0662 -1.6043
25459SOL     OW77817   7.109   1.965  11.634  0.1301 -0.1177 -0.0776
25459SOL    HW177818   7.016   1.959  11.610  0.2481  0.2061 -0.6262
25459SOL    HW277819   7.146   1.881  11.604  0.5203  0.7336 -2.1874
25460SOL     OW77820   0.561   0.162  11.211 -0.5925  0.2875  0.3836
25460SOL    HW177821   0.521   0.147  11.296 -0.2292  1.9262  0.8686
25460SOL    HW277822   0.553   0.256  11.196  0.8862  0.2994 -0.5949
25461SOL     OW77823   2.568   5.316   0.312 -0.2948  0.3344  0.3148
25461SOL    HW177824   2.575   5.222   0.293  1.1350  0.8868 -2.4456
25461SOL    HW277825   2.609   5.326   0.398  1.5447 -1.3238 -0.2962
25462SOL     OW77826   1.013   1.109  11.640 -0.1969 -0.3830  0.0358
25462SOL    HW177827   1.083   1.068  11.690 -0.9968 -0.7429  0.8875
25462SOL    HW277828   0.955   1.147  11.706  0.9845  3.0599 -0.6737
25463SOL     OW77829   3.527   0.578   5.790 -0.2722  0.3130 -0.5040
25463SOL    HW177830   3.462   0.581   5.719 -2.2619  0.3555  1.2315
25463SOL    HW277831   3.538   0.669   5.817  0.0973  0.2419 -0.4121
25464SOL     OW77832   0.421   6.141   2.114  0.4624 -0.1317  0.2098
25464SOL    HW177833   0.482   6.071   2.089  0.0537 -2.3718  4.5556
25464SOL    HW277834   0.336   6.098   2.117 -0.0971  0.9974  1.3076
25465SOL     OW77835   7.340   7.413   3.132 -0.1082  0.1821 -0.0171
25465SOL    HW177836   7.266   7.472   3.148 -0.0214  0.8016 -1.7147
25465SOL    HW277837   7.301   7.326   3.135 -1.1926  0.5391 -2.0337
25466SOL     OW77838   7.583   6.256  12.165  0.2737  0.3935 -0.1058
25466SOL    HW177839   7.655   6.313  12.139  0.0836 -0.6437 -3.3514
25466SOL    HW277840   7.510   6.316  12.184  1.6489  1.4030  2.4470
25467SOL     OW77841   7.771   0.279   0.575 -0.3058 -0.2359  0.0908
25467SOL    HW177842   7.827   0.332   0.519  1.5682 -1.3055  0.8717
25467SOL    HW277843   7.682   0.300   0.546  0.2704  3.4825  0.5215
25468SOL     OW77844   1.466   2.019   2.875 -0.2301  0.3621  0.1041
25468SOL    HW177845   1.530   1.947   2.873  0.1387  0.6862  0.1734
25468SOL    HW277846   1.394   1.988   2.819  0.2743  0.2616 -0.5003
25469SOL     OW77847   4.671   7.272   1.224  0.1651 -0.9371  0.0708
25469SOL    HW177848   4.611   7.211   1.267  0.5402 -0.5183  1.2254
25469SOL    HW277849   4.616   7.345   1.196  0.1283 -0.4852  1.2586
25470SOL     OW77850   0.574   3.183   1.283 -0.4336  0.5902 -0.1982
25470SOL    HW177851   0.599   3.095   1.311  3.1710  1.2444 -0.9446
25470SOL    HW277852   0.513   3.213   1.350  0.9988 -1.1696  2.0234
25471SOL     OW77853   4.919   5.039   1.075 -0.2460  0.5974  0.1235
25471SOL    HW177854   4.967   5.122   1.075 -0.8791  0.9730  0.7591
25471SOL    HW277855   4.844   5.053   1.018 -0.0876  0.2923 -0.1672
25472SOL     OW77856   4.035   6.975   6.770 -0.6135 -0.2359 -0.0192
25472SOL    HW177857   3.976   7.050   6.776 -2.1578 -1.4912  1.8791
25472SOL    HW277858   3.977   6.899   6.776  0.9108 -1.6213 -1.6801
25473SOL     OW77859   1.905   5.856   8.845  0.1428 -0.4454 -0.4225
25473SOL    HW177860   1.860   5.907   8.777  1.2070  1.8589  0.4789
25473SOL    HW277861   1.966   5.800   8.797  1.1979  1.4585 -1.4673
25474SOL     OW77862   2.926   2.121   5.374  0.0902 -0.1974  0.3482
25474SOL    HW177863   2.960   2.049   5.426 -0.4814 -0.4198  0.4123
25474SOL    HW277864   2.904   2.082   5.289 -1.5136 -0.3888  0.8345
25475SOL     OW77865   5.484   0.835  11.628  0.1190  0.1217 -0.0554
25475SOL    HW177866   5.554   0.782  11.666 -1.7978 -2.1751  0.5601
25475SOL    HW277867   5.468   0.904  11.692  0.7907 -0.2542  0.5327
25476SOL     OW77868   3.656   0.424   3.000 -0.5584 -0.4266 -0.0607
25476SOL    HW177869   3.634   0.508   3.040 -0.3028 -0.5050  0.2469
25476SOL    HW277870   3.735   0.395   3.046 -1.5110 -1.5716  0.9363
25477SOL     OW77871   5.714   4.414   1.415 -0.0615  0.1257 -0.6399
25477SOL    HW177872   5.758   4.451   1.491 -0.2262 -1.1684  0.1237
25477SOL    HW277873   5.623   4.404   1.443 -0.3121  0.4508 -1.3205
25478SOL     OW77874   1.873   5.610   9.789  0.2335 -0.5793 -0.1331
25478SOL    HW177875   1.837   5.600   9.877 -0.6766 -1.0046 -0.5459
25478SOL    HW277876   1.797   5.622   9.733  0.7318 -1.4583 -1.0279
25479SOL     OW77877   5.691   2.529   6.530 -0.3214  0.0630 -0.6120
25479SOL    HW177878   5.624   2.475   6.488  0.1367 -1.3676  0.4423
25479SOL    HW277879   5.644   2.609   6.555 -1.4200 -0.5156 -0.7283
25480SOL     OW77880   0.867   2.732  10.375  0.3817  0.1864 -0.1873
25480SOL    HW177881   0.891   2.639  10.378 -0.3209 -0.0219 -0.7459
25480SOL    HW277882   0.775   2.732  10.350  0.5346  1.0525 -0.8123
25481SOL     OW77883   7.467   1.740  11.002 -0.3990  0.1216  0.1356
25481SOL    HW177884   7.394   1.678  11.006  0.3486 -0.6963  2.1422
25481SOL    HW277885   7.428   1.823  11.029 -0.3889 -0.5758  2.5011
25482SOL     OW77886   2.891   5.397   3.181  0.0048 -0.4046 -0.2586
25482SOL    HW177887   2.954   5.366   3.247  0.1185 -0.7483 -0.5248
25482SOL    HW277888   2.875   5.320   3.126  0.0519 -0.0716 -0.7398
25483SOL     OW77889   7.525   4.521   0.007  0.1419  0.2157  0.1228
25483SOL    HW177890   7.619   4.502   0.006  0.0703 -0.1303 -0.4894
25483SOL    HW277891   7.487   4.459  -0.055 -0.4461  0.6049  0.0823
25484SOL     OW77892   0.408   6.852   0.044 -0.0291  0.1141  0.2684
25484SOL    HW177893   0.367   6.768   0.024 -1.1449  0.5800  0.5345
25484SOL    HW277894   0.336   6.915   0.045  0.6060  0.8707  1.2723
25485SOL     OW77895   1.906   2.984   3.509 -0.1521 -0.3817  0.4427
25485SOL    HW177896   1.973   3.047   3.535 -0.2932  0.3995 -0.9550
25485SOL    HW277897   1.909   2.916   3.576  2.9300 -1.0586 -0.1996
25486SOL     OW77898   3.194   6.669   3.850 -0.5060  0.4870 -0.2711
25486SOL    HW177899   3.221   6.617   3.774 -0.2410 -0.2605  0.3285
25486SOL    HW277900   3.098   6.664   3.849 -0.4894  0.1459 -0.3269
25487SOL     OW77901   3.354   5.798   8.281 -0.2597  0.3339  0.4720
25487SOL    HW177902   3.408   5.823   8.206 -1.3240  0.7875 -0.1690
25487SOL    HW277903   3.410   5.813   8.357  1.9321 -2.8180 -0.2904
25488SOL     OW77904   3.946   6.699   1.186  0.2789  0.1539 -0.1227
25488SOL    HW177905   3.869   6.652   1.218  0.7548 -0.2013  0.5163
25488SOL    HW277906   3.997   6.633   1.140  0.1327  0.4240 -0.6821
25489SOL     OW77907   5.219   7.481  12.466  0.3779 -0.0278  0.4430
25489SOL    HW177908   5.203   7.473  12.560 -0.5913 -3.6865  0.1413
25489SOL    HW277909   5.132   7.485  12.427  0.7593  1.0315 -0.3313
25490SOL     OW77910   6.998   2.909  10.848  0.3986  0.0219  0.2294
25490SOL    HW177911   6.957   2.972  10.908 -0.0861  2.4517 -2.4598
25490SOL    HW277912   7.091   2.931  10.849 -0.0685  2.8411 -2.6964
25491SOL     OW77913   3.266   0.579   1.962  0.2307  0.0554  0.2319
25491SOL    HW177914   3.312   0.510   1.915  3.4578  0.5795  2.3489
25491SOL    HW277915   3.253   0.648   1.896  0.3809 -1.0144 -0.9654
25492SOL     OW77916   7.178   0.339   1.750  0.1133  0.7103 -0.6442
25492SOL    HW177917   7.191   0.249   1.720  1.1444  0.2783  0.9576
25492SOL    HW277918   7.199   0.393   1.674  0.8985 -0.3640 -1.2187
25493SOL     OW77919   0.242   4.312   7.079  1.0798  0.0638  0.0037
25493SOL    HW177920   0.309   4.341   7.141  1.3448 -0.0443 -0.2303
25493SOL    HW277921   0.167   4.369   7.097  1.8239  1.3853 -0.9210
25494SOL     OW77922   0.926   0.716   4.844 -0.4253  0.3193  0.3738
25494SOL    HW177923   0.865   0.786   4.821  0.6156  0.9564 -0.5986
25494SOL    HW277924   0.973   0.749   4.921 -1.0215  0.0089  0.8694
25495SOL     OW77925   4.979   3.224   0.607  0.0481  0.1127 -0.1869
25495SOL    HW177926   4.893   3.216   0.647  0.6266 -0.7344  0.9539
25495SOL    HW277927   4.986   3.316   0.581 -0.8128  0.4127  0.6003
25496SOL     OW77928   6.147   7.332   9.581 -0.3483  0.6337 -0.2937
25496SOL    HW177929   6.064   7.299   9.616  0.7369 -1.8623  0.1545
25496SOL    HW277930   6.186   7.378   9.655  0.7697 -2.4049  1.1776
25497SOL     OW77931   2.565   1.253   3.730  0.2458 -0.2259  0.8181
25497SOL    HW177932   2.516   1.334   3.727 -1.3415 -1.1638  0.0637
25497SOL    HW277933   2.502   1.187   3.760  0.6301 -1.6900 -1.2906
25498SOL     OW77934   0.018   7.753   1.683 -0.2158  0.1899 -0.4227
25498SOL    HW177935   0.036   7.830   1.628  0.5970 -0.2695 -0.8302
25498SOL    HW277936   0.082   7.688   1.653 -0.6370 -0.5102  0.1844
25499SOL     OW77937   3.786   6.977   5.475  0.5170  0.4467  0.3596
25499SOL    HW177938   3.724   6.904   5.467 -0.3419  1.2438 -0.4381
25499SOL    HW277939   3.734   7.050   5.508  1.2447  0.8746  0.5953
25500SOL     OW77940   5.654   3.980   2.820  0.7388  0.3754 -0.0534
25500SOL    HW177941   5.592   4.009   2.887 -0.3187  0.0195 -0.8456
25500SOL    HW277942   5.675   4.060   2.771 -0.1070  0.2787 -0.5845
25501SOL     OW77943   5.294   0.999   5.377 -0.2240  0.9093  0.2436
25501SOL    HW177944   5.366   0.955   5.421  0.7808  0.4497 -1.7468
25501SOL    HW277945   5.241   0.929   5.340 -0.2042  1.2883 -0.5380
25502SOL     OW77946   6.163   5.638   8.486 -0.2534  0.2838 -0.0588
25502SOL    HW177947   6.144   5.552   8.524  1.2622  0.2784  0.8042
25502SOL    HW277948   6.210   5.618   8.405  0.3631  0.2607  0.2886
25503SOL     OW77949   7.363   0.585   0.918 -0.2835  0.1332  0.5157
25503SOL    HW177950   7.421   0.643   0.968 -0.9773  1.9505 -0.6824
25503SOL    HW277951   7.422   0.538   0.859  0.1811  0.6887  0.5210
25504SOL     OW77952   7.593   6.174   5.737 -0.2738  0.0897  0.5884
25504SOL    HW177953   7.498   6.185   5.727 -0.1581 -0.1943 -1.3635
25504SOL    HW277954   7.630   6.232   5.670  0.8769 -0.6107  0.5931
25505SOL     OW77955   1.738   3.136   2.262 -0.4302 -0.7587 -0.1553
25505SOL    HW177956   1.808   3.196   2.287  0.1072 -0.8439 -1.4166
25505SOL    HW277957   1.671   3.148   2.330  0.3194  0.1410  0.4463
25506SOL     OW77958   0.548   0.571   8.002 -0.0915 -0.3677  0.0599
25506SOL    HW177959   0.538   0.552   7.908  0.6531 -1.2785  0.1460
25506SOL    HW277960   0.459   0.566   8.036 -0.4633  0.6321 -0.6975
25507SOL     OW77961   3.732   1.346   3.299  0.8116  0.7858 -0.2435
25507SOL    HW177962   3.824   1.341   3.324  1.1686  1.6165 -1.2984
25507SOL    HW277963   3.730   1.409   3.227 -0.5393  0.5393 -0.4565
25508SOL     OW77964   5.920   1.623   7.975 -0.0893 -0.5652  0.7057
25508SOL    HW177965   5.929   1.563   7.901 -2.2121 -1.3177  1.0028
25508SOL    HW277966   6.001   1.675   7.973  0.1635 -0.9091 -1.8039
25509SOL     OW77967   3.386   7.233   4.432  0.6421 -0.8899 -0.2869
25509SOL    HW177968   3.344   7.150   4.453  1.5376 -0.7510  2.4655
25509SOL    HW277969   3.475   7.210   4.407  1.7644 -0.7766  3.0660
25510SOL     OW77970   6.408   2.732   2.424 -0.3975  0.3224  0.4571
25510SOL    HW177971   6.360   2.761   2.346 -0.9794 -0.8448  0.3498
25510SOL    HW277972   6.499   2.759   2.408 -0.7553  1.3148  0.0146
25511SOL     OW77973   1.382   1.341   3.453 -0.2235  0.1892 -0.7261
25511SOL    HW177974   1.477   1.334   3.464 -0.3795 -0.7525  0.1048
25511SOL    HW277975   1.367   1.327   3.360  0.3656 -0.7333 -0.6878
25512SOL     OW77976   1.496   6.560   9.176 -0.1511 -0.2400 -0.4818
25512SOL    HW177977   1.475   6.470   9.153  2.2528 -1.4972  1.7375
25512SOL    HW277978   1.452   6.575   9.260 -1.4919  1.1405 -1.3689
25513SOL     OW77979   5.646   2.506   8.497 -0.0176 -0.1514  0.0711
25513SOL    HW177980   5.634   2.519   8.403  0.4557 -0.8134 -0.0858
25513SOL    HW277981   5.559   2.485   8.530 -0.4723  1.5085  0.0371
25514SOL     OW77982   1.255   4.305   6.317 -0.4243  0.1110 -0.1272
25514SOL    HW177983   1.313   4.229   6.326  0.0001  0.1675 -2.0365
25514SOL    HW277984   1.312   4.381   6.332 -0.0639  0.1435 -1.4749
25515SOL     OW77985   5.571   1.433   2.213 -0.6186 -0.2007  0.2630
25515SOL    HW177986   5.575   1.520   2.173  0.5281 -0.7932 -0.9868
25515SOL    HW277987   5.621   1.377   2.154  0.0226 -1.3935  1.8693
25516SOL     OW77988   7.736   4.339   5.501 -0.9265  0.3664  0.1623
25516SOL    HW177989   7.830   4.356   5.496 -0.4998 -1.4084  1.1034
25516SOL    HW277990   7.699   4.417   5.543 -0.1081  1.6895 -1.4795
25517SOL     OW77991   2.379   1.522  11.435 -0.0710 -0.0313  0.1540
25517SOL    HW177992   2.301   1.474  11.463  0.6058 -1.4686 -0.3158
25517SOL    HW277993   2.436   1.455  11.398  0.3405  1.3418 -1.8457
25518SOL     OW77994   4.203   1.052   0.739  0.2092 -0.2462 -0.3988
25518SOL    HW177995   4.269   1.054   0.670  1.5814 -2.5088  0.7240
25518SOL    HW277996   4.242   1.101   0.812  0.2438 -0.7722 -0.0590
25519SOL     OW77997   4.877   5.386   2.050  0.3488  0.0718  0.6372
25519SOL    HW177998   4.817   5.456   2.025  0.6746 -0.1093 -0.7330
25519SOL    HW277999   4.962   5.415   2.018  0.0514 -2.1439 -2.5719
25520SOL     OW78000   1.269   6.419   4.843  0.7243  0.4624 -0.1050
25520SOL    HW178001   1.305   6.507   4.826  2.2740 -0.2649 -0.8160
25520SOL    HW278002   1.245   6.386   4.757  2.8864 -0.8917 -0.2785
25521SOL     OW78003   5.506   6.758   4.718  0.0956  0.7806  0.3729
25521SOL    HW178004   5.528   6.697   4.647 -0.5339 -0.4773  1.2466
25521SOL    HW278005   5.416   6.785   4.700  0.0622  0.7490  0.4916
25522SOL     OW78006   3.311   1.590   6.274  0.0191 -0.0986 -0.2570
25522SOL    HW178007   3.307   1.578   6.369 -0.2101  1.6845 -0.0084
25522SOL    HW278008   3.267   1.513   6.238  1.2890 -1.4665  1.0112
25523SOL     OW78009   0.172   4.711   3.761  0.0217 -0.3596 -0.1783
25523SOL    HW178010   0.240   4.763   3.802 -0.1395 -0.4980  0.2747
25523SOL    HW278011   0.095   4.769   3.759  0.2481 -0.0740 -1.0279
25524SOL     OW78012   7.521   5.735  11.933  0.2289 -0.1118  0.1124
25524SOL    HW178013   7.458   5.737  11.860 -1.6378 -3.3492  1.4126
25524SOL    HW278014   7.507   5.818  11.979 -1.9138  0.0307 -0.6558
25525SOL     OW78015   3.128   6.331   7.759 -0.2267  0.2693 -0.2960
25525SOL    HW178016   3.068   6.403   7.777 -0.9708 -0.5877  0.7820
25525SOL    HW278017   3.071   6.254   7.755  0.8894 -0.7817  2.1085
25526SOL     OW78018   7.512   3.953   2.012 -0.2422 -0.5470  0.4365
25526SOL    HW178019   7.556   4.027   2.055  0.1730 -1.5702  1.8271
25526SOL    HW278020   7.558   3.943   1.929  0.3548  0.1247  0.6730
25527SOL     OW78021   3.760   4.093   0.501  0.2338 -0.2180 -0.0803
25527SOL    HW178022   3.796   4.072   0.415  0.1061 -1.5549  0.1682
25527SOL    HW278023   3.666   4.081   0.491 -0.1737  2.7617 -0.5875
25528SOL     OW78024   6.829   1.638   3.834 -0.2595  0.8943  0.0538
25528SOL    HW178025   6.886   1.651   3.909  0.7608 -1.2479 -0.2628
25528SOL    HW278026   6.743   1.621   3.872 -0.2847  2.1626  0.6117
25529SOL     OW78027   6.416   2.366   3.674 -0.5608 -0.0981  0.4151
25529SOL    HW178028   6.448   2.295   3.619 -0.9617 -0.3844  0.5493
25529SOL    HW278029   6.371   2.323   3.746 -1.2571  0.2845  0.2264
25530SOL     OW78030   1.191   2.699   1.994 -0.1872  0.0842 -0.2413
25530SOL    HW178031   1.178   2.648   1.913  0.5958 -1.5449  0.6136
25530SOL    HW278032   1.269   2.751   1.977  1.3009 -1.8949  0.1864
25531SOL     OW78033   1.652   0.936   2.093 -0.2365  0.4602 -0.2936
25531SOL    HW178034   1.746   0.951   2.080  0.0834 -0.6900  0.5096
25531SOL    HW278035   1.609   1.009   2.048  1.0810  1.6884  0.3695
25532SOL     OW78036   6.123   4.098  10.572  0.0255  0.1665 -0.0297
25532SOL    HW178037   6.046   4.155  10.580 -1.1046 -1.2549 -0.3697
25532SOL    HW278038   6.088   4.009  10.575  1.8556 -0.5812  1.7776
25533SOL     OW78039   7.252   7.474   7.738  0.4818  0.0933 -0.5228
25533SOL    HW178040   7.329   7.431   7.774  0.0143  0.6726  1.2672
25533SOL    HW278041   7.209   7.407   7.685  0.4739 -1.2823  1.1401
25534SOL     OW78042   0.298   0.027   2.445 -0.1124  0.1543  0.5475
25534SOL    HW178043   0.280  -0.007   2.357  3.1216  1.2628 -0.6675
25534SOL    HW278044   0.342  -0.045   2.490 -0.2318  0.1726  0.6973
25535SOL     OW78045   6.053   4.753  10.663 -0.1383  0.2487 -0.3937
25535SOL    HW178046   6.123   4.818  10.650 -0.6865  0.6979 -1.1642
25535SOL    HW278047   6.001   4.789  10.735  0.0593  0.2351 -0.2436
25536SOL     OW78048   4.051   1.427  11.066  0.1529 -0.1688 -0.1382
25536SOL    HW178049   4.081   1.375  10.990  0.1164 -0.8288  0.2889
25536SOL    HW278050   3.960   1.449  11.046  0.3832  0.3522 -0.6487
25537SOL     OW78051   7.632   0.554   8.921  0.6597  0.6726  0.3878
25537SOL    HW178052   7.691   0.602   8.864  0.3392  0.0993 -0.4501
25537SOL    HW278053   7.551   0.604   8.920  0.1651 -0.1176 -0.8789
25538SOL     OW78054   1.685   3.365  11.140 -0.6255  0.2505  0.3788
25538SOL    HW178055   1.665   3.312  11.217  0.2991  0.1796  0.5826
25538SOL    HW278056   1.659   3.454  11.164 -1.9979 -0.0425  0.1057
25539SOL     OW78057   0.339   1.348   3.272  0.1075 -0.3310  0.5438
25539SOL    HW178058   0.335   1.293   3.193 -0.0375  1.1694 -0.5224
25539SOL    HW278059   0.328   1.286   3.344 -0.6333 -1.6437 -0.6406
25540SOL     OW78060   3.800   7.504  11.438 -0.2099  0.0547 -0.3497
25540SOL    HW178061   3.722   7.466  11.478  0.5242 -0.2488  0.8352
25540SOL    HW278062   3.788   7.599  11.449 -0.0877 -0.0195  0.4658
25541SOL     OW78063   0.870   1.612   0.132 -0.3034 -0.5802 -0.3717
25541SOL    HW178064   0.828   1.696   0.151 -1.1112 -0.6934 -1.5725
25541SOL    HW278065   0.810   1.568   0.072 -0.3531 -2.4262  0.9378
25542SOL     OW78066   6.564   7.306  10.269  0.1643 -0.1420 -0.8482
25542SOL    HW178067   6.484   7.307  10.322 -0.2898  0.2356 -1.5300
25542SOL    HW278068   6.572   7.215  10.240  1.5605 -0.8930  1.5183
25543SOL     OW78069   4.521   6.497   8.802  0.1263  0.1108  0.1758
25543SOL    HW178070   4.544   6.405   8.789 -0.8371 -0.2212  0.6854
25543SOL    HW278071   4.604   6.540   8.823  0.7258 -0.4617 -0.9272
25544SOL     OW78072   5.201   5.183   0.640 -0.4669  0.3166  0.4697
25544SOL    HW178073   5.135   5.130   0.684  1.3943 -2.5269  0.1245
25544SOL    HW278074   5.199   5.153   0.549  0.6461  0.8369  0.2569
25545SOL     OW78075   2.353   0.114   5.070  0.1002 -0.1803  0.3619
25545SOL    HW178076   2.327   0.206   5.061 -0.6640 -0.5655 -2.2185
25545SOL    HW278077   2.280   0.065   5.031  0.6911 -1.8589  1.2950
25546SOL     OW78078   3.164   5.826   1.646 -0.5516  0.6124  0.3666
25546SOL    HW178079   3.196   5.742   1.612 -0.4114 -0.2380  2.4532
25546SOL    HW278080   3.231   5.889   1.619 -0.7189  0.1335 -1.3383
25547SOL     OW78081   6.914   0.859   9.202 -0.3939 -0.5850 -0.1914
25547SOL    HW178082   6.890   0.894   9.287  1.6226 -1.5298  0.8375
25547SOL    HW278083   6.920   0.936   9.145 -0.1198  0.2571  0.9446
25548SOL     OW78084   4.862   5.330   4.753  0.1207  0.3106 -0.1591
25548SOL    HW178085   4.783   5.377   4.780 -0.0248  0.5323 -0.9643
25548SOL    HW278086   4.934   5.379   4.793  0.2486  3.1531 -3.4345
25549SOL     OW78087   0.555   4.261   4.392  0.6453  0.1044  0.9100
25549SOL    HW178088   0.557   4.167   4.371  1.3282 -0.3030  2.6158
25549SOL    HW278089   0.518   4.302   4.314 -0.5204 -1.6712  0.4609
25550SOL     OW78090   4.094   7.060   2.613 -0.0044  0.2484  0.6449
25550SOL    HW178091   4.063   7.131   2.670  0.5714  2.1436 -1.2811
25550SOL    HW278092   4.182   7.086   2.588  0.3883 -1.4050  0.2181
25551SOL     OW78093   0.901   5.621   0.505  0.5806  0.1768 -0.5156
25551SOL    HW178094   0.926   5.570   0.582  0.7303 -0.7225 -1.1414
25551SOL    HW278095   0.822   5.669   0.532  0.6960 -0.0401  0.2239
25552SOL     OW78096   2.255   2.904   5.920 -0.2594  0.2987 -0.0044
25552SOL    HW178097   2.276   2.882   5.829 -0.8532  1.8687 -0.5639
25552SOL    HW278098   2.178   2.851   5.940  0.6471 -1.0340  0.0460
25553SOL     OW78099   5.693   6.142   1.448  0.1101  0.1367  0.0986
25553SOL    HW178100   5.603   6.163   1.423  0.5846  1.4580 -0.6070
25553SOL    HW278101   5.697   6.160   1.542  0.0219  1.6007 -0.1538
25554SOL     OW78102   7.172   7.571   5.364  0.1847 -0.6044  0.7243
25554SOL    HW178103   7.103   7.595   5.303  0.8415 -0.4124  0.0411
25554SOL    HW278104   7.129   7.513   5.427 -0.4344 -1.0838 -0.1170
25555SOL     OW78105   7.960   6.130   8.812 -1.1115 -0.2506 -0.3633
25555SOL    HW178106   8.032   6.096   8.760 -0.5551  2.3245 -1.3932
25555SOL    HW278107   7.999   6.150   8.897 -1.4402 -2.0217  0.2467
25556SOL     OW78108   5.493   1.364   5.544 -0.2909 -0.4158 -0.5975
25556SOL    HW178109   5.413   1.386   5.592  0.1602  1.9422 -0.7908
25556SOL    HW278110   5.463   1.308   5.472 -1.8866  0.8434 -0.9815
25557SOL     OW78111   4.438   3.999   2.008  0.6358  0.2431 -0.2930
25557SOL    HW178112   4.455   3.948   2.088  1.8037 -0.4478 -0.9511
25557SOL    HW278113   4.521   3.995   1.959  0.2207  1.4003 -1.1340
25558SOL     OW78114   7.740   2.572  11.372  0.0957  0.0735 -0.2882
25558SOL    HW178115   7.831   2.546  11.387  0.3258  1.1452  0.2702
25558SOL    HW278116   7.695   2.555  11.455  0.0650  0.6785 -0.1779
25559SOL     OW78117   6.425   0.419   2.215  0.1117 -0.5556  0.6359
25559SOL    HW178118   6.350   0.400   2.158  1.1977  3.1089 -2.4724
25559SOL    HW278119   6.492   0.358   2.188 -0.2051 -0.5224 -0.2714
25560SOL     OW78120   4.533   2.666   6.139 -0.2317  0.1508 -0.5320
25560SOL    HW178121   4.540   2.698   6.229  0.6362  0.3431 -0.6541
25560SOL    HW278122   4.519   2.745   6.086 -2.8803 -0.1438 -0.3904
25561SOL     OW78123   5.005   7.618  12.231  0.3551 -0.1643 -0.0145
25561SOL    HW178124   5.008   7.541  12.174  1.1343 -0.4861  0.4485
25561SOL    HW278125   5.080   7.670  12.205  2.6112 -1.7742  2.6758
25562SOL     OW78126   6.954   0.343   7.318  0.0710  0.3698  0.0410
25562SOL    HW178127   7.035   0.339   7.268  0.0948  0.8364  0.0431
25562SOL    HW278128   6.961   0.270   7.380 -0.8490 -1.5189 -1.9489
25563SOL     OW78129   4.927   1.322   0.105 -0.6014  0.3739  0.1198
25563SOL    HW178130   4.982   1.384   0.057  1.3370 -2.4072 -1.6047
25563SOL    HW278131   4.950   1.336   0.197  2.0388  0.3273 -0.4420
25564SOL     OW78132   6.922   3.203   1.603  0.9813  0.1487  0.1316
25564SOL    HW178133   6.881   3.148   1.536  0.0018  0.2985  0.5835
25564SOL    HW278134   6.964   3.274   1.554 -1.0741  1.1530 -0.2794
25565SOL     OW78135   0.091   4.131   8.649  0.1436  0.3351  0.3706
25565SOL    HW178136   0.025   4.095   8.707  0.2484 -2.4433 -1.0636
25565SOL    HW278137   0.171   4.082   8.669  0.1689 -0.7702 -2.0478
25566SOL     OW78138   7.930   7.853   5.277  0.5052 -0.0681 -0.0592
25566SOL    HW178139   7.980   7.934   5.263  0.0312  0.1201 -0.7228
25566SOL    HW278140   7.853   7.863   5.221 -1.0320  0.3011  2.0125
25567SOL     OW78141   3.316   0.634   2.774 -0.0400  0.2533 -0.2791
25567SOL    HW178142   3.313   0.582   2.693  2.5638 -0.2553 -0.1547
25567SOL    HW278143   3.275   0.579   2.840 -1.0757  0.1482 -0.9929
25568SOL     OW78144   7.090   1.254   4.020  0.0511  0.7456 -0.4613
25568SOL    HW178145   6.998   1.257   3.996  0.3314  0.3640 -1.6487
25568SOL    HW278146   7.120   1.168   3.989  0.1749 -0.3277  2.3433
25569SOL     OW78147   1.635   5.911   7.163 -0.2152  0.2741  0.3409
25569SOL    HW178148   1.642   5.946   7.074  0.0932  1.1780  0.7093
25569SOL    HW278149   1.560   5.957   7.200 -0.1637  0.1105  0.6473
25570SOL     OW78150   5.624   5.027   3.626 -0.0793 -0.4662 -0.4712
25570SOL    HW178151   5.691   5.032   3.557 -0.3464 -1.0305 -0.7771
25570SOL    HW278152   5.569   5.104   3.611  1.4450  0.9842  0.8167
25571SOL     OW78153   5.180   1.100   0.765  0.1465  0.1722 -0.3129
25571SOL    HW178154   5.233   1.090   0.686  0.1788 -0.8921 -0.1745
25571SOL    HW278155   5.196   1.190   0.794 -0.1431  0.7056 -1.7102
25572SOL     OW78156   1.913   6.734   6.166 -0.4458 -0.5086  0.2501
25572SOL    HW178157   1.919   6.753   6.073 -1.2956 -0.6574  0.1600
25572SOL    HW278158   1.837   6.783   6.196 -1.0981 -1.6773  0.5550
25573SOL     OW78159   2.014   5.511   1.452 -0.4202 -0.2120 -0.5267
25573SOL    HW178160   2.074   5.530   1.380 -0.1717 -0.6074 -0.4245
25573SOL    HW278161   1.995   5.596   1.491 -0.3248 -0.0285 -0.8745
25574SOL     OW78162   6.678   0.797   6.868 -0.0945 -0.3148  0.1971
25574SOL    HW178163   6.671   0.835   6.956  0.8187 -2.4742  1.2559
25574SOL    HW278164   6.646   0.707   6.877 -1.7067 -0.0958 -2.1194
25575SOL     OW78165   5.354   2.908   6.150 -0.6853  0.6748  0.1005
25575SOL    HW178166   5.398   2.931   6.232  1.0830 -2.3598  0.1700
25575SOL    HW278167   5.274   2.864   6.178 -0.3122  0.0602  0.2328
25576SOL     OW78168   0.268   4.766  10.803 -0.0606  0.2495  0.2309
25576SOL    HW178169   0.260   4.860  10.817  1.7531  0.7690 -1.6641
25576SOL    HW278170   0.340   4.739  10.861  1.8440  0.8032 -1.7362
25577SOL     OW78171   3.051   2.395  11.749  0.5189 -0.7481  0.0781
25577SOL    HW178172   3.035   2.462  11.683  0.0089 -0.2426  0.7011
25577SOL    HW278173   2.968   2.347  11.755  0.3730 -0.4282  0.7440
25578SOL     OW78174   1.623   5.255   5.803 -0.0948  0.0361  0.1967
25578SOL    HW178175   1.711   5.287   5.823  0.0080 -0.0030 -0.1970
25578SOL    HW278176   1.628   5.161   5.818  0.1454 -0.0830 -0.5673
25579SOL     OW78177   3.375   0.442   0.942  0.0616 -0.1864  0.4430
25579SOL    HW178178   3.307   0.509   0.935 -1.3910 -1.5229  1.0478
25579SOL    HW278179   3.425   0.451   0.861 -0.2677  1.4223  0.3787
25580SOL     OW78180   4.146   3.707  10.957  0.0292  0.5066  0.0611
25580SOL    HW178181   4.056   3.679  10.970  0.7420 -1.9323  0.2058
25580SOL    HW278182   4.182   3.646  10.893  1.5292  1.5812 -0.2066
25581SOL     OW78183   3.160   1.743   9.872  0.6152 -0.3465  0.3004
25581SOL    HW178184   3.240   1.788   9.843  1.2770 -1.0267  1.0099
25581SOL    HW278185   3.186   1.651   9.879  0.4511 -0.2828  2.7321
25582SOL     OW78186   4.890   5.846   3.585 -0.1816 -0.7178  0.3127
25582SOL    HW178187   4.907   5.929   3.629 -1.3959  0.9443 -2.0798
25582SOL    HW278188   4.843   5.794   3.650 -0.9782  1.1695  1.3596
25583SOL     OW78189   6.595   5.338  10.301  0.4923 -0.5066  0.0817
25583SOL    HW178190   6.573   5.337  10.207 -0.7240 -0.7953  0.3432
25583SOL    HW278191   6.675   5.286  10.307  0.4058 -0.7647 -0.7637
25584SOL     OW78192   3.601   7.747   3.409 -0.5997 -0.0983  0.0021
25584SOL    HW178193   3.674   7.801   3.381 -1.1591  0.4084 -0.5156
25584SOL    HW278194   3.529   7.809   3.424 -1.0450 -0.6257  0.0989
25585SOL     OW78195   1.080   3.101   3.207 -0.3809  0.5878  0.1819
25585SOL    HW178196   1.045   3.160   3.141  0.9056  0.4409 -0.6663
25585SOL    HW278197   1.009   3.038   3.223 -1.4767  1.8587  0.5335
25586SOL     OW78198   5.392   5.192  10.050 -0.0556  0.1427  0.2348
25586SOL    HW178199   5.475   5.239  10.045 -2.0035  3.7615 -1.4356
25586SOL    HW278200   5.394   5.131   9.976  0.7176  0.9466 -0.4296
25587SOL     OW78201   3.218   1.199   0.449 -0.0355 -0.4800  0.2334
25587SOL    HW178202   3.225   1.283   0.495 -1.5177 -0.0841 -0.1862
25587SOL    HW278203   3.302   1.189   0.405 -0.0926  1.1949 -0.3349
25588SOL     OW78204   1.882   1.872   5.323 -0.0565 -0.2420  0.1728
25588SOL    HW178205   1.843   1.844   5.406 -0.4390  0.2013  0.1461
25588SOL    HW278206   1.950   1.806   5.305 -3.0360 -3.1745 -1.5780
25589SOL     OW78207   2.700   7.985  11.403 -0.4884 -0.3812 -0.0528
25589SOL    HW178208   2.745   7.996  11.319 -0.3075  1.3832  0.2286
25589SOL    HW278209   2.716   7.894  11.427 -0.4799 -0.9099 -1.8847
25590SOL     OW78210   1.033   1.449  10.839 -0.2956 -0.2412 -0.1704
25590SOL    HW178211   0.961   1.497  10.881  0.1660  0.7024 -0.4154
25590SOL    HW278212   1.110   1.472  10.892  0.1063  0.0983 -0.8961
25591SOL     OW78213   1.460   0.503   4.143  0.1883  0.4683 -0.1202
25591SOL    HW178214   1.486   0.415   4.173 -2.3852 -0.1908  0.4771
25591SOL    HW278215   1.512   0.563   4.196  0.7220 -0.7232  0.7511
25592SOL     OW78216   7.388   2.073   4.012 -0.4141  0.2797  1.1055
25592SOL    HW178217   7.391   2.002   3.948  0.9662  1.1507  0.1387
25592SOL    HW278218   7.318   2.049   4.072 -1.6436 -0.6590 -0.6309
25593SOL     OW78219   0.167   6.617   3.018  0.2850 -0.2112  0.1716
25593SOL    HW178220   0.132   6.664   2.943  1.9571 -1.4271 -1.4393
25593SOL    HW278221   0.109   6.542   3.030 -0.0975  0.0948  0.2284
25594SOL     OW78222   3.530   5.621  11.592  0.0392 -0.0439 -0.0285
25594SOL    HW178223   3.479   5.544  11.568  0.6277 -0.8468  1.2001
25594SOL    HW278224   3.611   5.586  11.627  0.8192  1.1794 -0.5516
25595SOL     OW78225   2.830   1.481   1.145 -0.3525 -0.3482 -0.5423
25595SOL    HW178226   2.791   1.565   1.119 -2.1728 -0.9881 -0.0676
25595SOL    HW278227   2.759   1.436   1.191 -0.0461 -2.8935 -2.3650
25596SOL     OW78228   4.747   5.756   1.447  0.5654  0.1109 -0.0957
25596SOL    HW178229   4.769   5.778   1.356  0.5270  0.6016  0.0105
25596SOL    HW278230   4.693   5.829   1.476 -1.4275 -1.1569 -0.4159
25597SOL     OW78231   3.124   3.372   9.097 -0.4421  0.1024  0.9069
25597SOL    HW178232   3.204   3.424   9.097  0.3430 -1.0686  0.6953
25597SOL    HW278233   3.059   3.429   9.056  0.6153  0.5913 -0.1590
25598SOL     OW78234   4.450   1.252   8.209 -0.2809 -0.8109 -0.1415
25598SOL    HW178235   4.380   1.287   8.265 -0.1235 -0.1966 -0.3185
25598SOL    HW278236   4.433   1.158   8.205 -0.0596 -0.9214  1.2559
25599SOL     OW78237   4.302   7.511   0.236 -0.0837 -0.5878 -0.2591
25599SOL    HW178238   4.236   7.452   0.272 -0.8735 -0.6046 -1.6290
25599SOL    HW278239   4.266   7.599   0.251 -0.1832 -0.5752 -0.5629
25600SOL     OW78240   4.065   2.436   1.257 -0.1753  0.2234 -0.0273
25600SOL    HW178241   4.154   2.435   1.223 -0.0687  1.5575  0.1645
25600SOL    HW278242   4.034   2.346   1.247  2.1160 -0.9608  2.4663
25601SOL     OW78243   2.266   2.023   7.263  0.0817  0.0830 -0.1179
25601SOL    HW178244   2.335   2.088   7.276 -0.0956  0.2641 -0.0780
25601SOL    HW278245   2.311   1.947   7.227  0.0857  0.6790 -1.3974
25602SOL     OW78246   2.024   5.279   9.252 -0.2754  0.2770  0.5587
25602SOL    HW178247   2.062   5.265   9.338  0.0922  2.7144  0.8550
25602SOL    HW278248   2.076   5.224   9.193  0.0284 -0.7426  1.7411
25603SOL     OW78249   3.816   3.342   7.357 -0.1227 -0.0829 -0.1671
25603SOL    HW178250   3.761   3.419   7.361 -0.0296 -0.0578  1.0830
25603SOL    HW278251   3.783   3.292   7.282  0.0858  1.3506 -1.2451
25604SOL     OW78252   4.118   2.101   1.652 -0.0979 -0.0557  0.2555
25604SOL    HW178253   4.157   2.173   1.601  0.2055 -0.7373 -0.4891
25604SOL    HW278254   4.126   2.025   1.595 -2.6511 -0.2216 -0.0089
25605SOL     OW78255   1.524   1.430   1.208  0.2236 -0.4103  0.2472
25605SOL    HW178256   1.573   1.379   1.273 -1.1340 -2.5118 -0.2856
25605SOL    HW278257   1.433   1.420   1.234 -0.2824 -0.6774 -1.5274
25606SOL     OW78258   6.221   2.641   0.898 -0.1403 -0.7102 -0.3073
25606SOL    HW178259   6.265   2.574   0.846  0.5297 -0.3565 -0.2142
25606SOL    HW278260   6.257   2.724   0.866 -2.7196 -0.1950 -2.1075
25607SOL     OW78261   0.761   4.635   5.629 -0.2637  0.0641 -0.4538
25607SOL    HW178262   0.817   4.558   5.638 -2.5237 -1.8778 -1.6271
25607SOL    HW278263   0.788   4.676   5.547 -0.5547 -0.9056 -1.0542
25608SOL     OW78264   1.569   3.041   8.985  0.1755 -0.5201  0.4382
25608SOL    HW178265   1.554   2.996   9.068 -1.1379 -0.1080  0.4394
25608SOL    HW278266   1.660   3.021   8.964  0.6672 -0.2737  2.1835
25609SOL     OW78267   0.008   2.291   0.417 -0.1597  0.3335  0.1071
25609SOL    HW178268  -0.024   2.202   0.399  0.0817  0.1695  0.4836
25609SOL    HW278269  -0.003   2.337   0.333 -0.9806  0.1661  0.1080
25610SOL     OW78270   6.948   1.951   8.248 -0.4971 -0.0016 -0.3752
25610SOL    HW178271   6.956   1.895   8.326  0.2755  0.3923 -0.1691
25610SOL    HW278272   6.874   1.914   8.200  0.1729 -1.3806 -0.3871
25611SOL     OW78273   5.256   2.561   3.524  0.2284  0.2243 -0.1620
25611SOL    HW178274   5.329   2.621   3.539  1.2581 -1.0984  0.2373
25611SOL    HW278275   5.182   2.604   3.568  1.1908  0.7130  1.0634
25612SOL     OW78276   7.915   6.748   0.080 -0.3819 -0.2474 -0.5233
25612SOL    HW178277   7.826   6.716   0.087 -1.0836  1.8227  0.8430
25612SOL    HW278278   7.958   6.721   0.161 -0.4062  0.5296 -0.2412
25613SOL     OW78279   0.921   6.739   2.113 -0.2795  0.3254 -0.3930
25613SOL    HW178280   0.926   6.692   2.197 -0.6465  1.0437  0.0458
25613SOL    HW278281   0.830   6.770   2.109  0.2896  2.1448 -0.0159
25614SOL     OW78282   5.118   6.262   9.800 -0.4468  0.2185 -0.3273
25614SOL    HW178283   5.088   6.205   9.872 -0.1443  0.9248  0.3671
25614SOL    HW278284   5.073   6.227   9.723 -0.3646 -0.8890  0.1010
25615SOL     OW78285   3.648   5.406   1.664  0.7468  0.2122 -0.0121
25615SOL    HW178286   3.581   5.348   1.702  0.2275  1.0958  0.4593
25615SOL    HW278287   3.731   5.361   1.681  0.3621 -0.3586  0.4111
25616SOL     OW78288   4.064   4.408   1.326 -0.4231  0.3728  0.9536
25616SOL    HW178289   4.007   4.469   1.280  0.8878  0.2274 -1.0169
25616SOL    HW278290   4.033   4.409   1.416 -1.3695  2.8267  0.6873
25617SOL     OW78291   2.304   7.869  12.155 -0.2113 -0.2221 -0.7976
25617SOL    HW178292   2.338   7.905  12.237 -0.5849 -0.6079 -0.4665
25617SOL    HW278293   2.210   7.884  12.158 -0.2070 -0.0679 -1.2501
25618SOL     OW78294   3.773   3.313  11.881 -0.2430  0.1778 -0.2400
25618SOL    HW178295   3.714   3.389  11.878 -1.9850 -1.1011 -0.2360
25618SOL    HW278296   3.770   3.276  11.793  0.3122 -0.0956 -0.1499
25619SOL     OW78297   6.397   6.732   0.772 -0.4224  0.1578 -0.2075
25619SOL    HW178298   6.378   6.698   0.860 -1.8693 -0.3069 -0.6671
25619SOL    HW278299   6.472   6.681   0.742 -2.5825 -2.8210 -0.9168
25620SOL     OW78300   6.273   4.981   1.363  0.3801  0.0202 -0.0381
25620SOL    HW178301   6.328   5.010   1.436  1.6280  1.0057 -1.3193
25620SOL    HW278302   6.300   4.891   1.348  0.8018  0.1197  0.1016
25621SOL     OW78303   1.914   4.774   1.128 -0.3268 -0.1773  0.0554
25621SOL    HW178304   1.889   4.863   1.104  1.8026 -0.2702 -2.9292
25621SOL    HW278305   1.843   4.719   1.093 -0.4860  0.1587 -0.1503
25622SOL     OW78306   4.999   5.761   8.064  0.0892 -0.2442 -0.5158
25622SOL    HW178307   4.926   5.820   8.046  0.2278  0.1176  0.0784
25622SOL    HW278308   5.076   5.817   8.062  0.1059 -0.1343  1.3011
25623SOL     OW78309   2.369   2.848   4.356  0.1399 -0.6219 -0.3631
25623SOL    HW178310   2.337   2.927   4.399  1.5630  0.1989 -0.7486
25623SOL    HW278311   2.444   2.877   4.305  1.9707 -2.5545  1.0592
25624SOL     OW78312   0.735   4.404   8.010  0.6537 -0.1993  0.4218
25624SOL    HW178313   0.662   4.449   8.054  2.2179  0.7977  2.1747
25624SOL    HW278314   0.693   4.351   7.943 -1.6389  0.7661  0.9667
25625SOL     OW78315   1.499   6.465  11.959 -0.5035 -0.1442  0.2840
25625SOL    HW178316   1.572   6.496  12.012  0.7376 -1.5184 -0.5449
25625SOL    HW278317   1.530   6.382  11.922 -2.9479 -1.4494  0.9151
25626SOL     OW78318   0.725   1.244   4.409  0.5028 -0.5273 -0.5871
25626SOL    HW178319   0.706   1.336   4.427  0.3674 -0.1478 -2.4211
25626SOL    HW278320   0.663   1.221   4.339  1.6326 -1.5200 -1.2946
25627SOL     OW78321   3.858   7.185   4.462  0.4286 -0.0770  0.3134
25627SOL    HW178322   3.845   7.189   4.557 -2.3138 -1.9623  0.1154
25627SOL    HW278323   3.937   7.133   4.451  0.0079 -1.0304  1.5688
25628SOL     OW78324   4.850   4.935   3.022 -0.7094 -0.1470 -0.4026
25628SOL    HW178325   4.943   4.934   2.998 -0.3406 -1.4368  0.9450
25628SOL    HW278326   4.818   5.019   2.989  0.9314  0.3355 -0.8732
25629SOL     OW78327   6.270   0.867   2.071  0.0243  0.0818 -0.6074
25629SOL    HW178328   6.244   0.907   2.155  0.3754  0.2885 -0.5958
25629SOL    HW278329   6.363   0.848   2.082 -0.0132 -0.2264 -0.8220
25630SOL     OW78330   6.356   4.226   2.309 -0.4173  0.0364  0.2189
25630SOL    HW178331   6.326   4.137   2.293  0.1839 -0.1632  0.1698
25630SOL    HW278332   6.282   4.281   2.282 -0.5074 -0.4159 -0.4948
25631SOL     OW78333   7.258   3.081   9.466  0.1834 -0.3959 -0.1823
25631SOL    HW178334   7.186   3.131   9.504 -0.2634  0.0667 -1.5550
25631SOL    HW278335   7.236   2.990   9.485  1.0642 -0.1248  2.4341
25632SOL     OW78336   3.202   2.809   4.352 -0.5488  0.0840 -0.6113
25632SOL    HW178337   3.256   2.872   4.305 -0.6487  1.3939  0.9363
25632SOL    HW278338   3.255   2.786   4.429  0.2578 -3.1227 -1.9502
25633SOL     OW78339   5.213   3.207   7.987 -0.3968  0.4870  0.2613
25633SOL    HW178340   5.292   3.232   7.939  0.6224 -1.7829  0.6201
25633SOL    HW278341   5.145   3.262   7.950  0.9200  0.9206 -1.7131
25634SOL     OW78342   2.203   3.106   6.701 -0.6241  0.0306 -0.3222
25634SOL    HW178343   2.204   3.022   6.656 -2.2656  0.4016 -1.1238
25634SOL    HW278344   2.110   3.126   6.714 -0.2750  1.7196 -0.1604
25635SOL     OW78345   0.092   0.615  10.980 -0.5514 -0.9721  0.2553
25635SOL    HW178346   0.148   0.569  11.043  2.2472  0.4244 -1.0565
25635SOL    HW278347   0.145   0.622  10.901 -1.5207  2.7495 -0.2443
25636SOL     OW78348   0.339   0.207   7.725  0.7789 -0.3542  0.3967
25636SOL    HW178349   0.257   0.257   7.725  1.2460  0.5091 -1.7245
25636SOL    HW278350   0.320   0.131   7.780 -0.6029  1.0985  2.0507
25637SOL     OW78351   7.098   5.017   2.431  0.1409 -0.4324  0.2911
25637SOL    HW178352   7.142   4.932   2.442  1.3930 -0.0386 -1.3502
25637SOL    HW278353   7.055   5.011   2.346  0.6854  0.7445 -0.0923
25638SOL     OW78354   1.231   5.644   4.114  0.3743 -0.3785  0.0131
25638SOL    HW178355   1.255   5.732   4.140  1.7620 -0.9032  0.5836
25638SOL    HW278356   1.154   5.623   4.167  1.4954 -0.4025  1.6901
25639SOL     OW78357   2.701   3.534   9.941  0.8551  0.3134  0.2762
25639SOL    HW178358   2.611   3.503   9.943  1.0581 -0.2846  0.3078
25639SOL    HW278359   2.736   3.502   9.857  0.8330  1.1375 -0.0595
25640SOL     OW78360   5.937   0.120   9.102  0.2258  0.4731  0.2767
25640SOL    HW178361   5.975   0.033   9.118  1.1357  0.9851  0.9332
25640SOL    HW278362   5.935   0.161   9.188  0.5899  1.4290 -0.1675
25641SOL     OW78363   5.237   6.622   2.969 -0.2865 -0.9096 -0.6445
25641SOL    HW178364   5.315   6.627   3.024 -0.2967 -0.3637 -0.6758
25641SOL    HW278365   5.192   6.542   2.998 -0.3918 -0.5310  0.2748
25642SOL     OW78366   6.179   2.093   3.125 -0.3268  0.4083 -0.4581
25642SOL    HW178367   6.216   2.154   3.188 -0.9498  0.3802 -0.0549
25642SOL    HW278368   6.098   2.063   3.166 -0.1452 -0.5115 -0.7517
25643SOL     OW78369   1.310   0.572   2.072  0.2838  0.1380  0.3047
25643SOL    HW178370   1.359   0.653   2.061 -0.2117  0.3696 -0.2810
25643SOL    HW278371   1.333   0.520   1.995  0.1975 -0.0644  0.4154
25644SOL     OW78372   2.367   0.537  12.058 -0.3872  0.1203  0.0887
25644SOL    HW178373   2.294   0.487  12.022 -0.0697 -0.1458 -0.1922
25644SOL    HW278374   2.335   0.628  12.059 -1.0406 -0.1104  0.8095
25645SOL     OW78375   7.944   4.834   9.990 -0.4852 -0.2608  0.8634
25645SOL    HW178376   7.966   4.922   9.961 -1.4200 -0.6622 -1.3177
25645SOL    HW278377   7.995   4.821  10.070  2.0556  1.1156 -0.4118
25646SOL     OW78378   4.406   7.415   2.135 -0.1762 -0.0025  0.0914
25646SOL    HW178379   4.498   7.418   2.160 -0.2200  0.1499  0.2324
25646SOL    HW278380   4.406   7.367   2.052  0.1214  0.7351 -0.3476
25647SOL     OW78381   7.309   0.053   2.288  0.3955 -0.3877  0.1820
25647SOL    HW178382   7.293   0.115   2.359 -1.2003  1.6023 -1.7978
25647SOL    HW278383   7.400   0.069   2.261  1.1589 -1.4474  1.9401
25648SOL     OW78384   0.749   2.569  11.008 -0.1484 -0.2329 -0.0328
25648SOL    HW178385   0.816   2.631  10.979 -0.3122 -0.2732 -0.5056
25648SOL    HW278386   0.726   2.598  11.097 -1.4596  1.4444 -0.8581
25649SOL     OW78387   5.125   5.405  10.581  0.3953  0.4604 -0.1549
25649SOL    HW178388   5.123   5.416  10.676 -0.7144  2.6247 -0.3881
25649SOL    HW278389   5.138   5.493  10.546  1.9476 -0.4177 -2.0267
25650SOL     OW78390   7.853   3.375   1.406  0.4711 -0.3645 -0.0162
25650SOL    HW178391   7.932   3.392   1.457  0.3906 -2.5949  0.9773
25650SOL    HW278392   7.880   3.313   1.338 -0.1264  0.0341 -0.6385
25651SOL     OW78393   6.015   2.536   7.512 -0.3298  0.1531  0.2276
25651SOL    HW178394   6.095   2.525   7.460 -0.7936 -1.6860 -0.1769
25651SOL    HW278395   6.023   2.623   7.551  0.8605  0.8754 -1.5090
25652SOL     OW78396   5.806   6.670   2.959  0.2853 -0.2766  0.2126
25652SOL    HW178397   5.758   6.688   3.039 -1.1758 -1.8436 -0.2639
25652SOL    HW278398   5.763   6.723   2.892  0.9527  0.3638  0.2744
25653SOL     OW78399   2.819   1.674  10.569 -0.1878  0.6146 -0.1985
25653SOL    HW178400   2.792   1.762  10.594 -3.1690  0.3265 -1.9071
25653SOL    HW278401   2.849   1.683  10.479 -2.5529 -0.3485 -1.1566
25654SOL     OW78402   2.992   6.367   5.407 -0.0473 -0.1903 -0.1076
25654SOL    HW178403   2.911   6.324   5.435 -0.8567  1.0859 -0.4161
25654SOL    HW278404   2.963   6.443   5.357  1.3405  0.4657  0.0380
25655SOL     OW78405   5.299   0.375  10.651  0.1249 -0.0928  0.1128
25655SOL    HW178406   5.291   0.432  10.574  1.1178  1.1608  0.8930
25655SOL    HW278407   5.372   0.413  10.701 -0.8031 -0.5894  1.9181
25656SOL     OW78408   6.735   0.808   7.684  0.1980  0.2662 -0.2186
25656SOL    HW178409   6.793   0.798   7.609 -1.0035 -0.9346 -1.0341
25656SOL    HW278410   6.663   0.863   7.652  1.4692  2.9721  1.1858
25657SOL     OW78411   1.030   0.768   9.905  0.2868  0.4846  0.1817
25657SOL    HW178412   0.938   0.794   9.911  0.2023  0.2073  0.1077
25657SOL    HW278413   1.077   0.833   9.957  0.1972  1.4281 -0.8831
25658SOL     OW78414   2.378   0.828   5.202  0.2629  0.3053 -0.3860
25658SOL    HW178415   2.429   0.818   5.123 -0.7974 -2.3643 -0.8309
25658SOL    HW278416   2.330   0.910   5.189  2.2965  1.4496 -1.1216
25659SOL     OW78417   1.184   2.286  11.193  0.1465  0.2760  0.4075
25659SOL    HW178418   1.200   2.197  11.164 -0.0664 -0.0577  1.2891
25659SOL    HW278419   1.094   2.286  11.224  0.0381  0.8868  0.1148
25660SOL     OW78420   5.138   4.234  12.014  0.1746 -0.4887 -0.2057
25660SOL    HW178421   5.050   4.222  12.048  0.3608 -0.0387  0.4612
25660SOL    HW278422   5.127   4.284  11.934 -0.0656  1.0190  0.7369
25661SOL     OW78423   5.183   0.147   1.339 -0.1676  1.1837 -0.0736
25661SOL    HW178424   5.258   0.204   1.320  0.1145  0.6266 -0.6676
25661SOL    HW278425   5.222   0.062   1.360 -0.5420  1.4075  1.6894
25662SOL     OW78426   1.962   1.841   1.798 -0.1711 -0.0508  0.6986
25662SOL    HW178427   2.012   1.874   1.873 -0.7770  2.1384  0.1949
25662SOL    HW278428   1.872   1.867   1.816 -0.4178 -0.0256 -0.5091
25663SOL     OW78429   2.368   7.642   4.658 -0.5021  0.1381 -0.4934
25663SOL    HW178430   2.381   7.556   4.620 -1.1980  0.6466 -1.9629
25663SOL    HW278431   2.456   7.673   4.679  0.3365  1.0728 -4.5911
25664SOL     OW78432   7.448   3.429   9.962  0.3383  0.0424  0.6120
25664SOL    HW178433   7.540   3.404   9.975  0.7693  0.7618 -0.8408
25664SOL    HW278434   7.398   3.362  10.008  1.5597 -1.2022  0.1814
25665SOL     OW78435   5.745   4.282   5.480 -0.1482  0.2624 -0.0149
25665SOL    HW178436   5.703   4.362   5.447  2.7449  3.3166  2.9826
25665SOL    HW278437   5.797   4.251   5.406 -0.1663  2.0765 -0.8525
25666SOL     OW78438   6.686   4.509   6.619  0.2457 -0.1936 -0.6076
25666SOL    HW178439   6.623   4.511   6.547  0.4830 -0.1757 -0.8167
25666SOL    HW278440   6.708   4.602   6.634 -1.4153  0.0046  0.9242
25667SOL     OW78441   1.389   5.564   2.866 -0.2602  0.3477  0.4721
25667SOL    HW178442   1.386   5.469   2.850 -0.8585  0.7072 -1.9653
25667SOL    HW278443   1.319   5.580   2.929 -0.8909 -0.7044  0.0694
25668SOL     OW78444   7.384   4.297   2.931  0.0095 -0.9131 -0.1482
25668SOL    HW178445   7.326   4.366   2.963  2.1153  0.1367  1.6845
25668SOL    HW278446   7.423   4.259   3.010  1.6666 -1.6781 -1.2611
25669SOL     OW78447   2.658   3.854   3.177  0.5078 -0.2550  0.3995
25669SOL    HW178448   2.664   3.870   3.271  0.0653  2.5753  0.0247
25669SOL    HW278449   2.584   3.907   3.148  1.4081 -0.0488 -1.7311
25670SOL     OW78450   0.790   3.816   9.408 -0.0103 -0.1179 -0.4253
25670SOL    HW178451   0.713   3.833   9.462  0.1777  0.3878 -0.3103
25670SOL    HW278452   0.755   3.773   9.330 -0.3062 -0.6822  0.0149
25671SOL     OW78453   6.213   6.391   0.934  0.3621  0.1530  0.4100
25671SOL    HW178454   6.270   6.468   0.934 -0.2858  0.6421  0.5061
25671SOL    HW278455   6.212   6.361   1.025  0.8765 -0.1785  0.3141
25672SOL     OW78456   7.156   3.790   8.542  0.0997  0.2615  0.1823
25672SOL    HW178457   7.247   3.820   8.545  0.0890  0.4642 -0.8931
25672SOL    HW278458   7.160   3.710   8.490 -0.4507  0.7980 -0.7158
25673SOL     OW78459   4.182   1.859   7.089  0.1687  0.7034  0.5583
25673SOL    HW178460   4.174   1.882   6.997 -0.8853 -0.2854  0.3768
25673SOL    HW278461   4.276   1.861   7.107  0.4701 -0.1033 -0.8097
25674SOL     OW78462   4.617   2.479   7.360  0.0289  0.3282  0.0839
25674SOL    HW178463   4.554   2.443   7.298  0.2740 -0.6884  0.4059
25674SOL    HW278464   4.700   2.437   7.336  0.3942  0.9569  0.2436
25675SOL     OW78465   6.589   4.543   4.058 -0.6203  0.2127 -0.0880
25675SOL    HW178466   6.631   4.585   4.133  0.0692 -1.0965  0.2924
25675SOL    HW278467   6.510   4.594   4.043 -0.9063  0.3587  1.6930
25676SOL     OW78468   5.130   7.790   0.012  0.2919 -0.0800 -0.1224
25676SOL    HW178469   5.111   7.883  -0.003 -0.6540 -0.1296  0.6043
25676SOL    HW278470   5.045   7.746  -0.000  0.6236 -0.7756  0.0345
25677SOL     OW78471   6.343   0.500   0.040  0.6766  0.8380 -0.1967
25677SOL    HW178472   6.335   0.553   0.120  0.8745  0.9157 -0.2270
25677SOL    HW278473   6.429   0.458   0.048  0.2159 -0.0618  0.1818
25678SOL     OW78474   2.927   4.020   6.877 -0.4444 -0.5101 -0.2551
25678SOL    HW178475   2.874   3.962   6.932  1.5808 -0.7231  1.6162
25678SOL    HW278476   2.956   3.964   6.805  0.6570 -1.6042  0.9855
25679SOL     OW78477   6.163   0.273  10.397  0.1348  0.0946 -0.4648
25679SOL    HW178478   6.156   0.367  10.378 -0.4927 -0.1497 -1.4468
25679SOL    HW278479   6.117   0.263  10.481  0.6726  0.7418 -0.0731
25680SOL     OW78480   2.265   1.742   3.625  0.3786  0.1499  0.2148
25680SOL    HW178481   2.326   1.757   3.553  2.0895  0.8649  1.7402
25680SOL    HW278482   2.245   1.830   3.658 -1.4705 -0.0734 -0.2148
25681SOL     OW78483   0.321   4.626   0.614  0.3285 -0.1675  0.2811
25681SOL    HW178484   0.242   4.576   0.632 -0.0721 -0.6865 -2.5142
25681SOL    HW278485   0.293   4.695   0.554  1.7903  0.3070  0.0893
25682SOL     OW78486   6.764   1.045   5.012 -0.1289 -0.1260 -0.2653
25682SOL    HW178487   6.697   1.030   5.079 -2.3335  1.6610 -1.9134
25682SOL    HW278488   6.776   1.140   5.010  0.5402 -0.2028 -1.7871
25683SOL     OW78489   1.311   6.582   2.722 -0.2827  0.4622  0.2901
25683SOL    HW178490   1.398   6.561   2.754 -0.4827 -1.2076 -0.1688
25683SOL    HW278491   1.262   6.608   2.801  0.3725  0.5658  0.6717
25684SOL     OW78492   1.681   2.609   2.202 -0.2312  0.6173  0.4732
25684SOL    HW178493   1.620   2.667   2.247  0.7724  0.9969  1.4049
25684SOL    HW278494   1.699   2.539   2.265 -1.0645 -0.4702 -0.4632
25685SOL     OW78495   1.116   3.701  12.237  0.1884  0.5517 -0.0243
25685SOL    HW178496   1.133   3.669  12.148 -0.7336 -0.3828  0.1134
25685SOL    HW278497   1.024   3.729  12.235 -0.0528 -0.1615  0.8174
25686SOL     OW78498   3.931   4.169  11.995  0.2308 -0.0825  0.6005
25686SOL    HW178499   4.001   4.232  12.010 -0.2838  0.6084  0.1912
25686SOL    HW278500   3.925   4.119  12.076 -1.3131  2.3848  2.1523
25687SOL     OW78501   3.575   3.231   4.409  0.2694  0.0818  0.2411
25687SOL    HW178502   3.540   3.229   4.320 -0.2960  2.4306  0.3381
25687SOL    HW278503   3.670   3.232   4.397  0.2193  2.2216 -0.5054
25688SOL     OW78504   0.370   6.932   9.382 -0.4918  0.2746  0.4005
25688SOL    HW178505   0.387   6.921   9.288  0.4537  1.9322  0.3302
25688SOL    HW278506   0.448   6.897   9.425  0.2450  1.8272  0.4061
25689SOL     OW78507   3.430   2.953  10.205 -0.3494  0.1354 -0.2892
25689SOL    HW178508   3.402   3.042  10.183 -0.4457  0.8060  2.2884
25689SOL    HW278509   3.525   2.955  10.192 -0.5915 -0.1415 -2.5026
25690SOL     OW78510   6.857   7.131   0.364 -0.3331  0.2609  0.1872
25690SOL    HW178511   6.882   7.127   0.272 -1.3301  0.3678 -0.0968
25690SOL    HW278512   6.869   7.042   0.397  0.1306  0.2480 -0.0092
25691SOL     OW78513   3.908   4.307   9.512 -0.0703 -0.1921  0.1228
25691SOL    HW178514   4.002   4.288   9.503  0.1205  0.7209  0.0861
25691SOL    HW278515   3.865   4.223   9.495  0.6979 -0.4352 -0.7195
25692SOL     OW78516   5.828   5.300   3.699 -0.7272 -0.1152 -1.1260
25692SOL    HW178517   5.781   5.258   3.771 -0.3339  1.6102  0.1963
25692SOL    HW278518   5.818   5.394   3.714  1.2607  0.3081 -2.0353
25693SOL     OW78519   0.284   2.658   3.458  0.2348  0.2790  0.0030
25693SOL    HW178520   0.306   2.708   3.536  0.1760  0.3167 -0.0042
25693SOL    HW278521   0.196   2.688   3.434 -0.7366 -1.4095  1.2606
25694SOL     OW78522   3.728   2.494   4.501  0.9016 -0.1485 -0.3061
25694SOL    HW178523   3.747   2.509   4.409  2.0148  1.5130  0.1558
25694SOL    HW278524   3.741   2.579   4.543  0.5499 -0.8913  1.4072
25695SOL     OW78525   6.239   3.636   5.866  0.2082  0.2395 -0.1692
25695SOL    HW178526   6.216   3.592   5.784  1.1344  1.8280 -1.3300
25695SOL    HW278527   6.302   3.577   5.908  0.6324 -0.0460 -1.1689
25696SOL     OW78528   0.205   1.138   6.597 -0.6692 -0.1097 -0.2489
25696SOL    HW178529   0.235   1.134   6.506 -1.6803  0.0462 -0.6108
25696SOL    HW278530   0.127   1.083   6.598 -2.0081  1.7024 -0.0381
25697SOL     OW78531   3.681   6.352   9.993 -0.0042 -0.1877  0.0703
25697SOL    HW178532   3.610   6.379   9.936 -1.3534 -1.6645  0.9672
25697SOL    HW278533   3.761   6.366   9.942 -1.0269  0.3240 -1.4256
25698SOL     OW78534   0.405   1.105   2.196 -0.3120 -0.5309 -0.5398
25698SOL    HW178535   0.346   1.180   2.204 -1.4190 -1.2005 -1.9062
25698SOL    HW278536   0.362   1.035   2.245  0.4247 -0.4544  0.2360
25699SOL     OW78537   7.395   0.469   2.136  0.6394 -0.3058 -0.5977
25699SOL    HW178538   7.384   0.472   2.041  0.4753 -0.8656 -0.5980
25699SOL    HW278539   7.446   0.390   2.152  0.5490 -0.2868 -0.2063
25700SOL     OW78540   7.526   3.846  10.180 -0.1942 -0.4310 -0.8645
25700SOL    HW178541   7.470   3.916  10.146 -1.8308 -1.0668  0.3605
25700SOL    HW278542   7.479   3.765  10.159  1.5706 -1.1968 -2.0919
25701SOL     OW78543   3.519   2.570   4.791  0.1444  0.4098 -0.1232
25701SOL    HW178544   3.583   2.546   4.858  0.4233  0.5835 -0.3292
25701SOL    HW278545   3.450   2.616   4.839  0.1130  0.1161  0.1169
25702SOL     OW78546   1.018   4.669   6.128 -0.0837  0.1418  0.1415
25702SOL    HW178547   1.047   4.603   6.065 -1.4324 -1.4425  1.0813
25702SOL    HW278548   1.032   4.753   6.083 -2.8197 -0.9117 -3.1751
25703SOL     OW78549   6.172   0.444   8.981  0.1702  0.5293  0.1194
25703SOL    HW178550   6.184   0.450   8.886 -0.0854 -0.7945 -0.0167
25703SOL    HW278551   6.258   0.419   9.015  0.1757  0.6596  0.2045
25704SOL     OW78552   3.289   1.713   2.454  0.5985 -0.3185  0.0588
25704SOL    HW178553   3.364   1.750   2.501 -0.1338  1.8419 -0.3917
25704SOL    HW278554   3.258   1.783   2.397 -0.5930 -1.7950 -1.2193
25705SOL     OW78555   7.655   4.582   2.101  0.2926 -0.3485 -0.7287
25705SOL    HW178556   7.589   4.622   2.045  0.4220  1.1481  0.1120
25705SOL    HW278557   7.609   4.563   2.183  0.8909  0.9157 -0.0529
25706SOL     OW78558   0.735   2.827   8.916 -0.2282 -0.7471  0.2032
25706SOL    HW178559   0.719   2.735   8.894  1.7039 -0.6657 -1.9221
25706SOL    HW278560   0.763   2.867   8.834  1.8295  1.0745  1.6657
25707SOL     OW78561   0.351   5.663  10.857  1.3883  0.6628  0.2076
25707SOL    HW178562   0.446   5.677  10.858  1.5547 -0.3960  0.5575
25707SOL    HW278563   0.319   5.724  10.791  2.4199  0.4283 -0.5455
25708SOL     OW78564   6.128   1.329   2.754 -0.1168 -0.0150  0.0462
25708SOL    HW178565   6.046   1.295   2.789  0.1385 -1.8202 -0.9650
25708SOL    HW278566   6.183   1.345   2.830 -1.2573  0.9185  0.7136
25709SOL     OW78567   5.624   1.314   0.567 -0.1885  0.1941 -0.3390
25709SOL    HW178568   5.669   1.258   0.503  3.2208 -0.4762  2.3400
25709SOL    HW278569   5.654   1.402   0.546 -1.1175  0.3289 -1.1612
25710SOL     OW78570   7.724   3.269   4.258 -0.0141 -0.5459 -0.5653
25710SOL    HW178571   7.798   3.300   4.309  0.5227 -0.4765 -1.3643
25710SOL    HW278572   7.667   3.226   4.321  1.4724 -2.0127 -0.1665
25711SOL     OW78573   0.512   2.723  10.665  0.0060  0.4616 -0.2953
25711SOL    HW178574   0.463   2.787  10.718  0.4083  0.2428  0.3536
25711SOL    HW278575   0.538   2.771  10.587 -1.5587  0.4886 -0.8338
25712SOL     OW78576   0.103   3.180  11.413 -0.0179 -0.6144  0.1223
25712SOL    HW178577   0.091   3.268  11.448 -0.0402 -0.2096 -0.8607
25712SOL    HW278578   0.027   3.167  11.356 -0.3670 -1.5400  0.7756
25713SOL     OW78579   0.794   1.866   2.465 -0.2323 -0.3405  0.5126
25713SOL    HW178580   0.732   1.854   2.393 -1.1189  0.4387  1.1262
25713SOL    HW278581   0.762   1.942   2.513  1.1840  0.0559  0.8826
25714SOL     OW78582   6.853   2.386   9.670 -0.8366 -0.0724  0.0007
25714SOL    HW178583   6.804   2.460   9.634 -0.5173 -0.2848 -0.9153
25714SOL    HW278584   6.940   2.421   9.687  0.2954 -0.8811 -3.3348
25715SOL     OW78585   0.832   1.147  11.257  0.0715  0.6424  0.6460
25715SOL    HW178586   0.780   1.205  11.201  0.4947 -0.0077 -0.4461
25715SOL    HW278587   0.900   1.113  11.200  1.4610  1.1328  1.9275
25716SOL     OW78588   3.481   5.990   2.246 -0.7985  0.1171  0.0125
25716SOL    HW178589   3.562   6.005   2.198 -0.0031  0.0856  1.2748
25716SOL    HW278590   3.506   5.929   2.316 -2.3480 -1.4011 -0.6972
25717SOL     OW78591   4.592   6.951   1.947  0.7094 -0.4258 -0.3943
25717SOL    HW178592   4.502   6.965   1.917 -0.1285  0.4270  2.2214
25717SOL    HW278593   4.591   6.863   1.985  1.2621 -0.7832 -1.1792
25718SOL     OW78594   1.192   7.904   5.636 -0.1569 -0.0898 -0.1017
25718SOL    HW178595   1.169   7.849   5.561 -1.7142 -1.0018  0.9869
25718SOL    HW278596   1.112   7.952   5.656  0.5458  0.9342  0.3422
25719SOL     OW78597   0.045   5.005   6.914 -0.6006 -0.2239  0.0606
25719SOL    HW178598   0.033   4.950   6.991 -0.8426  2.4101  2.0294
25719SOL    HW278599  -0.043   5.034   6.891 -0.2628  1.4512  0.7572
25720SOL     OW78600   5.891   7.090  11.137 -0.2268  0.0739 -0.3600
25720SOL    HW178601   5.944   7.115  11.061 -0.7847  1.6368 -0.2654
25720SOL    HW278602   5.804   7.074  11.101 -0.4844  0.7900 -0.0787
25721SOL     OW78603   4.929   6.387   0.048 -0.6067  0.0052  0.3439
25721SOL    HW178604   4.991   6.388   0.121 -1.0930  0.8328  0.7592
25721SOL    HW278605   4.886   6.473   0.051 -0.1808  0.3125 -1.3160
25722SOL     OW78606   0.747   2.470   7.081  0.0609 -0.2577  0.4936
25722SOL    HW178607   0.760   2.376   7.069 -2.0696 -0.8156  1.8780
25722SOL    HW278608   0.668   2.490   7.030 -0.2116  0.4963  1.1851
25723SOL     OW78609   7.965   0.802   1.121 -0.5608  0.1248  0.0639
25723SOL    HW178610   7.887   0.779   1.173  0.6289  0.5759  2.1767
25723SOL    HW278611   8.027   0.731   1.138 -0.0188  0.4524 -0.5121
25724SOL     OW78612   2.421   1.436   1.672  0.5349  0.1076 -0.4271
25724SOL    HW178613   2.475   1.515   1.664  1.9235 -0.8510 -0.9439
25724SOL    HW278614   2.349   1.451   1.611  0.1667  1.4214  0.2775
25725SOL     OW78615   7.586   5.827   5.480  0.3570  0.2106 -0.5490
25725SOL    HW178616   7.542   5.909   5.457  1.9557  0.3961 -3.2910
25725SOL    HW278617   7.653   5.853   5.544 -0.5288  0.6347  0.2355
25726SOL     OW78618   0.063   0.649   6.036  0.0399 -0.2912 -0.6156
25726SOL    HW178619   0.078   0.713   5.967  1.6572 -1.0027 -0.9634
25726SOL    HW278620   0.082   0.697   6.117  0.7026 -0.1786 -0.8344
25727SOL     OW78621   4.353   1.652   1.958 -0.1500  0.2139 -0.2207
25727SOL    HW178622   4.389   1.660   1.869 -0.3264 -1.2130 -0.4505
25727SOL    HW278623   4.288   1.721   1.964 -1.0266 -0.4331 -1.6652
25728SOL     OW78624   2.903   5.479   1.244 -0.2901  0.1704 -0.2296
25728SOL    HW178625   2.924   5.466   1.336  3.7110  1.3553 -0.8126
25728SOL    HW278626   2.853   5.561   1.243 -1.8346 -0.7013  0.9489
25729SOL     OW78627   6.244   6.585  12.095 -0.2067  0.0533 -0.6811
25729SOL    HW178628   6.267   6.498  12.064 -1.1825 -1.2915  1.9891
25729SOL    HW278629   6.283   6.590  12.183 -0.0479  2.3859 -0.8166
25730SOL     OW78630   7.768   1.406   0.479  0.5235  0.0856 -0.4777
25730SOL    HW178631   7.718   1.409   0.398 -0.6118 -1.1430  0.1442
25730SOL    HW278632   7.857   1.432   0.454  0.0238  0.4413 -1.9548
25731SOL     OW78633   6.000   3.773  10.971  0.0262  0.0473  0.2119
25731SOL    HW178634   6.083   3.747  10.930  0.2145 -0.9050  1.1564
25731SOL    HW278635   6.025   3.840  11.035  0.1650 -0.6247  0.8802
25732SOL     OW78636   0.552   3.943   9.524 -0.5050  0.4512  0.4968
25732SOL    HW178637   0.496   3.955   9.601  0.1764  0.5462  0.9804
25732SOL    HW278638   0.575   4.032   9.497 -0.8179  0.4227  0.1183
25733SOL     OW78639   5.291   6.089   6.434  0.4705  0.2390  0.5263
25733SOL    HW178640   5.338   6.159   6.479 -0.7879  1.1998  0.3983
25733SOL    HW278641   5.221   6.065   6.494 -0.0288  0.1530 -0.0850
25734SOL     OW78642   2.637   2.686   5.895 -0.2960  0.2862 -0.3974
25734SOL    HW178643   2.693   2.643   5.831 -0.7883 -0.7055 -0.1806
25734SOL    HW278644   2.634   2.778   5.867 -0.5764 -0.1402 -1.8564
25735SOL     OW78645   0.229   2.778   1.582  0.2568  0.2610 -0.4477
25735SOL    HW178646   0.240   2.831   1.661 -0.2163  0.9204 -0.8141
25735SOL    HW278647   0.143   2.801   1.549  0.3962 -0.1021 -1.0941
25736SOL     OW78648   6.735   2.671   8.573 -0.3339 -0.4983  0.1321
25736SOL    HW178649   6.804   2.644   8.633 -1.7523  0.0638  2.1318
25736SOL    HW278650   6.718   2.763   8.594 -0.6240 -0.1497 -1.4361
25737SOL     OW78651   2.807   3.315  12.214  0.6557  0.4060  0.0878
25737SOL    HW178652   2.897   3.301  12.182  1.1341 -0.8209  1.8048
25737SOL    HW278653   2.782   3.230  12.252 -0.5782  1.2247  1.1857
25738SOL     OW78654   3.343   4.293   2.560  0.3067 -0.2698  0.0622
25738SOL    HW178655   3.422   4.261   2.604  0.2637 -0.2321  0.1661
25738SOL    HW278656   3.319   4.373   2.607 -0.0646 -0.5361  0.3347
25739SOL     OW78657   1.623   1.692   8.479 -0.2761 -0.2833  0.0726
25739SOL    HW178658   1.557   1.684   8.410 -0.0340 -1.8098 -0.0170
25739SOL    HW278659   1.707   1.683   8.433 -0.0432  0.3841  0.3525
25740SOL     OW78660   0.721   4.018  10.818  0.9797 -0.1219  0.2389
25740SOL    HW178661   0.677   3.936  10.796 -1.2025  0.9377  0.4179
25740SOL    HW278662   0.671   4.053  10.891  2.7027  0.7488  1.0650
25741SOL     OW78663   1.900   0.286   5.587 -0.6178  0.0005 -0.6603
25741SOL    HW178664   1.856   0.299   5.672  0.2934 -2.6954  0.3472
25741SOL    HW278665   1.973   0.347   5.589 -0.5656 -0.0592  0.5623
25742SOL     OW78666   7.303   6.890   6.786  0.1819 -0.2411 -0.1555
25742SOL    HW178667   7.250   6.852   6.856  0.0611 -0.1812 -0.2144
25742SOL    HW278668   7.242   6.900   6.713  0.6503 -1.8576 -0.8366
25743SOL     OW78669   3.940   1.253   6.985  0.0902 -0.1467  0.0879
25743SOL    HW178670   3.968   1.193   7.055 -0.0913 -1.9452 -1.2951
25743SOL    HW278671   3.853   1.222   6.961 -0.7593  1.8275  0.5172
25744SOL     OW78672   5.247   2.893   2.557  0.5317  0.3452 -0.3399
25744SOL    HW178673   5.266   2.986   2.546 -0.3426  0.3824 -1.8690
25744SOL    HW278674   5.283   2.852   2.479 -0.2304 -0.4102 -0.3115
25745SOL     OW78675   2.451   1.482   0.865  0.1333 -0.2253 -0.1455
25745SOL    HW178676   2.373   1.475   0.810  0.2544 -1.3112 -0.1980
25745SOL    HW278677   2.458   1.397   0.908  1.2703 -0.1326 -0.1109
25746SOL     OW78678   2.850   5.325  11.345 -0.2440  0.1893 -0.0750
25746SOL    HW178679   2.755   5.318  11.343 -0.2994  0.2755  1.3787
25746SOL    HW278680   2.873   5.314  11.437  1.0536  1.4133 -0.2197
25747SOL     OW78681   1.420   6.954   1.318 -0.0139 -0.3962 -0.3291
25747SOL    HW178682   1.435   7.004   1.238 -0.7139  0.3400 -0.0090
25747SOL    HW278683   1.366   7.010   1.373  0.0373 -1.0909  0.4671
25748SOL     OW78684   5.999   2.210   5.448 -0.7714 -0.0243 -0.0121
25748SOL    HW178685   6.006   2.151   5.523  0.2688 -1.8553 -1.4662
25748SOL    HW278686   6.071   2.185   5.391 -2.1657  0.5550 -2.1387
25749SOL     OW78687   4.746   2.088   7.402 -0.3621 -0.1170  0.0821
25749SOL    HW178688   4.685   2.098   7.328 -0.5841 -1.3714  0.0807
25749SOL    HW278689   4.817   2.149   7.383 -1.8118  1.7266  0.3073
25750SOL     OW78690   4.033   7.148   7.113  0.1875  0.0210 -0.5409
25750SOL    HW178691   4.036   7.144   7.017 -0.5416  1.3731 -0.6447
25750SOL    HW278692   4.044   7.241   7.133 -1.7230  0.0548  0.5798
25751SOL     OW78693   1.435   5.489   7.546 -0.3707  0.1334  0.4181
25751SOL    HW178694   1.482   5.500   7.628  0.4534  0.3995 -0.0745
25751SOL    HW278695   1.493   5.527   7.480 -0.0944 -1.8429 -0.5619
25752SOL     OW78696   2.073   1.522   0.566  0.0241 -0.4436 -0.1332
25752SOL    HW178697   1.999   1.477   0.525 -1.1062  1.6096 -0.5511
25752SOL    HW278698   2.062   1.614   0.539  2.0049  0.1553  0.8815
25753SOL     OW78699   7.105   4.419  10.496 -0.0139  0.2690 -0.0635
25753SOL    HW178700   7.011   4.421  10.476  0.3419  0.7456 -1.8323
25753SOL    HW278701   7.145   4.474  10.429  1.6390 -0.6810  0.0952
25754SOL     OW78702   0.202   3.096   6.137  0.1393 -0.1386  0.4644
25754SOL    HW178703   0.295   3.115   6.125  0.3487 -1.2644  0.1870
25754SOL    HW278704   0.170   3.077   6.049  0.0668 -1.4818  0.7549
25755SOL     OW78705   3.259   5.194   3.013  0.1740 -0.0459  0.0425
25755SOL    HW178706   3.268   5.273   3.065 -0.8726 -0.3210  0.6685
25755SOL    HW278707   3.338   5.143   3.033 -0.4911 -0.4330  1.8822
25756SOL     OW78708   3.575   3.623   6.895  0.0133  0.5126  0.1639
25756SOL    HW178709   3.498   3.573   6.867 -0.3586  1.8420 -1.2907
25756SOL    HW278710   3.617   3.649   6.814  0.4138  2.2167  0.8879
25757SOL     OW78711   0.835   5.051   8.420 -0.3695 -0.2059 -0.4536
25757SOL    HW178712   0.842   4.957   8.410 -0.9220 -0.1976 -1.0143
25757SOL    HW278713   0.753   5.064   8.468  1.4409 -0.1625  2.8937
25758SOL     OW78714   1.858   6.148  10.644 -0.0882 -0.2848  0.2023
25758SOL    HW178715   1.784   6.173  10.699 -0.2036  0.0708 -0.1117
25758SOL    HW278716   1.934   6.160  10.700 -0.1898  0.2486  0.2293
25759SOL     OW78717   1.231   3.715   3.211  0.3813 -0.2051  0.6453
25759SOL    HW178718   1.310   3.681   3.171 -0.3270  0.0887 -1.1248
25759SOL    HW278719   1.259   3.794   3.258  1.0492  0.3110 -0.5767
25760SOL     OW78720   3.246   3.328   7.155  0.3932  0.1357 -0.0830
25760SOL    HW178721   3.242   3.329   7.060  0.0701  1.2666 -0.0768
25760SOL    HW278722   3.329   3.286   7.176  1.0441  0.9905 -0.8980
25761SOL     OW78723   6.456   4.397   2.969 -0.0549 -0.0277 -0.5428
25761SOL    HW178724   6.476   4.374   3.060  2.0621 -0.7569 -1.1532
25761SOL    HW278725   6.410   4.320   2.935 -2.6880  1.0151  0.3994
25762SOL     OW78726   2.874   2.513   7.309  0.2793  0.1011 -0.6329
25762SOL    HW178727   2.888   2.605   7.285  0.5815 -0.2522 -1.9212
25762SOL    HW278728   2.840   2.473   7.229 -2.1907 -0.4294  0.5935
25763SOL     OW78729   3.016   5.177   0.387  0.4003 -0.0810  0.1747
25763SOL    HW178730   3.068   5.115   0.335  1.0964  0.9216 -0.3467
25763SOL    HW278731   2.987   5.242   0.324 -2.5912 -1.2506  0.1832
25764SOL     OW78732   2.512   1.224   6.493 -0.0540  0.6258 -0.3684
25764SOL    HW178733   2.476   1.219   6.581  1.5753  0.1136  0.2920
25764SOL    HW278734   2.479   1.145   6.449 -0.1171  0.4095  0.0654
25765SOL     OW78735   4.864   7.936   7.954  0.4523 -0.1346  0.0004
25765SOL    HW178736   4.809   7.860   7.934 -0.2245  0.3528 -0.0550
25765SOL    HW278737   4.940   7.927   7.896  1.1986 -1.6172  1.1382
25766SOL     OW78738   5.172   6.771  11.051 -0.5951 -0.0044  0.1398
25766SOL    HW178739   5.160   6.703  10.985  0.7135 -0.2458  0.1144
25766SOL    HW278740   5.152   6.728  11.134  0.3262 -0.4690  0.1326
25767SOL     OW78741   5.754   6.368   8.620  0.9681 -0.3399 -0.5553
25767SOL    HW178742   5.697   6.343   8.692 -1.7566  2.2054 -1.6433
25767SOL    HW278743   5.813   6.433   8.658  0.3384  0.1094 -0.3312
25768SOL     OW78744   0.631   0.890   3.336  0.6379 -0.2881  0.4067
25768SOL    HW178745   0.543   0.926   3.322  0.4710 -0.9315 -0.2918
25768SOL    HW278746   0.621   0.831   3.410  0.3568 -0.7290  0.0286
25769SOL     OW78747   7.280   2.611   2.437  0.2096  0.1977  0.3086
25769SOL    HW178748   7.356   2.598   2.493  1.1402 -0.1008 -0.9949
25769SOL    HW278749   7.295   2.695   2.395  0.9215 -0.8271 -1.5891
25770SOL     OW78750   2.483   0.742   0.824 -0.4398  0.2215 -0.0364
25770SOL    HW178751   2.404   0.688   0.833 -0.2617 -0.1684 -0.7457
25770SOL    HW278752   2.486   0.765   0.731 -0.2144  1.0084  0.1612
25771SOL     OW78753   4.794   7.068  11.552  0.0836  0.3364 -0.1231
25771SOL    HW178754   4.766   7.146  11.600  1.1320 -0.2656  1.5434
25771SOL    HW278755   4.712   7.022  11.532 -0.4709  1.3283 -0.2191
25772SOL     OW78756   5.378   4.221   1.233  0.5355  0.4196  0.4254
25772SOL    HW178757   5.344   4.227   1.323  1.6144  0.4512  0.8421
25772SOL    HW278758   5.325   4.283   1.184 -0.2961  0.1629  0.9583
25773SOL     OW78759   5.606   1.451   6.272  0.1024 -0.3444  0.3657
25773SOL    HW178760   5.539   1.518   6.256 -0.6468 -1.0272  0.5747
25773SOL    HW278761   5.563   1.369   6.251  1.2721 -0.7136 -0.6913
25774SOL     OW78762   1.990   2.403   3.166 -0.1263 -0.2069  0.7522
25774SOL    HW178763   1.928   2.331   3.158 -2.0267  1.4771 -0.6570
25774SOL    HW278764   1.962   2.450   3.245 -1.6907  1.4175 -0.7040
25775SOL     OW78765   0.998   6.143  11.307 -0.1708 -0.8905 -0.2736
25775SOL    HW178766   0.930   6.077  11.294 -1.4231  0.2676  0.1841
25775SOL    HW278767   1.067   6.097  11.356 -1.2868 -1.6924  0.6011
25776SOL     OW78768   4.700   0.972  10.764  0.6187 -0.0584 -0.1739
25776SOL    HW178769   4.756   1.032  10.814  1.2109 -0.0395 -0.8533
25776SOL    HW278770   4.642   1.029  10.714  0.7024 -0.0584 -0.2724
25777SOL     OW78771   5.318   7.396  10.330 -0.4467 -0.1913  0.6104
25777SOL    HW178772   5.282   7.460  10.269  0.7176 -1.2355 -1.2732
25777SOL    HW278773   5.379   7.447  10.384  0.5833  0.3330 -0.9593
25778SOL     OW78774   7.753   5.438   3.735  0.2383  0.4803  0.2302
25778SOL    HW178775   7.831   5.385   3.751 -0.3739 -0.5416 -0.0361
25778SOL    HW278776   7.696   5.420   3.811 -0.2419  0.2218 -0.1807
25779SOL     OW78777   1.229   4.426   8.368 -0.1573  0.2757  0.1107
25779SOL    HW178778   1.228   4.482   8.290  0.9027 -0.8635 -0.7675
25779SOL    HW278779   1.178   4.349   8.343 -1.0226  0.5292  1.0580
25780SOL     OW78780   3.997   1.539   2.037 -0.2767 -0.1608  0.4651
25780SOL    HW178781   4.078   1.492   2.059 -0.7502 -0.8056  0.8475
25780SOL    HW278782   3.930   1.500   2.092 -0.5423  1.5649  1.4381
25781SOL     OW78783   2.978   7.204   8.134  0.6473 -0.7940  0.2003
25781SOL    HW178784   2.926   7.146   8.190  0.2722 -1.6019 -0.9415
25781SOL    HW278785   3.024   7.145   8.074  2.5714 -0.0767  0.8926
25782SOL     OW78786   6.424   1.012   2.624 -0.6160 -0.3262  0.4555
25782SOL    HW178787   6.420   0.942   2.559  1.3328  0.5617 -0.6794
25782SOL    HW278788   6.358   1.075   2.596  1.7249  1.1721 -2.1395
25783SOL     OW78789   1.273   5.589  11.837  0.0928 -0.1505 -0.4400
25783SOL    HW178790   1.302   5.654  11.773  1.5861 -0.7593 -0.4340
25783SOL    HW278791   1.339   5.520  11.832 -1.0484 -1.3287  0.0792
25784SOL     OW78792   6.946   5.475   7.733  0.6101 -0.3747 -0.4388
25784SOL    HW178793   6.918   5.393   7.692  0.3994 -0.2931 -0.4627
25784SOL    HW278794   7.032   5.493   7.695  1.0594 -1.0541  0.2477
25785SOL     OW78795   5.310   1.190  10.966  0.1495 -0.1945 -0.1486
25785SOL    HW178796   5.313   1.155  11.055 -0.1183 -0.9099 -0.4099
25785SOL    HW278797   5.342   1.118  10.911 -0.9410 -0.2458 -0.7559
25786SOL     OW78798   7.494   2.195   3.309 -0.6642  0.0073  0.2617
25786SOL    HW178799   7.546   2.268   3.277  0.0432 -0.2466  0.7923
25786SOL    HW278800   7.506   2.126   3.244 -1.1509  0.2814 -0.1244
25787SOL     OW78801   6.231   0.125  10.626 -0.7157 -0.1875  0.2644
25787SOL    HW178802   6.263   0.152  10.712 -0.8099  0.2080  0.1784
25787SOL    HW278803   6.285   0.173  10.563 -0.0339 -1.1732  0.0798
25788SOL     OW78804   4.067   5.048   6.651 -0.2809  0.0277  0.6007
25788SOL    HW178805   4.004   4.980   6.673  0.7926 -0.8885  0.9836
25788SOL    HW278806   4.152   5.010   6.676  0.7509  0.0689 -2.3879
25789SOL     OW78807   7.112   4.437   8.375  0.5173 -0.2228  0.4284
25789SOL    HW178808   7.089   4.362   8.431  1.7464 -1.2906 -0.4276
25789SOL    HW278809   7.035   4.450   8.320  0.0662 -0.4622  0.9890
25790SOL     OW78810   0.975   1.656   2.265 -0.3262  0.5663  0.3805
25790SOL    HW178811   1.043   1.720   2.286  0.2590  0.4649 -1.0605
25790SOL    HW278812   0.909   1.705   2.216  0.1625  0.0831 -0.7971
25791SOL     OW78813   3.510   3.679   1.443 -0.6275 -1.1648  1.0143
25791SOL    HW178814   3.442   3.616   1.466  0.8977 -2.2507  2.8688
25791SOL    HW278815   3.588   3.625   1.428  0.6909  0.2364  2.4982
25792SOL     OW78816   5.124   0.471   1.783  0.1928  0.1588  0.3250
25792SOL    HW178817   5.145   0.500   1.872 -0.0959  0.5902  0.2548
25792SOL    HW278818   5.046   0.416   1.793 -1.6040  2.4968  0.0386
25793SOL     OW78819   6.578   5.722   5.052 -0.3037  0.0792  0.5871
25793SOL    HW178820   6.547   5.681   4.971 -1.0520  0.1734  0.8163
25793SOL    HW278821   6.564   5.655   5.119 -0.1818  0.1930  0.7243
25794SOL     OW78822   3.355   2.602  10.098 -0.1568  0.0779 -0.3720
25794SOL    HW178823   3.270   2.630  10.130 -0.4761  1.2816 -2.1450
25794SOL    HW278824   3.418   2.654  10.148 -0.3952 -1.0459  1.1753
25795SOL     OW78825   4.141   6.343   5.563  0.4030  0.0676 -0.0045
25795SOL    HW178826   4.231   6.375   5.555  0.8652 -1.3541 -0.8796
25795SOL    HW278827   4.102   6.358   5.477  0.5772 -1.4850 -0.3823
25796SOL     OW78828   0.266   7.853  11.539 -0.4540 -0.6984  0.6106
25796SOL    HW178829   0.290   7.859  11.631 -1.3963 -0.5345  0.8594
25796SOL    HW278830   0.249   7.760  11.524  4.2663 -1.6239 -0.6487
25797SOL     OW78831   1.603   3.576   2.575 -0.4467  0.0506 -0.1448
25797SOL    HW178832   1.659   3.645   2.540  1.0609 -0.5606  0.9666
25797SOL    HW278833   1.576   3.527   2.498  1.5704 -0.3650 -0.6592
25798SOL     OW78834   6.452   1.685   2.971 -0.0720 -0.0250 -0.4465
25798SOL    HW178835   6.433   1.592   2.981  1.2588 -0.3796 -1.0086
25798SOL    HW278836   6.470   1.716   3.059 -0.7309 -0.2309 -0.2289
25799SOL     OW78837   4.624   7.741   8.160  0.2459  0.1850 -0.1019
25799SOL    HW178838   4.576   7.796   8.221 -1.7243 -0.4729 -0.9721
25799SOL    HW278839   4.614   7.784   8.075  0.3699 -0.4875 -0.4660
25800SOL     OW78840   7.579   2.973   4.223 -0.1417 -0.2139 -0.2926
25800SOL    HW178841   7.551   3.030   4.151 -1.4816 -0.6926 -0.1919
25800SOL    HW278842   7.523   2.998   4.296  0.2738 -0.6615  0.1868
25801SOL     OW78843   2.522   6.722  12.390 -0.0892 -0.0865 -0.2858
25801SOL    HW178844   2.560   6.719  12.478  0.3616 -1.9197 -0.4879
25801SOL    HW278845   2.593   6.690  12.333 -1.0103 -0.8786 -1.0304
25802SOL     OW78846   4.881   6.097   6.325  0.0211  0.0846 -0.0477
25802SOL    HW178847   4.791   6.066   6.327 -0.6362  1.8582 -0.4957
25802SOL    HW278848   4.887   6.159   6.398  0.9324 -0.1152  0.0641
25803SOL     OW78849   6.646   6.363   0.536  0.2021  0.1308  0.1633
25803SOL    HW178850   6.692   6.324   0.611  0.8520 -0.5767 -0.5851
25803SOL    HW278851   6.715   6.391   0.477 -0.2988 -1.3483 -1.1821
25804SOL     OW78852   1.874   5.581   3.435  0.0167 -0.0156  0.0307
25804SOL    HW178853   1.965   5.557   3.418  0.5176  0.8534  1.3292
25804SOL    HW278854   1.872   5.606   3.528 -1.3653  0.7966 -0.1785
25805SOL     OW78855   7.559   3.120   1.346 -0.1871  0.2185 -0.0303
25805SOL    HW178856   7.607   3.198   1.317  0.8310  0.0172  1.0280
25805SOL    HW278857   7.473   3.129   1.305  0.3835  1.1551 -1.0982
25806SOL     OW78858   6.713   5.175   1.550 -0.6967 -0.5548  0.2649
25806SOL    HW178859   6.799   5.152   1.584 -0.2830 -1.0010 -1.0366
25806SOL    HW278860   6.681   5.242   1.610 -0.1498 -1.5385  1.7079
25807SOL     OW78861   0.390   0.764   1.702 -0.1109  0.0671  0.1729
25807SOL    HW178862   0.368   0.737   1.613  1.4225  2.4127 -1.0307
25807SOL    HW278863   0.326   0.720   1.757 -2.5065  0.2040 -2.2662
25808SOL     OW78864   6.058   3.130  12.389  0.0600 -0.0913 -0.0158
25808SOL    HW178865   5.991   3.176  12.440  0.3637  0.2563  0.0655
25808SOL    HW278866   6.140   3.173  12.411  0.1154  0.5335 -1.3159
25809SOL     OW78867   0.638   1.349   5.685 -0.1594 -0.0117  0.0269
25809SOL    HW178868   0.588   1.396   5.752  0.6223  1.1297 -0.1867
25809SOL    HW278869   0.646   1.410   5.613 -0.5755 -1.0690 -0.9578
25810SOL     OW78870   6.328   7.146   3.301  0.4493  0.2958 -0.4751
25810SOL    HW178871   6.408   7.193   3.282  0.1810  0.6087 -0.8426
25810SOL    HW278872   6.350   7.090   3.376  1.1574 -0.0252 -0.9117
25811SOL     OW78873   5.442   2.935   5.466  0.3318  0.2736 -0.3219
25811SOL    HW178874   5.443   3.017   5.417 -0.2318  0.0826 -0.6655
25811SOL    HW278875   5.510   2.881   5.425  1.2475  0.8457  0.4068
25812SOL     OW78876   5.395   4.676   6.808  0.2590 -0.4115 -0.1049
25812SOL    HW178877   5.321   4.708   6.859 -0.0569 -1.6842  0.2878
25812SOL    HW278878   5.399   4.733   6.732 -0.9427 -0.1373  0.0187
25813SOL     OW78879   3.325   7.251   0.632  0.0630 -0.1900  0.1037
25813SOL    HW178880   3.378   7.291   0.701  0.2546 -1.3079  0.6208
25813SOL    HW278881   3.236   7.282   0.649 -0.0227 -1.0613  1.3351
25814SOL     OW78882   2.543   7.780   9.440 -0.3413 -0.4814 -0.1941
25814SOL    HW178883   2.454   7.744   9.441  0.3739 -2.3802 -0.8791
25814SOL    HW278884   2.573   7.769   9.350  0.0607  1.6247 -0.3658
25815SOL     OW78885   4.730   2.836   0.575  0.9310 -0.2422 -0.2663
25815SOL    HW178886   4.818   2.859   0.546  1.0015  2.0062  1.4817
25815SOL    HW278887   4.732   2.850   0.670 -1.6305  1.1563 -0.3417
25816SOL     OW78888   7.590   6.349   0.656  0.1997 -0.1953  0.0965
25816SOL    HW178889   7.591   6.292   0.579 -1.4635 -1.3923  0.8866
25816SOL    HW278890   7.661   6.411   0.641  0.3588 -0.8115 -2.0713
25817SOL     OW78891   6.917   1.890   3.595 -0.2561  0.1250  0.0464
25817SOL    HW178892   6.856   1.819   3.577  1.0977 -0.8837 -0.6983
25817SOL    HW278893   6.895   1.957   3.529  0.3028 -0.7943 -1.1071
25818SOL     OW78894   5.727   1.540  10.820  0.0304 -0.1368 -0.3410
25818SOL    HW178895   5.644   1.495  10.835  0.8392 -1.6163 -0.0944
25818SOL    HW278896   5.744   1.528  10.726  0.6260 -1.0830 -0.1302
25819SOL     OW78897   5.147   5.678   3.226  0.1113 -0.1373 -0.2933
25819SOL    HW178898   5.116   5.602   3.274  0.5197  0.6505  1.2870
25819SOL    HW278899   5.112   5.753   3.275 -1.0261  0.7234 -2.2953
25820SOL     OW78900   6.779   4.380  11.524  0.2338 -0.4307  0.4684
25820SOL    HW178901   6.704   4.405  11.470 -0.1196 -1.6486  0.3560
25820SOL    HW278902   6.760   4.290  11.550  1.3632 -0.5362  0.9655
25821SOL     OW78903   2.504   1.195   8.155  0.2018  0.8342 -0.3783
25821SOL    HW178904   2.506   1.222   8.247 -1.5735 -1.5294  0.4518
25821SOL    HW278905   2.576   1.133   8.146 -0.7218 -0.3131 -0.0574
25822SOL     OW78906   2.369   6.144   4.487  0.4426 -0.1618  0.0035
25822SOL    HW178907   2.402   6.213   4.430  1.4728 -1.2281 -0.7342
25822SOL    HW278908   2.275   6.160   4.492  0.7513  1.7148  0.4585
25823SOL     OW78909   3.097   3.493  10.783  0.3451  0.6119  0.4843
25823SOL    HW178910   3.159   3.563  10.802  1.4361  0.2206 -1.3426
25823SOL    HW278911   3.041   3.528  10.714  0.4938 -0.0887 -0.0031
25824SOL     OW78912   7.426   0.873   3.282 -0.0534  0.2099 -0.0998
25824SOL    HW178913   7.469   0.871   3.368 -0.2007  2.0469  0.0557
25824SOL    HW278914   7.358   0.806   3.288  1.4565 -1.3460  0.3636
25825SOL     OW78915   3.448   5.616  11.874  0.1254 -0.3316  0.5131
25825SOL    HW178916   3.477   5.612  11.783 -1.1256 -1.2849  0.1251
25825SOL    HW278917   3.472   5.704  11.904 -0.6233  0.4643 -1.1367
25826SOL     OW78918   6.603   5.980   6.117  0.0042  0.0553  0.1388
25826SOL    HW178919   6.649   6.034   6.053 -0.7075  0.8223  0.2614
25826SOL    HW278920   6.542   6.040   6.160  0.4870 -0.4418  1.5598
25827SOL     OW78921   4.399   0.683   7.256  0.1990 -0.6691 -0.4454
25827SOL    HW178922   4.354   0.645   7.181  1.7562 -2.6088 -0.4734
25827SOL    HW278923   4.492   0.666   7.240  0.9017  1.9614  0.2720
25828SOL     OW78924   3.614   2.981   3.018  0.2686  0.0533  0.0677
25828SOL    HW178925   3.703   2.954   3.043  0.4109  0.7620  0.3450
25828SOL    HW278926   3.621   3.002   2.925  1.0528  2.6518  0.6307
25829SOL     OW78927   2.330   3.702   4.739 -0.0394  0.2794  0.0068
25829SOL    HW178928   2.408   3.652   4.763  0.1720 -0.8934 -2.7148
25829SOL    HW278929   2.264   3.674   4.802  0.9474 -1.0072  0.5315
25830SOL     OW78930   3.684   4.769   3.547 -0.2623 -0.2411  1.1693
25830SOL    HW178931   3.684   4.694   3.488  0.4622  2.2755 -2.3011
25830SOL    HW278932   3.723   4.735   3.628  0.6989 -3.4208 -0.4437
25831SOL     OW78933   2.384   7.969   4.269  0.1477  0.1716  0.0847
25831SOL    HW178934   2.401   8.005   4.356  1.2596 -1.1224  0.4434
25831SOL    HW278935   2.444   8.016   4.211  0.6607 -0.1736  0.3263
25832SOL     OW78936   4.141   7.793   4.325  1.0974  0.0957  0.1548
25832SOL    HW178937   4.097   7.738   4.389  2.7349 -0.6844  0.6642
25832SOL    HW278938   4.203   7.735   4.281  2.1936  1.2909  0.0316
25833SOL     OW78939   7.391   6.506   6.195  0.2267 -0.3976 -0.2316
25833SOL    HW178940   7.333   6.494   6.120 -0.0322  0.7945 -0.2506
25833SOL    HW278941   7.448   6.578   6.170 -1.5284  1.8105  1.6145
25834SOL     OW78942   2.988   0.861   4.623 -1.2577  0.1151  0.3277
25834SOL    HW178943   3.045   0.938   4.620 -2.3143  1.0141  2.0728
25834SOL    HW278944   2.940   0.865   4.540 -1.6148  1.6004  0.5780
25835SOL     OW78945   0.824   6.129   5.732 -1.0459  0.6120  0.1538
25835SOL    HW178946   0.733   6.148   5.709 -1.6334  0.0400  1.8668
25835SOL    HW278947   0.865   6.104   5.650 -2.7515 -0.3106 -0.4638
25836SOL     OW78948   0.205   5.589   9.769  0.1559  0.0155 -0.4368
25836SOL    HW178949   0.199   5.675   9.727 -0.6137  0.0868 -0.1966
25836SOL    HW278950   0.172   5.603   9.857 -1.0882 -0.7680 -0.7594
25837SOL     OW78951   3.711   0.132   0.628  0.3358 -0.5079  0.1033
25837SOL    HW178952   3.723   0.166   0.540 -1.6262  1.6982  0.5800
25837SOL    HW278953   3.790   0.158   0.675  1.0166 -0.9442 -0.7872
25838SOL     OW78954   7.098   5.489   2.024  0.7421 -0.1915  0.1018
25838SOL    HW178955   7.128   5.413   1.975  1.5289  0.5775 -0.6324
25838SOL    HW278956   7.177   5.537   2.047  0.2388  0.5743  0.2920
25839SOL     OW78957   3.575   7.267   5.927 -0.8775 -0.0260  0.5514
25839SOL    HW178958   3.656   7.227   5.959 -0.1158 -0.9428 -2.2099
25839SOL    HW278959   3.516   7.193   5.912 -0.7714  0.1956 -1.1528
25840SOL     OW78960   1.396   1.045   4.042  0.0421 -0.1771  0.3102
25840SOL    HW178961   1.369   1.114   4.102  1.4167  0.2555  0.4745
25840SOL    HW278962   1.441   1.091   3.971  0.3945 -0.8419  0.0874
25841SOL     OW78963   5.810   6.277   9.309 -0.3154 -0.1231  0.3033
25841SOL    HW178964   5.747   6.344   9.282 -0.3395 -0.1804  0.2189
25841SOL    HW278965   5.756   6.202   9.334 -0.2807 -2.0652 -4.4044
25842SOL     OW78966   2.651   6.743   3.838 -0.0760  0.4640 -0.2940
25842SOL    HW178967   2.609   6.691   3.770  0.4639 -1.9457  1.1054
25842SOL    HW278968   2.613   6.830   3.829 -1.7527 -0.3954 -2.1357
25843SOL     OW78969   3.067   1.638   8.391 -0.4840 -0.0421  0.4170
25843SOL    HW178970   3.035   1.648   8.302 -0.6507 -0.8836  0.3760
25843SOL    HW278971   3.030   1.555   8.421  0.4201 -0.2808  0.9050
25844SOL     OW78972   2.627   3.884   8.486  0.0926 -0.2654  0.4626
25844SOL    HW178973   2.571   3.874   8.563  0.1129 -0.4829  0.4476
25844SOL    HW278974   2.693   3.816   8.495 -0.6056 -1.0738 -0.3740
25845SOL     OW78975   1.173   6.035   0.724 -0.0325 -0.0451 -0.0269
25845SOL    HW178976   1.163   5.946   0.756 -2.2469  0.6105  1.3090
25845SOL    HW278977   1.095   6.081   0.755  0.2154  1.9580 -2.0910
25846SOL     OW78978   0.804   0.412   1.249  0.1209 -0.7387  0.6824
25846SOL    HW178979   0.821   0.352   1.322  0.5906  0.3868  1.5274
25846SOL    HW278980   0.882   0.467   1.244 -0.2347 -0.2864 -0.1745
25847SOL     OW78981   3.437   6.641   8.679 -0.1768 -0.1938 -0.1998
25847SOL    HW178982   3.517   6.597   8.653  0.3084  1.3671 -1.5152
25847SOL    HW278983   3.375   6.622   8.608 -0.5889 -0.3918  0.2090
25848SOL     OW78984   1.128   6.073   5.776 -0.2350 -0.1250  0.6020
25848SOL    HW178985   1.042   6.038   5.801 -0.4069 -0.2522 -0.1532
25848SOL    HW278986   1.178   5.996   5.749 -0.7831  0.2172 -1.5818
25849SOL     OW78987   2.986   5.770   1.134 -0.3885  0.0018 -0.1048
25849SOL    HW178988   2.961   5.828   1.061 -1.2948 -0.3154 -0.0596
25849SOL    HW278989   2.910   5.771   1.192  0.1135 -0.1874  0.5679
25850SOL     OW78990   6.928   3.083  11.054 -0.4695 -0.1594 -0.4667
25850SOL    HW178991   6.916   3.079  11.149 -0.1010  2.1362 -0.2539
25850SOL    HW278992   7.007   3.136  11.043 -0.2847 -0.7239 -2.0666
25851SOL     OW78993   7.951   3.878   7.821 -0.0133 -0.9610  0.4501
25851SOL    HW178994   8.002   3.907   7.897  0.8562  0.6500 -0.6910
25851SOL    HW278995   8.016   3.836   7.764  0.0343  0.8468 -0.8844
25852SOL     OW78996   1.133   4.637  12.329  0.2953  0.0102  0.0775
25852SOL    HW178997   1.202   4.571  12.331 -0.2969 -0.6320 -0.2821
25852SOL    HW278998   1.061   4.598  12.379  0.9107  1.5406  2.3602
25853SOL     OW78999   4.453   5.136  10.864 -0.5382  0.3937 -0.5349
25853SOL    HW179000   4.401   5.201  10.817 -1.0046 -0.2125 -0.8776
25853SOL    HW279001   4.403   5.055  10.857  0.0111  0.0002 -0.0819
25854SOL     OW79002   0.086   1.838   9.896 -0.1023 -0.0252 -0.2021
25854SOL    HW179003   0.014   1.883   9.941 -0.3610 -1.2657  0.6592
25854SOL    HW279004   0.053   1.825   9.807 -0.7841 -0.2087  0.0661
25855SOL     OW79005   6.634   7.866   0.985 -0.4457  0.0550  0.0549
25855SOL    HW179006   6.630   7.897   0.894 -1.4104  1.8253  0.6494
25855SOL    HW279007   6.724   7.835   0.995  0.6546  2.6661 -0.6766
25856SOL     OW79008   1.403   4.832   1.681 -0.3457 -0.5074  0.8924
25856SOL    HW179009   1.317   4.864   1.707  0.4915  2.2204  0.6257
25856SOL    HW279010   1.438   4.900   1.623  2.3848 -1.0200  1.7643
25857SOL     OW79011   7.152   1.437   4.939  0.3161 -0.0221 -0.1699
25857SOL    HW179012   7.110   1.451   4.855 -0.5873 -0.2562  0.2324
25857SOL    HW279013   7.176   1.344   4.939  0.8121  0.1007 -0.3804
25858SOL     OW79014   0.535   3.487   2.953  0.1783  0.1311 -0.7091
25858SOL    HW179015   0.498   3.574   2.937  1.6107  0.4683 -2.4438
25858SOL    HW279016   0.596   3.473   2.881  0.5190 -2.0310 -0.0665
25859SOL     OW79017   3.654   3.738  11.173  0.5287 -0.3525 -0.3179
25859SOL    HW179018   3.651   3.706  11.263  3.4103  1.5792  0.6019
25859SOL    HW279019   3.575   3.792  11.163  0.0494 -0.7984  0.9499
25860SOL     OW79020   7.077   2.988   7.210 -0.2911 -0.0928 -0.6719
25860SOL    HW179021   7.134   3.017   7.281 -0.6432 -1.7539  0.3423
25860SOL    HW279022   6.989   3.012   7.238 -0.3874 -0.3184 -0.7753
25861SOL     OW79023   1.011   1.382   7.094 -0.1715  0.2358 -0.5178
25861SOL    HW179024   1.040   1.291   7.097 -0.4981  0.1448  1.2037
25861SOL    HW279025   0.920   1.378   7.064 -0.2410 -0.0247 -0.2696
25862SOL     OW79026   4.818   5.760   1.160 -0.4341  0.3464 -0.0369
25862SOL    HW179027   4.826   5.690   1.094 -0.6358  0.6797 -0.4153
25862SOL    HW279028   4.735   5.803   1.140 -0.3219  0.6820  0.2120
25863SOL     OW79029   7.689   2.313   2.022  0.2252 -0.1463  0.8523
25863SOL    HW179030   7.658   2.254   2.091 -0.0515 -0.0656  0.7997
25863SOL    HW279031   7.678   2.401   2.059 -2.0860  0.0425 -0.1122
25864SOL     OW79032   7.354   5.829  11.042  0.0870 -0.3736  0.1440
25864SOL    HW179033   7.412   5.770  10.995  0.2987  0.4210 -0.6048
25864SOL    HW279034   7.405   5.856  11.119  0.5611 -0.0048 -0.2912
25865SOL     OW79035   6.420   7.822  11.248 -0.4305 -0.7283 -0.5015
25865SOL    HW179036   6.378   7.890  11.196 -0.6254 -0.2518  0.2704
25865SOL    HW279037   6.510   7.852  11.259 -0.2413 -1.0874 -0.9937
25866SOL     OW79038   2.838   6.149   4.187 -0.8107  0.2000  0.6124
25866SOL    HW179039   2.811   6.057   4.189  0.1359 -0.0840  0.7683
25866SOL    HW279040   2.926   6.147   4.149 -1.4198  1.2078 -0.9609
25867SOL     OW79041   3.755   2.071   6.659 -0.0764 -0.3996 -0.2636
25867SOL    HW179042   3.670   2.101   6.691  0.1653  1.5496 -1.2881
25867SOL    HW279043   3.818   2.126   6.704  0.7128 -1.9175  0.5799
25868SOL     OW79044   4.531   4.060   8.875  0.2319 -0.6165 -0.5327
25868SOL    HW179045   4.561   4.107   8.797 -0.3336 -3.4153 -2.6450
25868SOL    HW279046   4.611   4.028   8.916  0.5119  0.2556 -0.3873
25869SOL     OW79047   0.263   1.798   4.810  0.4782  0.2921  0.0046
25869SOL    HW179048   0.192   1.760   4.863  1.0533  1.9527  2.1105
25869SOL    HW279049   0.248   1.892   4.814  0.9695  0.5056 -2.2952
25870SOL     OW79050   2.180   7.761   4.513  0.0555  0.4309  0.0116
25870SOL    HW179051   2.116   7.695   4.538  0.2364  0.1770 -0.1903
25870SOL    HW279052   2.265   7.717   4.522  0.3113  1.1391  1.5499
25871SOL     OW79053   3.436   5.247   5.872  0.1659 -0.1018 -0.6679
25871SOL    HW179054   3.439   5.165   5.922  0.2281 -0.0259 -0.5464
25871SOL    HW279055   3.502   5.303   5.914  0.5074 -0.1833 -1.0907
25872SOL     OW79056   0.563   6.029   4.449 -0.0539 -0.2952 -0.2123
25872SOL    HW179057   0.560   6.019   4.354 -0.6986 -0.5086 -0.1736
25872SOL    HW279058   0.505   5.960   4.482 -1.3153  0.9644  0.2501
25873SOL     OW79059   2.383   4.606   8.028 -0.0680 -0.0242 -0.6343
25873SOL    HW179060   2.351   4.663   8.098  0.8311 -0.1679 -0.0902
25873SOL    HW279061   2.351   4.646   7.948 -0.9603  0.2500 -0.1558
25874SOL     OW79062   2.163   4.242  12.230 -0.3472 -0.2654  0.2805
25874SOL    HW179063   2.252   4.247  12.196 -1.1839 -0.7050 -2.1837
25874SOL    HW279064   2.151   4.322  12.280  1.3004 -0.0186  0.3173
25875SOL     OW79065   2.952   6.265   6.858 -0.3561 -0.5005  0.4487
25875SOL    HW179066   2.879   6.238   6.803 -2.0174 -0.0458  2.3195
25875SOL    HW279067   2.953   6.201   6.930  1.0389 -0.4388  0.5090
25876SOL     OW79068   6.455   0.438   4.736 -0.1166  0.3928 -1.3552
25876SOL    HW179069   6.522   0.451   4.669  0.9457 -1.9463 -0.8425
25876SOL    HW279070   6.466   0.347   4.764 -1.1892  0.9669  1.2521
25877SOL     OW79071   1.592   6.391   6.065 -0.2099  0.0710  0.3496
25877SOL    HW179072   1.687   6.381   6.056 -0.2801  0.8435 -1.7562
25877SOL    HW279073   1.555   6.319   6.015 -0.7030  1.0189 -0.6899
25878SOL     OW79074   0.246   1.130   0.102 -0.0079  0.2141  0.4891
25878SOL    HW179075   0.293   1.197   0.152  0.4452  1.5185 -1.5579
25878SOL    HW279076   0.284   1.047   0.130  2.3545  1.1144  0.1161
25879SOL     OW79077   0.907   3.924   3.633 -0.0520  0.6158  0.2808
25879SOL    HW179078   0.875   3.888   3.715  0.9972 -0.4704  0.2339
25879SOL    HW279079   1.003   3.915   3.638 -0.0310 -1.2186 -1.8042
25880SOL     OW79080   1.039   5.647   3.511  0.1611  0.3375 -0.1325
25880SOL    HW179081   1.121   5.686   3.480 -0.2159  0.2076 -1.3787
25880SOL    HW279082   1.062   5.600   3.591  1.6701 -1.0918 -1.3377
25881SOL     OW79083   7.782   2.284   8.625 -0.2134  0.0033  0.1628
25881SOL    HW179084   7.858   2.268   8.682  0.7423  1.8540 -0.5043
25881SOL    HW279085   7.737   2.200   8.621  1.9745 -1.2516  0.3620
25882SOL     OW79086   7.391   2.317   2.419 -0.5180  0.4065  1.2277
25882SOL    HW179087   7.300   2.329   2.448 -0.6006  2.6240  0.2582
25882SOL    HW279088   7.438   2.291   2.499 -2.0372 -1.3069  1.6460
25883SOL     OW79089   3.986   2.052   3.513 -0.1828  0.3154 -0.2932
25883SOL    HW179090   3.983   2.117   3.444  1.6445  0.0832 -0.6488
25883SOL    HW279091   3.962   2.100   3.593  2.1708  1.7648 -0.3542
25884SOL     OW79092   4.307   3.054   3.649  0.2037  0.5333 -0.1890
25884SOL    HW179093   4.274   3.141   3.626  0.1659  0.6716  0.3769
25884SOL    HW279094   4.355   3.067   3.730  0.2258  0.0285 -0.1173
25885SOL     OW79095   0.107   2.004   1.919 -0.6257  0.5515  0.4285
25885SOL    HW179096   0.120   2.061   1.843  0.1345  0.8131  0.7538
25885SOL    HW279097   0.076   1.922   1.881  0.9217  0.2618 -0.2903
25886SOL     OW79098   1.885   3.976   4.261  0.3052 -0.0347 -0.0003
25886SOL    HW179099   1.968   3.985   4.308  0.2495 -0.9595  0.2792
25886SOL    HW279100   1.848   4.064   4.262  1.6209  0.5630 -0.7694
25887SOL     OW79101   6.774   7.342  11.837  0.2869 -0.1421  0.4004
25887SOL    HW179102   6.729   7.405  11.781 -0.2219 -0.7231  0.1392
25887SOL    HW279103   6.846   7.309  11.784 -1.4757 -2.3272 -0.8089
25888SOL     OW79104   5.035   6.495  10.125  0.3096 -0.0146  0.4156
25888SOL    HW179105   5.004   6.405  10.130  0.7137 -0.0990  1.5756
25888SOL    HW279106   5.071   6.503  10.036  1.1792 -1.2860  0.6290
25889SOL     OW79107   7.841   7.599   8.924 -0.0311 -0.1915  0.4078
25889SOL    HW179108   7.810   7.687   8.903  0.0918 -0.1769  0.2819
25889SOL    HW279109   7.936   7.609   8.937  0.0697 -0.3946 -0.1394
25890SOL     OW79110   3.508   5.129  10.951  0.2001 -0.4626 -0.1695
25890SOL    HW179111   3.579   5.098  11.009  0.7672  1.5813  0.3004
25890SOL    HW279112   3.539   5.213  10.918 -2.1735  0.6987  0.3556
25891SOL     OW79113   5.817   5.868   1.345  0.3815 -0.7433 -0.3889
25891SOL    HW179114   5.770   5.872   1.262  0.7758 -1.1775 -0.6372
25891SOL    HW279115   5.803   5.954   1.385  0.5712 -0.3663 -1.1147
25892SOL     OW79116   1.794   7.393  12.389 -0.2337  0.4685 -0.3507
25892SOL    HW179117   1.861   7.399  12.320  0.3595  0.0869  0.1856
25892SOL    HW279118   1.785   7.483  12.420  0.1776  0.4876 -0.2851
25893SOL     OW79119   6.118   4.567   3.929  0.4630  0.1628 -0.2651
25893SOL    HW179120   6.184   4.542   3.865  0.6482  0.5635 -0.2264
25893SOL    HW279121   6.159   4.551   4.014  1.9237  3.8734 -0.1248
25894SOL     OW79122   1.310   2.915   5.031 -0.0485  0.1588 -0.2564
25894SOL    HW179123   1.215   2.906   5.032 -0.1028  0.6912 -0.0835
25894SOL    HW279124   1.328   2.973   4.957  0.0338  1.0831  0.4684
25895SOL     OW79125   2.430   0.431   8.197 -0.7065 -0.2251 -0.0781
25895SOL    HW179126   2.520   0.446   8.226  0.8694 -1.7416 -3.6342
25895SOL    HW279127   2.426   0.468   8.109 -3.5227 -0.4442 -0.1227
25896SOL     OW79128   2.999   5.470   9.267  0.3043  0.3327  0.0522
25896SOL    HW179129   2.951   5.393   9.235  0.5821 -0.2912  1.1046
25896SOL    HW279130   3.000   5.460   9.362  0.1906  1.7414  0.2144
25897SOL     OW79131   6.125   1.560   9.558 -0.9517  0.1561  0.2003
25897SOL    HW179132   6.142   1.469   9.534 -1.2246  0.7724 -2.6608
25897SOL    HW279133   6.030   1.565   9.567 -0.9516  0.1983  0.1782
25898SOL     OW79134   7.150   1.133   5.002 -0.4270  0.5603 -0.2602
25898SOL    HW179135   7.105   1.067   5.054 -4.1509  1.5450 -1.8382
25898SOL    HW279136   7.217   1.085   4.954  0.9498 -0.9057  2.8447
25899SOL     OW79137   5.327   7.620  11.039 -0.6124  0.4571  0.9194
25899SOL    HW179138   5.282   7.561  11.100 -1.3554 -1.3031 -1.1592
25899SOL    HW279139   5.395   7.565  10.998 -0.2159  1.5213  0.0881
25900SOL     OW79140   4.175   4.250   3.329 -0.1690  0.5483 -0.2838
25900SOL    HW179141   4.128   4.194   3.392 -2.8017  0.3444 -2.2598
25900SOL    HW279142   4.190   4.194   3.253  0.4559  1.5350 -0.9161
25901SOL     OW79143   6.973   1.295   5.508  0.1174  0.0661  0.5095
25901SOL    HW179144   7.052   1.267   5.554 -0.1541 -0.7008  0.5223
25901SOL    HW279145   7.005   1.349   5.435  0.7126 -1.0647 -0.0889
25902SOL     OW79146   2.133   2.531   6.604  0.3699  0.2153  0.0371
25902SOL    HW179147   2.206   2.470   6.614  0.1260 -0.1187 -0.1877
25902SOL    HW279148   2.121   2.570   6.691  0.0511 -0.6095  0.3696
25903SOL     OW79149   5.120   0.660   4.559 -0.2247 -0.1649  0.2537
25903SOL    HW179150   5.200   0.711   4.545  1.0009 -1.7351  1.2783
25903SOL    HW279151   5.135   0.613   4.640 -1.7489 -1.3671 -0.1211
25904SOL     OW79152   5.124   5.463   0.870  0.3121 -0.3577 -0.0975
25904SOL    HW179153   5.156   5.530   0.930  0.0326 -0.0337 -0.3076
25904SOL    HW279154   5.174   5.384   0.893  2.2720  0.4585 -1.2929
25905SOL     OW79155   6.293   3.382   4.429 -0.1926 -0.2035  0.0722
25905SOL    HW179156   6.362   3.315   4.431  0.0216 -0.0074 -0.6930
25905SOL    HW279157   6.339   3.464   4.410 -0.6131 -0.0426 -0.2593
25906SOL     OW79158   7.435   3.848   8.554  0.4442 -0.0508  0.1333
25906SOL    HW179159   7.470   3.783   8.615  0.0617 -0.7502 -0.3865
25906SOL    HW279160   7.466   3.932   8.589  1.2237 -0.5269  0.6223
25907SOL     OW79161   0.276   5.417  10.751  0.3332 -0.0934  0.8211
25907SOL    HW179162   0.227   5.366  10.816  0.4733 -1.3014  0.0212
25907SOL    HW279163   0.307   5.494  10.799 -1.7800  0.3973  1.5207
25908SOL     OW79164   6.283   2.534   8.378  0.7394 -0.0212 -0.0941
25908SOL    HW179165   6.205   2.575   8.341  0.5792  0.1795  0.4621
25908SOL    HW279166   6.335   2.509   8.301  1.0019  1.5133 -0.4492
25909SOL     OW79167   7.336   7.722   6.468  0.2699 -0.5624  0.2354
25909SOL    HW179168   7.269   7.673   6.421 -0.0661 -0.1392  0.2706
25909SOL    HW279169   7.409   7.728   6.406  0.6321 -1.7820  0.5042
25910SOL     OW79170   6.305   2.239   0.822 -0.4709 -0.0553 -0.1227
25910SOL    HW179171   6.222   2.285   0.829 -0.4017 -0.0111  0.4580
25910SOL    HW279172   6.335   2.229   0.912  0.1806 -0.0233 -0.3291
25911SOL     OW79173   2.235   2.451   2.650  0.0842  0.0817 -0.2965
25911SOL    HW179174   2.243   2.482   2.560 -1.0169  1.4244  0.0371
25911SOL    HW279175   2.148   2.411   2.654 -0.0028  0.3092  0.2373
25912SOL     OW79176   7.552   1.942   5.872 -0.2045  0.1794 -0.7880
25912SOL    HW179177   7.509   1.950   5.787 -1.4990 -1.7438 -0.3718
25912SOL    HW279178   7.595   1.856   5.870  1.2856  0.8668 -0.1339
25913SOL     OW79179   6.738   5.740   8.936 -0.2641  0.2686  0.2416
25913SOL    HW179180   6.811   5.801   8.931  0.3591 -0.4361  0.5511
25913SOL    HW279181   6.722   5.714   8.845  1.1513 -1.0397  0.3324
25914SOL     OW79182   7.001   5.485  11.175  0.0414  0.0914 -0.1513
25914SOL    HW179183   7.084   5.442  11.153  1.2861  2.1010  0.3270
25914SOL    HW279184   7.022   5.578  11.173 -2.0213  0.6210  0.8170
25915SOL     OW79185   1.063   3.402  10.918  0.1612  0.0004 -0.2240
25915SOL    HW179186   1.157   3.389  10.908  0.1385  0.1920 -0.7120
25915SOL    HW279187   1.032   3.425  10.830 -0.1716  1.0269  0.1505
25916SOL     OW79188   6.166   6.033   9.620  0.1131 -0.3262 -0.5868
25916SOL    HW179189   6.241   5.976   9.635 -0.3742 -0.2981  2.8837
25916SOL    HW279190   6.132   6.007   9.534  1.2413 -3.7028 -0.1649
25917SOL     OW79191   3.410   1.933   6.521  0.3648 -0.6565 -0.0908
25917SOL    HW179192   3.316   1.923   6.513  0.3510 -1.9315  1.2322
25917SOL    HW279193   3.423   2.027   6.537 -0.6029 -0.3524 -1.0129
25918SOL     OW79194   3.767   5.445  10.132 -0.4800  0.3595  0.2330
25918SOL    HW179195   3.744   5.429  10.040  1.1792  3.1782 -0.7974
25918SOL    HW279196   3.839   5.383  10.149  1.6690  2.1360 -1.6410
25919SOL     OW79197   1.320   0.292  10.425 -0.0906  0.4670 -0.2063
25919SOL    HW179198   1.368   0.232  10.369  1.0512  1.5988 -0.4818
25919SOL    HW279199   1.275   0.236  10.488  2.0185 -0.6447  0.4033
25920SOL     OW79200   6.894   5.705  11.421  0.2064 -0.8805 -0.3530
25920SOL    HW179201   6.982   5.712  11.384  1.1183 -0.1207  1.7819
25920SOL    HW279202   6.908   5.664  11.506 -1.2572  0.6954  0.7143
25921SOL     OW79203   6.687   1.423  11.233 -0.3487 -0.6785 -0.5239
25921SOL    HW179204   6.699   1.484  11.160 -3.4724  0.2213 -0.4037
25921SOL    HW279205   6.770   1.427  11.281  0.5293  1.3705 -2.0493
25922SOL     OW79206   0.986   2.762   9.043  0.2991  0.1714  0.6745
25922SOL    HW179207   0.892   2.764   9.024  0.3168 -0.9012  0.4041
25922SOL    HW279208   0.991   2.749   9.138  0.1131 -2.3350  0.4101
25923SOL     OW79209   6.418   6.592  10.978  1.0154 -0.0843  0.2352
25923SOL    HW179210   6.444   6.683  10.988  1.2280 -0.1774  0.5644
25923SOL    HW279211   6.452   6.549  11.057  1.3371 -0.5429 -0.1513
25924SOL     OW79212   1.893   7.646   0.330  0.0880  0.0173 -0.0648
25924SOL    HW179213   1.956   7.580   0.301  0.2464 -0.4302  1.2093
25924SOL    HW279214   1.903   7.648   0.425 -0.9818  0.8019  0.0509
25925SOL     OW79215   5.509   5.822   2.955 -0.2052  0.1382  0.0258
25925SOL    HW179216   5.565   5.829   2.877  0.9772 -1.9959  0.6031
25925SOL    HW279217   5.528   5.902   3.005 -1.0107  1.5690 -1.8186
25926SOL     OW79218   2.732   0.697   7.769 -0.0535  0.2539 -0.2306
25926SOL    HW179219   2.713   0.605   7.791 -0.4749 -0.1931 -2.2171
25926SOL    HW279220   2.658   0.724   7.714  0.0737  1.8018  0.3153
25927SOL     OW79221   1.708   2.267   8.838 -0.0982  0.0283  0.1724
25927SOL    HW179222   1.649   2.296   8.768 -2.1416 -0.9766  1.3830
25927SOL    HW279223   1.684   2.320   8.914 -0.0061 -0.9179  0.8937
25928SOL     OW79224   4.303   3.896  11.107 -0.6508 -0.5817  0.2130
25928SOL    HW179225   4.256   3.852  11.036 -0.5680  0.5746 -0.5776
25928SOL    HW279226   4.285   3.842  11.184 -0.0799 -2.3396 -0.8199
25929SOL     OW79227   4.467   3.408   1.272 -0.2462  0.0611  0.4006
25929SOL    HW179228   4.543   3.381   1.219 -0.7025 -0.8536  0.1953
25929SOL    HW279229   4.394   3.358   1.236 -1.2468  1.9414 -0.3079
25930SOL     OW79230   4.572   5.829   1.073  0.4894 -0.5565  0.5467
25930SOL    HW179231   4.513   5.844   1.146  1.6849 -0.5223  1.5425
25930SOL    HW279232   4.515   5.818   0.997 -0.7744 -0.5260  1.4707
25931SOL     OW79233   5.475   1.680   7.020 -0.6093  0.4175 -0.5353
25931SOL    HW179234   5.437   1.689   7.107  0.5212 -0.4177  0.0705
25931SOL    HW279235   5.533   1.604   7.026 -0.5330  0.3164 -2.0275
25932SOL     OW79236   6.748   5.904   5.800  0.3124  0.3299  0.2243
25932SOL    HW179237   6.750   5.929   5.708  0.1998 -0.7099 -0.0798
25932SOL    HW279238   6.723   5.984   5.846 -0.9443  0.5560 -0.7707
25933SOL     OW79239   3.455   6.180   4.315 -0.7203  0.1673 -0.1799
25933SOL    HW179240   3.482   6.131   4.393 -0.7543 -0.9309 -0.8404
25933SOL    HW279241   3.454   6.115   4.245  0.3241  1.3455 -1.3358
25934SOL     OW79242   6.475   2.370   0.647  0.0943 -0.3737 -0.4056
25934SOL    HW179243   6.422   2.446   0.623 -0.0788 -0.8797 -1.7120
25934SOL    HW279244   6.419   2.319   0.706 -0.2863 -0.1385 -0.5615
25935SOL     OW79245   5.953   1.737   6.036 -0.0327  0.1601  0.1948
25935SOL    HW179246   5.919   1.685   5.963 -3.0839  0.5874  1.1828
25935SOL    HW279247   5.943   1.680   6.112 -0.3163  0.9976  0.7948
25936SOL     OW79248   0.699   2.112   2.814 -0.1089  0.0741 -0.2797
25936SOL    HW179249   0.705   2.207   2.807 -1.1184  0.1919  0.2981
25936SOL    HW279250   0.638   2.096   2.886 -0.6993 -0.9999 -0.9811
25937SOL     OW79251   2.420   3.587  10.537  0.2479  0.3991  0.2051
25937SOL    HW179252   2.347   3.558  10.591 -1.8343  1.4353 -1.8348
25937SOL    HW279253   2.464   3.506  10.509 -1.1230 -0.3736  0.2086
25938SOL     OW79254   6.079   1.573   1.851 -0.1877 -0.0808  0.1790
25938SOL    HW179255   6.075   1.668   1.846  1.5353 -0.0436 -1.7343
25938SOL    HW279256   6.155   1.554   1.906 -0.4456 -0.3517  0.4480
25939SOL     OW79257   2.191   6.442   0.126 -0.3100  0.3858  0.0714
25939SOL    HW179258   2.271   6.398   0.155  0.6990  2.1374  0.0943
25939SOL    HW279259   2.222   6.518   0.076 -1.9914  0.1027 -1.4937
25940SOL     OW79260   2.776   7.045   4.083 -0.5591  0.0242 -0.2032
25940SOL    HW179261   2.742   7.132   4.103 -1.5042  0.1026 -1.9439
25940SOL    HW279262   2.788   7.045   3.988  0.5243 -1.3695 -0.0928
25941SOL     OW79263   5.249   6.789   9.678  0.0462 -0.2118 -0.5088
25941SOL    HW179264   5.192   6.799   9.602 -1.1552 -4.4411 -0.4139
25941SOL    HW279265   5.201   6.829   9.751 -0.9408 -0.1840 -1.1652
25942SOL     OW79266   0.194   7.442   0.416 -0.0111  0.6137 -0.0387
25942SOL    HW179267   0.222   7.351   0.413 -0.0029  0.6312 -1.0924
25942SOL    HW279268   0.259   7.486   0.471 -0.3738 -0.1209  0.9988
25943SOL     OW79269   5.607   4.896  10.897 -0.1790 -0.3545 -0.5347
25943SOL    HW179270   5.526   4.944  10.911 -0.4555 -0.7130 -0.8929
25943SOL    HW279271   5.633   4.867  10.985 -1.1799 -1.4283 -0.5650
25944SOL     OW79272   6.597   4.957   5.248 -0.1053 -0.1641  0.5482
25944SOL    HW179273   6.530   5.024   5.261  0.6832  1.1435 -1.6774
25944SOL    HW279274   6.561   4.898   5.183  0.2482 -0.4223  0.5799
25945SOL     OW79275   5.663   5.603   5.260  0.4816 -0.6054  0.9704
25945SOL    HW179276   5.589   5.556   5.222 -1.4163  1.3533  1.9877
25945SOL    HW279277   5.711   5.638   5.185 -0.4669 -0.6930  0.3156
25946SOL     OW79278   7.860   4.038   7.223  0.1587  0.6159 -0.1092
25946SOL    HW179279   7.945   4.049   7.267  0.3955  1.3702 -0.7262
25946SOL    HW279280   7.829   3.953   7.252  1.1629  0.2992  0.0883
25947SOL     OW79281   6.889   2.076  11.035 -0.3330 -0.9830 -0.2873
25947SOL    HW179282   6.928   2.157  11.067  1.2027 -1.6886 -0.2766
25947SOL    HW279283   6.841   2.040  11.110 -1.5915  0.2110 -0.4807
25948SOL     OW79284   5.904   2.807  10.898  0.6418 -0.4418 -0.0274
25948SOL    HW179285   5.914   2.713  10.917  2.5209  0.1597  2.5712
25948SOL    HW279286   5.993   2.842  10.903  0.0061  1.4928 -1.1564
25949SOL     OW79287   2.458   4.392   4.187  0.3343 -0.2387  0.3506
25949SOL    HW179288   2.531   4.366   4.243 -1.1567 -0.3441  2.3541
25949SOL    HW279289   2.425   4.310   4.150  1.9414 -0.0840 -1.6210
25950SOL     OW79290   7.196   2.006   4.827 -0.3305  0.0225 -0.1248
25950SOL    HW179291   7.157   2.049   4.903 -2.1482 -0.9877 -0.4167
25950SOL    HW279292   7.262   1.947   4.865  0.1526  0.9289  0.4845
25951SOL     OW79293   2.159   7.857   7.139 -0.1995  0.1896  0.4009
25951SOL    HW179294   2.066   7.842   7.124 -0.4835  1.1668  1.0458
25951SOL    HW279295   2.185   7.789   7.202 -0.7997  0.7034  1.2171
25952SOL     OW79296   6.630   0.757   8.922 -0.1655  1.3040 -0.3355
25952SOL    HW179297   6.637   0.668   8.887 -2.7910  0.0968  1.8545
25952SOL    HW279298   6.545   0.788   8.893  1.3381  3.9281 -2.4654
25953SOL     OW79299   4.168   5.660   2.017 -0.0588  0.5096 -0.1554
25953SOL    HW179300   4.254   5.619   2.030  0.2725  1.3062  0.2873
25953SOL    HW279301   4.170   5.690   1.926 -0.1280 -0.0521 -0.3445
25954SOL     OW79302   4.131   5.514   0.225  0.1272 -0.1329 -0.4714
25954SOL    HW179303   4.082   5.485   0.302  0.6843  0.4760  0.1206
25954SOL    HW279304   4.221   5.486   0.242  0.4386  0.8463 -0.4557
25955SOL     OW79305   1.155   3.579  11.303 -0.4766 -0.0326  0.2871
25955SOL    HW179306   1.156   3.625  11.219 -0.2612  0.8328  0.7456
25955SOL    HW279307   1.188   3.644  11.366  1.0346 -1.1951  0.7751
25956SOL     OW79308   7.110   4.130   6.771  0.1354  0.5961 -0.1752
25956SOL    HW179309   7.086   4.186   6.845  0.4032  0.4756  0.0061
25956SOL    HW279310   7.162   4.060   6.810  0.4378  0.6340 -0.5042
25957NA      NA79311   3.319   3.787   7.228  0.1183 -0.1507  0.4563
25958NA      NA79312   4.057   6.269   9.606  0.0481  0.0944 -0.2888
25959NA      NA79313   5.317   3.687   9.831  0.0247 -0.0543  0.0794
25960NA      NA79314   5.916   2.377   7.656  0.1784  0.2966  0.0573
25961NA      NA79315   3.240   5.440   9.223  0.1854  0.3808 -0.3572
25962NA      NA79316   4.048   4.426   3.824 -0.3961  0.0659 -0.4942
25963NA      NA79317   5.189   3.858   5.678  0.1721  0.5933  0.1594
25964NA      NA79318   3.164   4.472   3.850  0.2793 -0.0813  0.1387
25965NA      NA79319   2.650   4.792   4.669  0.1780  0.5209 -0.1679
25966NA      NA79320   3.755   4.018   4.772 -0.0499 -0.2093 -0.1949
25967NA      NA79321   1.827   5.858   7.296  0.0222 -0.4475  0.1526
25968NA      NA79322   3.908   3.649   7.113 -0.1312  0.3978 -0.4879
25969NA      NA79323   3.979   4.177   7.306 -0.1597  0.4252 -0.4061
25970NA      NA79324   2.244   2.610   5.362  0.2265  0.2950 -0.0481
25971NA      NA79325   3.060   4.745   3.185 -0.7087 -0.2250  0.5391
25972NA      NA79326   3.857   3.173   7.540  0.2097 -0.1577 -0.5743
25973NA      NA79327   2.370   4.506   0.283  0.3908 -0.2372  0.5599
25974NA      NA79328   4.163   3.131   5.253  0.3297  0.3190  0.0804
25975NA      NA79329   3.461   3.429   4.453 -0.0691 -0.3280 -0.5944
25976NA      NA79330   1.633   1.676   8.725  0.4618  0.1347  0.0332
25977NA      NA79331   4.148   4.558   5.921  0.2982  0.0468  0.1595
25978NA      NA79332   3.370   4.624   6.783  0.2854  0.1023 -0.1959
25979NA      NA79333   4.335   4.705   3.328 -0.2123 -0.0457 -0.3734
25980NA      NA79334   4.693   2.523   7.750  0.6225  0.1997  0.2283
25981NA      NA79335   5.090   4.864   6.041  0.5566  0.0437  0.4052
25982NA      NA79336   3.116   7.599   3.388 -0.4650 -0.4218 -0.2528
25983NA      NA79337   2.933   4.508   7.110 -0.2981  0.2383  0.2749
25984NA      NA79338   4.377   4.796  11.083  0.0162  0.6753 -0.3838
25985NA      NA79339   6.239   2.471  10.214 -0.6981 -0.0742 -0.0189
25986NA      NA79340   3.850   3.377   7.998  0.2816 -0.1933 -0.3262
25987NA      NA79341   2.445   1.914   6.698  0.2796 -0.1876 -0.6506
25988NA      NA79342   4.058   4.142   8.773  0.5530 -0.2887  0.0956
25989NA      NA79343   4.200   7.516   5.994  0.4837  0.1110 -0.0064
25990NA      NA79344   4.021   2.587   5.585 -0.4166  0.0418  0.4274
25991NA      NA79345   1.957   7.934   4.003 -0.4971 -0.0292  0.4239
25992NA      NA79346   4.034   4.062   2.328  0.1148  0.0658 -0.1891
25993NA      NA79347   4.770   3.433   8.497 -0.5974  0.1017  0.0489
25994NA      NA79348   4.875   0.331   1.178  0.0208  0.5090 -0.0248
25995NA      NA79349   4.642   2.971   2.732  0.1575 -0.3919 -0.0292
25996NA      NA79350   1.926   4.565   4.068  0.1607 -0.2368 -0.2704
25997NA      NA79351   5.447   6.817   0.517 -0.2223 -0.1963 -0.3998
25998NA      NA79352   5.149   2.911   4.373  0.0592 -0.1001 -0.2075
25999NA      NA79353   6.036   4.479   5.918  0.1282  0.0710  0.1324
26000NA      NA79354   4.167   7.565   6.580  0.1272  0.0959  0.1936
26001NA      NA79355   5.448   4.144   9.252 -0.8571 -0.1587 -0.2383
26002NA      NA79356   7.347   3.670   6.233 -0.2285  0.3039 -0.0322
26003NA      NA79357   2.112   3.470   8.894 -0.2759  0.1473  0.0020
26004NA      NA79358   4.133   4.012   6.025  0.0427  0.1761 -0.1636
   7.98643   7.98643  12.47880
